
                                        *****************
                                        * O   R   C   A *
                                        *****************

                                            #,                                       
                                            ###                                      
                                            ####                                     
                                            #####                                    
                                            ######                                   
                                           ########,                                 
                                     ,,################,,,,,                         
                               ,,#################################,,                 
                          ,,##########################################,,             
                       ,#########################################, ''#####,          
                    ,#############################################,,   '####,        
                  ,##################################################,,,,####,       
                ,###########''''           ''''###############################       
              ,#####''   ,,,,##########,,,,          '''####'''          '####       
            ,##' ,,,,###########################,,,                        '##       
           ' ,,###''''                  '''############,,,                           
         ,,##''                                '''############,,,,        ,,,,,,###''
      ,#''                                            '''#######################'''  
     '                                                          ''''####''''         
             ,#######,   #######,   ,#######,      ##                                
            ,#'     '#,  ##    ##  ,#'     '#,    #''#        ######   ,####,        
            ##       ##  ##   ,#'  ##            #'  '#       #        #'  '#        
            ##       ##  #######   ##           ,######,      #####,   #    #        
            '#,     ,#'  ##    ##  '#,     ,#' ,#      #,         ##   #,  ,#        
             '#######'   ##     ##  '#######'  #'      '#     #####' # '####'        



                  #######################################################
                  #                        -***-                        #
                  #          Department of theory and spectroscopy      #
                  #    Directorship and core code : Frank Neese         #
                  #        Max Planck Institute fuer Kohlenforschung    #
                  #                Kaiser Wilhelm Platz 1               #
                  #                 D-45470 Muelheim/Ruhr               #
                  #                      Germany                        #
                  #                                                     #
                  #                  All rights reserved                #
                  #                        -***-                        #
                  #######################################################


                         Program Version 5.0.0 -  RELEASE  -
                                (SVN: $Rev: 19529$)
                ($Date: 2021-06-28 11:36:33 +0200 (Mo, 28 Jun 2021) $)


 With contributions from (in alphabetic order):
   Daniel Aravena         : Magnetic Suceptibility
   Michael Atanasov       : Ab Initio Ligand Field Theory (pilot matlab implementation)
   Alexander A. Auer      : GIAO ZORA, VPT2 properties, NMR spectrum
   Ute Becker             : Parallelization
   Giovanni Bistoni       : ED, misc. LED, open-shell LED, HFLD
   Martin Brehm           : Molecular dynamics
   Dmytro Bykov           : SCF Hessian
   Vijay G. Chilkuri      : MRCI spin determinant printing, contributions to CSF-ICE
   Dipayan Datta          : RHF DLPNO-CCSD density
   Achintya Kumar Dutta   : EOM-CC, STEOM-CC
   Dmitry Ganyushin       : Spin-Orbit,Spin-Spin,Magnetic field MRCI
   Miquel Garcia          : C-PCM Hessian, Gaussian charge scheme
   Yang Guo               : DLPNO-NEVPT2, F12-NEVPT2, CIM, IAO-localization
   Andreas Hansen         : Spin unrestricted coupled pair/coupled cluster methods
   Benjamin Helmich-Paris : MC-RPA, TRAH-SCF, COSX integrals
   Lee Huntington         : MR-EOM, pCC
   Robert Izsak           : Overlap fitted RIJCOSX, COSX-SCS-MP3, EOM
   Marcus Kettner         : VPT2
   Christian Kollmar      : KDIIS, OOCD, Brueckner-CCSD(T), CCSD density, CASPT2, CASPT2-K
   Simone Kossmann        : Meta GGA functionals, TD-DFT gradient, OOMP2, MP2 Hessian
   Martin Krupicka        : Initial AUTO-CI
   Lucas Lang             : DCDCAS
   Marvin Lechner         : AUTO-CI (C++ implementation), FIC-MRCC
   Dagmar Lenk            : GEPOL surface, SMD
   Dimitrios Liakos       : Extrapolation schemes; Compound Job, initial MDCI parallelization
   Dimitrios Manganas     : Further ROCIS development; embedding schemes
   Dimitrios Pantazis     : SARC Basis sets
   Anastasios Papadopoulos: AUTO-CI, single reference methods and gradients
   Taras Petrenko         : DFT Hessian,TD-DFT gradient, ASA, ECA, R-Raman, ABS, FL, XAS/XES, NRVS
   Peter Pinski           : DLPNO-MP2, DLPNO-MP2 Gradient
   Christoph Reimann      : Effective Core Potentials
   Marius Retegan         : Local ZFS, SOC
   Christoph Riplinger    : Optimizer, TS searches, QM/MM, DLPNO-CCSD(T), (RO)-DLPNO pert. Triples
   Tobias Risthaus        : Range-separated hybrids, TD-DFT gradient, RPA, STAB
   Michael Roemelt        : Original ROCIS implementation
   Masaaki Saitow         : Open-shell DLPNO-CCSD energy and density
   Barbara Sandhoefer     : DKH picture change effects
   Avijit Sen             : IP-ROCIS
   Kantharuban Sivalingam : CASSCF convergence, NEVPT2, FIC-MRCI
   Bernardo de Souza      : ESD, SOC TD-DFT
   Georgi Stoychev        : AutoAux, RI-MP2 NMR
   Willem Van den Heuvel  : Paramagnetic NMR
   Boris Wezisla          : Elementary symmetry handling
   Frank Wennmohs         : Technical directorship


 We gratefully acknowledge several colleagues who have allowed us to
 interface, adapt or use parts of their codes:
   Stefan Grimme, W. Hujo, H. Kruse, P. Pracht,  : VdW corrections, initial TS optimization,
                  C. Bannwarth, S. Ehlert          DFT functionals, gCP, sTDA/sTD-DF
   Ed Valeev, F. Pavosevic, A. Kumar             : LibInt (2-el integral package), F12 methods
   Garnet Chan, S. Sharma, J. Yang, R. Olivares  : DMRG
   Ulf Ekstrom                                   : XCFun DFT Library
   Mihaly Kallay                                 : mrcc  (arbitrary order and MRCC methods)
   Jiri Pittner, Ondrej Demel                    : Mk-CCSD
   Frank Weinhold                                : gennbo (NPA and NBO analysis)
   Christopher J. Cramer and Donald G. Truhlar   : smd solvation model
   Lars Goerigk                                  : TD-DFT with DH, B97 family of functionals
   V. Asgeirsson, H. Jonsson                     : NEB implementation
   FAccTs GmbH                                   : IRC, NEB, NEB-TS, DLPNO-Multilevel, CI-OPT
                                                   MM, QMMM, 2- and 3-layer-ONIOM, Crystal-QMMM,
                                                   LR-CPCM, SF, NACMEs, symmetry and pop. for TD-DFT,
                                                   nearIR, NL-DFT gradient (VV10), updates on ESD,
                                                   ML-optimized integration grids
   S Lehtola, MJT Oliveira, MAL Marques          : LibXC Library
   Liviu Ungur et al                             : ANISO software


 Your calculation uses the libint2 library for the computation of 2-el integrals
 For citations please refer to: http://libint.valeyev.net

 Your ORCA version has been built with support for libXC version: 5.1.0
 For citations please refer to: https://tddft.org/programs/libxc/

 This ORCA versions uses:
   CBLAS   interface :  Fast vector & matrix operations
   LAPACKE interface :  Fast linear algebra routines
   SCALAPACK package :  Parallel linear algebra routines
   Shared memory     :  Shared parallel matrices
   BLAS/LAPACK       :  OpenBLAS 0.3.15  USE64BITINT DYNAMIC_ARCH NO_AFFINITY Haswell SINGLE_THREADED
        Core in use  :  Haswell
   Copyright (c) 2011-2014, The OpenBLAS Project


Your calculation utilizes the atom-pairwise dispersion correction
with the Becke-Johnson damping scheme (D3BJ)
Cite in your paper:
S.Grimme, S.Ehrlich, L.Goerigk, J Comput Chem, (2011), 32, 1456–1465 
S.Grimme, J.Antony, S.Ehrlich and H.Krieg, J.Chem.Phys., 132, (2010), 154104 
   

================================================================================

----- Orbital basis set information -----
Your calculation utilizes the basis: def2-TZVP
   F. Weigend and R. Ahlrichs, Phys. Chem. Chem. Phys. 7, 3297 (2005).

----- AuxJ basis set information -----
Your calculation utilizes the auxiliary basis: def2/J
   F. Weigend, Phys. Chem. Chem. Phys. 8, 1057 (2006).

================================================================================
                                        WARNINGS
                       Please study these warnings very carefully!
================================================================================


INFO   : the flag for use of the SHARK integral package has been found!

================================================================================
                                       INPUT FILE
================================================================================
NAME = TZVP_B3LYP_C1_wt_dlpno_pos.com
|  1> !B3LYP D3BJ RIJCOSX def2-TZVP def2/J TightSCF
|  2> *xyz 0 1 
|  3> C          0.64866        1.00359       -3.64560
|  4> C          0.28128        0.67645       -2.24018
|  5> C          0.13297        2.38587       -4.02462
|  6> H          0.39079       -0.31925       -2.02649
|  7> H         -0.69269        0.99010       -2.13812
|  8> H          0.85421        1.21221       -1.57528
|  9> H          0.19099        0.23965       -4.27575
| 10> H          1.73157        0.93173       -3.75075
| 11> H          0.40589        2.60338       -5.03610
| 12> H          0.56342        3.11797       -3.37374
| 13> H         -0.93265        2.40724       -3.93025
| 14> *
| 15> %MaxCore 64000
| 16> 
| 17> %pal nprocs 4
| 18> end  
| 19> 
| 20> %scf
| 21>   MaxIter 150
| 22> end
| 23> 
| 24> 
| 25>                          ****END OF INPUT****
================================================================================

                       ****************************
                       * Single Point Calculation *
                       ****************************

---------------------------------
CARTESIAN COORDINATES (ANGSTROEM)
---------------------------------
  C      0.648660    1.003590   -3.645600
  C      0.281280    0.676450   -2.240180
  C      0.132970    2.385870   -4.024620
  H      0.390790   -0.319250   -2.026490
  H     -0.692690    0.990100   -2.138120
  H      0.854210    1.212210   -1.575280
  H      0.190990    0.239650   -4.275750
  H      1.731570    0.931730   -3.750750
  H      0.405890    2.603380   -5.036100
  H      0.563420    3.117970   -3.373740
  H     -0.932650    2.407240   -3.930250

----------------------------
CARTESIAN COORDINATES (A.U.)
----------------------------
  NO LB      ZA    FRAG     MASS         X           Y           Z
   0 C     6.0000    0    12.011    1.225790    1.896510   -6.889186
   1 C     6.0000    0    12.011    0.531542    1.278305   -4.233327
   2 C     6.0000    0    12.011    0.251277    4.508641   -7.605430
   3 H     1.0000    0     1.008    0.738486   -0.603295   -3.829511
   4 H     1.0000    0     1.008   -1.308994    1.871018   -4.040461
   5 H     1.0000    0     1.008    1.614223    2.290745   -2.976848
   6 H     1.0000    0     1.008    0.360919    0.452873   -8.079997
   7 H     1.0000    0     1.008    3.272193    1.760715   -7.087890
   8 H     1.0000    0     1.008    0.767021    4.919675   -9.516850
   9 H     1.0000    0     1.008    1.064709    5.892109   -6.375445
  10 H     1.0000    0     1.008   -1.762453    4.549024   -7.427096

--------------------------------
INTERNAL COORDINATES (ANGSTROEM)
--------------------------------
 C      0   0   0     0.000000000000     0.00000000     0.00000000
 C      1   0   0     1.489024519744     0.00000000     0.00000000
 C      1   2   0     1.523249925291   110.52972337     0.00000000
 H      2   1   3     1.024243304201   112.58892905   165.09834246
 H      2   1   3     1.028304491384   105.09108425    42.74206744
 H      2   1   3     1.028289634539   110.99990650   286.54439674
 H      1   2   3     1.090942333490   106.72840787   239.83662356
 H      1   2   3     1.090373537005   108.75835793   123.14312847
 H      3   1   2     1.069994260218   109.47119075   180.00011491
 H      3   1   2     1.070001115373   109.47117776    59.99996876
 H      3   1   2     1.070003905694   109.47145656   300.00033926

---------------------------
INTERNAL COORDINATES (A.U.)
---------------------------
 C      0   0   0     0.000000000000     0.00000000     0.00000000
 C      1   0   0     2.813848549011     0.00000000     0.00000000
 C      1   2   0     2.878525192317   110.52972337     0.00000000
 H      2   1   3     1.935539339442   112.58892905   165.09834246
 H      2   1   3     1.943213870996   105.09108425    42.74206744
 H      2   1   3     1.943185795628   110.99990650   286.54439674
 H      1   2   3     2.061582238197   106.72840787   239.83662356
 H      1   2   3     2.060507368614   108.75835793   123.14312847
 H      3   1   2     2.021996116680   109.47119075   180.00011491
 H      3   1   2     2.022009071046   109.47117776    59.99996876
 H      3   1   2     2.022014343987   109.47145656   300.00033926

---------------------
BASIS SET INFORMATION
---------------------
There are 2 groups of distinct atoms

 Group   1 Type C   : 11s6p2d1f contracted to 5s3p2d1f pattern {62111/411/11/1}
 Group   2 Type H   : 5s1p contracted to 3s1p pattern {311/1}

Atom   0C    basis set group =>   1
Atom   1C    basis set group =>   1
Atom   2C    basis set group =>   1
Atom   3H    basis set group =>   2
Atom   4H    basis set group =>   2
Atom   5H    basis set group =>   2
Atom   6H    basis set group =>   2
Atom   7H    basis set group =>   2
Atom   8H    basis set group =>   2
Atom   9H    basis set group =>   2
Atom  10H    basis set group =>   2
---------------------------------
AUXILIARY/J BASIS SET INFORMATION
---------------------------------
There are 2 groups of distinct atoms

 Group   1 Type C   : 12s5p4d2f1g contracted to 6s4p3d1f1g pattern {711111/2111/211/2/1}
 Group   2 Type H   : 5s2p1d contracted to 3s1p1d pattern {311/2/1}

Atom   0C    basis set group =>   1
Atom   1C    basis set group =>   1
Atom   2C    basis set group =>   1
Atom   3H    basis set group =>   2
Atom   4H    basis set group =>   2
Atom   5H    basis set group =>   2
Atom   6H    basis set group =>   2
Atom   7H    basis set group =>   2
Atom   8H    basis set group =>   2
Atom   9H    basis set group =>   2
Atom  10H    basis set group =>   2


           ************************************************************
           *        Program running with 4 parallel MPI-processes     *
           *              working on a common directory               *
           ************************************************************
------------------------------------------------------------------------------
                           ORCA GTO INTEGRAL CALCULATION
                           -- RI-GTO INTEGRALS CHOSEN --
------------------------------------------------------------------------------
------------------------------------------------------------------------------
                   ___                                                        
                  /   \      - P O W E R E D   B Y -                         
                 /     \                                                     
                 |  |  |   _    _      __       _____    __    __             
                 |  |  |  | |  | |    /  \     |  _  \  |  |  /  |          
                  \  \/   | |  | |   /    \    | | | |  |  | /  /          
                 / \  \   | |__| |  /  /\  \   | |_| |  |  |/  /          
                |  |  |   |  __  | /  /__\  \  |    /   |      \           
                |  |  |   | |  | | |   __   |  |    \   |  |\   \          
                \     /   | |  | | |  |  |  |  | |\  \  |  | \   \       
                 \___/    |_|  |_| |__|  |__|  |_| \__\ |__|  \__/        
                                                                              
                      - O R C A' S   B I G   F R I E N D -                    
                                      &                                       
                       - I N T E G R A L  F E E D E R -                       
                                                                              
 v1 FN, 2020, v2 2021                                                         
------------------------------------------------------------------------------


Reading SHARK input file TZVP_B3LYP_C1_wt_dlpno_pos.SHARKINP.tmp ... ok
----------------------
SHARK INTEGRAL PACKAGE
----------------------

Number of atoms                             ...     11
Number of basis functions                   ...    141
Number of shells                            ...     65
Maximum angular momentum                    ...      3
Integral batch strategy                     ... SHARK/LIBINT Hybrid
RI-J (if used) integral strategy            ... SPLIT-RIJ (Revised 2003 algorithm where possible)
Printlevel                                  ...      1
Contraction scheme used                     ... SEGMENTED contraction
Coulomb Range Separation                    ... NOT USED
Exchange Range Separation                   ... NOT USED
Finite Nucleus Model                        ... NOT USED
Auxiliary Coulomb fitting basis             ... AVAILABLE
   # of basis functions in Aux-J            ...    235
   # of shells in Aux-J                     ...     85
   Maximum angular momentum in Aux-J        ...      4
Auxiliary J/K fitting basis                 ... NOT available
Auxiliary Correlation fitting basis         ... NOT available
Auxiliary 'external' fitting basis          ... NOT available
Integral threshold                          ...     2.500000e-11
Primitive cut-off                           ...     2.500000e-12
Primitive pair pre-selection threshold      ...     2.500000e-12

Calculating pre-screening integrals         ... done (  0.1 sec) Dimension = 65
Organizing shell pair data                  ... done (  0.0 sec)
Shell pair information
Total number of shell pairs                 ...      2145
Shell pairs after pre-screening             ...      2124
Total number of primitive shell pairs       ...      5976
Primitive shell pairs kept                  ...      5059
          la=0 lb=0:    763 shell pairs
          la=1 lb=0:    659 shell pairs
          la=1 lb=1:    153 shell pairs
          la=2 lb=0:    234 shell pairs
          la=2 lb=1:    102 shell pairs
          la=2 lb=2:     21 shell pairs
          la=3 lb=0:    117 shell pairs
          la=3 lb=1:     51 shell pairs
          la=3 lb=2:     18 shell pairs
          la=3 lb=3:      6 shell pairs

Calculating one electron integrals          ... done (  0.0 sec)
Calculating RI/J V-Matrix + Cholesky decomp.... done (  0.0 sec)
Calculating Nuclear repulsion               ... done (  0.0 sec) ENN=     84.734325778030 Eh

SHARK setup successfully completed in   0.2 seconds

Maximum memory used throughout the entire GTOINT-calculation: 13.8 MB


           ************************************************************
           *        Program running with 4 parallel MPI-processes     *
           *              working on a common directory               *
           ************************************************************
-------------------------------------------------------------------------------
                                 ORCA SCF
-------------------------------------------------------------------------------

------------
SCF SETTINGS
------------
Hamiltonian:
 Density Functional     Method          .... DFT(GTOs)
 Exchange Functional    Exchange        .... B88
   X-Alpha parameter    XAlpha          ....  0.666667
   Becke's b parameter  XBeta           ....  0.004200
 Correlation Functional Correlation     .... LYP
 LDA part of GGA corr.  LDAOpt          .... VWN-5
 Gradients option       PostSCFGGA      .... off
 Hybrid DFT is turned on
   Fraction HF Exchange ScalHFX         ....  0.200000
   Scaling of DF-GGA-X  ScalDFX         ....  0.720000
   Scaling of DF-GGA-C  ScalDFC         ....  0.810000
   Scaling of DF-LDA-C  ScalLDAC        ....  1.000000
   Perturbative correction              ....  0.000000
   Density functional embedding theory  .... OFF
   NL short-range parameter             ....  4.800000
 RI-approximation to the Coulomb term is turned on
   Number of AuxJ basis functions       .... 235
   RIJ-COSX (HFX calculated with COS-X)).... on


General Settings:
 Integral files         IntName         .... TZVP_B3LYP_C1_wt_dlpno_pos
 Hartree-Fock type      HFTyp           .... RHF
 Total Charge           Charge          ....    0
 Multiplicity           Mult            ....    1
 Number of Electrons    NEL             ....   26
 Basis Dimension        Dim             ....  141
 Nuclear Repulsion      ENuc            ....     84.7343257780 Eh

Convergence Acceleration:
 DIIS                   CNVDIIS         .... on
   Start iteration      DIISMaxIt       ....    12
   Startup error        DIISStart       ....  0.200000
   # of expansion vecs  DIISMaxEq       ....     5
   Bias factor          DIISBfac        ....   1.050
   Max. coefficient     DIISMaxC        ....  10.000
 Trust-Rad. Augm. Hess. CNVTRAH         .... auto
   Auto Start mean grad. ratio tolernc. ....  1.125000
   Auto Start start iteration           ....    20
   Auto Start num. interpolation iter.  ....    10
   Max. Number of Micro iterations      ....    16
   Max. Number of Macro iterations      .... Maxiter - #DIIS iter
   Number of Davidson start vectors     ....     2
   Converg. threshold I  (grad. norm)   ....   1.000e-05
   Converg. threshold II (energy diff.) ....   1.000e-08
   Grad. Scal. Fac. for Micro threshold ....   0.100
   Minimum threshold for Micro iter.    ....   0.010
   NR start threshold (gradient norm)   ....   0.001
   Initial trust radius                 ....   0.400
   Minimum AH scaling param. (alpha)    ....   1.000
   Maximum AH scaling param. (alpha)    .... 1000.000
   Orbital update algorithm             .... Taylor
   White noise on init. David. guess    .... on
   Maximum white noise                  ....   0.010
   Quad. conv. algorithm                .... NR
 SOSCF                  CNVSOSCF        .... on
   Start iteration      SOSCFMaxIt      ....   150
   Startup grad/error   SOSCFStart      ....  0.003300
 Level Shifting         CNVShift        .... on
   Level shift para.    LevelShift      ....    0.2500
   Turn off err/grad.   ShiftErr        ....    0.0010
 Zerner damping         CNVZerner       .... off
 Static damping         CNVDamp         .... on
   Fraction old density DampFac         ....    0.7000
   Max. Damping (<1)    DampMax         ....    0.9800
   Min. Damping (>=0)   DampMin         ....    0.0000
   Turn off err/grad.   DampErr         ....    0.1000
 Fernandez-Rico         CNVRico         .... off

SCF Procedure:
 Maximum # iterations   MaxIter         ....   150
 SCF integral mode      SCFMode         .... Direct
   Integral package                     .... SHARK and LIBINT hybrid scheme
 Reset frequency        DirectResetFreq ....    20
 Integral Threshold     Thresh          ....  2.500e-11 Eh
 Primitive CutOff       TCut            ....  2.500e-12 Eh

Convergence Tolerance:
 Convergence Check Mode ConvCheckMode   .... Total+1el-Energy
 Convergence forced     ConvForced      .... 0
 Energy Change          TolE            ....  1.000e-08 Eh
 1-El. energy change                    ....  1.000e-05 Eh
 Orbital Gradient       TolG            ....  1.000e-05
 Orbital Rotation angle TolX            ....  1.000e-05
 DIIS Error             TolErr          ....  5.000e-07


Diagonalization of the overlap matrix:
Smallest eigenvalue                        ... 3.098e-04
Time for diagonalization                   ...    0.005 sec
Threshold for overlap eigenvalues          ... 1.000e-08
Number of eigenvalues below threshold      ... 0
Time for construction of square roots      ...    0.004 sec
Total time needed                          ...    0.010 sec

Time for model grid setup =    0.048 sec

------------------------------
INITIAL GUESS: MODEL POTENTIAL
------------------------------
Loading Hartree-Fock densities                     ... done
Calculating cut-offs                               ... done
Initializing the effective Hamiltonian             ... done
Setting up the integral package (SHARK)            ... done
Starting the Coulomb interaction                   ... done (   0.0 sec)
Reading the grid                                   ... done
Mapping shells                                     ... done
Starting the XC term evaluation                    ... done (   0.0 sec)
  promolecular density results
     # of electrons  =     25.998760797
     EX              =    -17.849079414
     EC              =     -0.807177366
     EX+EC           =    -18.656256779
Transforming the Hamiltonian                       ... done (   0.0 sec)
Diagonalizing the Hamiltonian                      ... done (   0.0 sec)
Back transforming the eigenvectors                 ... done (   0.0 sec)
Now organizing SCF variables                       ... done
                      ------------------
                      INITIAL GUESS DONE (   0.1 sec)
                      ------------------
-------------------
DFT GRID GENERATION
-------------------

General Integration Accuracy     IntAcc      ... 4.388
Radial Grid Type                 RadialGrid  ... OptM3 with GC (2021)
Angular Grid (max. ang.)         AngularGrid ... 4 (Lebedev-302)
Angular grid pruning method      GridPruning ... 4 (adaptive)
Weight generation scheme         WeightScheme... Becke
Basis function cutoff            BFCut       ... 1.0000e-11
Integration weight cutoff        WCut        ... 1.0000e-14
Angular grids for H and He will be reduced by one unit
Partially contracted basis set               ... off
Rotationally invariant grid construction     ... off

Total number of grid points                  ...    43951
Total number of batches                      ...      690
Average number of points per batch           ...       63
Average number of grid points per atom       ...     3996
Time for grid setup =    0.302 sec

--------------------
COSX GRID GENERATION
--------------------

GRIDX 1
-------
General Integration Accuracy     IntAcc      ... 3.816
Radial Grid Type                 RadialGrid  ... OptM3 with GC (2021)
Angular Grid (max. ang.)         AngularGrid ... 1 (Lebedev-50)
Angular grid pruning method      GridPruning ... 4 (adaptive)
Weight generation scheme         WeightScheme... Becke
Basis function cutoff            BFCut       ... 1.0000e-11
Integration weight cutoff        WCut        ... 1.0000e-14
Angular grids for H and He will be reduced by one unit
Partially contracted basis set               ... on
Rotationally invariant grid construction     ... off

Total number of grid points                  ...     5678
Total number of batches                      ...       96
Average number of points per batch           ...       59
Average number of grid points per atom       ...      516
UseSFitting                                  ... on

GRIDX 2
-------
General Integration Accuracy     IntAcc      ... 4.020
Radial Grid Type                 RadialGrid  ... OptM3 with GC (2021)
Angular Grid (max. ang.)         AngularGrid ... 2 (Lebedev-110)
Angular grid pruning method      GridPruning ... 4 (adaptive)
Weight generation scheme         WeightScheme... Becke
Basis function cutoff            BFCut       ... 1.0000e-11
Integration weight cutoff        WCut        ... 1.0000e-14
Angular grids for H and He will be reduced by one unit
Partially contracted basis set               ... on
Rotationally invariant grid construction     ... off

Total number of grid points                  ...    11638
Total number of batches                      ...      188
Average number of points per batch           ...       61
Average number of grid points per atom       ...     1058
UseSFitting                                  ... on

GRIDX 3
-------
General Integration Accuracy     IntAcc      ... 4.338
Radial Grid Type                 RadialGrid  ... OptM3 with GC (2021)
Angular Grid (max. ang.)         AngularGrid ... 3 (Lebedev-194)
Angular grid pruning method      GridPruning ... 4 (adaptive)
Weight generation scheme         WeightScheme... Becke
Basis function cutoff            BFCut       ... 1.0000e-11
Integration weight cutoff        WCut        ... 1.0000e-14
Angular grids for H and He will be reduced by one unit
Partially contracted basis set               ... on
Rotationally invariant grid construction     ... off

Total number of grid points                  ...    25521
Total number of batches                      ...      404
Average number of points per batch           ...       63
Average number of grid points per atom       ...     2320
UseSFitting                                  ... on

Time for X-Grid setup             =    0.231 sec

--------------
SCF ITERATIONS
--------------
ITER       Energy         Delta-E        Max-DP      RMS-DP      [F,P]     Damp
               ***  Starting incremental Fock matrix formation  ***
  0   -118.8934478287   0.000000000000 0.04557717  0.00150118  0.2249688 0.7000
  1   -118.9824230369  -0.088975208267 0.02722601  0.00110462  0.1174294 0.7000
                               ***Turning on DIIS***
  2   -119.0182197294  -0.035796692440 0.04192657  0.00185175  0.0443266 0.0000
  3   -119.0674403685  -0.049220639166 0.01707045  0.00074195  0.0650869 0.0000
  4   -119.0827289899  -0.015288621331 0.00439090  0.00024322  0.0149072 0.0000
                      *** Initiating the SOSCF procedure ***
                           *** Shutting down DIIS ***
                      *** Re-Reading the Fockian *** 
                      *** Removing any level shift *** 
ITER      Energy       Delta-E        Grad      Rot      Max-DP    RMS-DP
  5   -119.08354657  -0.0008175808  0.000880  0.000880  0.002670  0.000105
               *** Restarting incremental Fock matrix formation ***
  6   -119.08360564  -0.0000590724  0.000305  0.000810  0.002081  0.000076
  7   -119.08360673  -0.0000010842  0.000298  0.000195  0.000439  0.000014
  8   -119.08361003  -0.0000033033  0.000022  0.000039  0.000085  0.000003
  9   -119.08361005  -0.0000000194  0.000011  0.000010  0.000013  0.000001
                  ***Gradient check signals convergence***
              ***Rediagonalizing the Fockian in SOSCF/NRSCF***

               *****************************************************
               *                     SUCCESS                       *
               *           SCF CONVERGED AFTER  10 CYCLES          *
               *****************************************************

Old exchange energy                            =     -3.705570405 Eh
New exchange energy                            =     -3.705587337 Eh
Exchange energy change after final integration =     -0.000016932 Eh
Total energy after final integration           =   -119.083626986 Eh
Final COS-X integration done in                =     1.050 sec

----------------
TOTAL SCF ENERGY
----------------

Total Energy       :         -119.08362699 Eh           -3240.43023 eV

Components:
Nuclear Repulsion  :           84.73432578 Eh            2305.73823 eV
Electronic Energy  :         -203.81795276 Eh           -5546.16846 eV
One Electron Energy:         -326.02943002 Eh           -8871.71182 eV
Two Electron Energy:          122.21147726 Eh            3325.54336 eV
Max COSX asymmetry :            0.00000094 Eh               0.00003 eV

Virial components:
Potential Energy   :         -238.03016648 Eh           -6477.13012 eV
Kinetic Energy     :          118.94653949 Eh            3236.69989 eV
Virial Ratio       :            2.00115251


DFT components:
N(Alpha)           :       13.000039450108 electrons
N(Beta)            :       13.000039450108 electrons
N(Total)           :       26.000078900217 electrons
E(X)               :      -14.664588359464 Eh       
E(C)               :       -0.965470249499 Eh       
E(XC)              :      -15.630058608963 Eh       
DFET-embed. en.    :        0.000000000000 Eh       

---------------
SCF CONVERGENCE
---------------

  Last Energy change         ...   -3.7959e-09  Tolerance :   1.0000e-08
  Last MAX-Density change    ...    5.5511e-16  Tolerance :   1.0000e-07
  Last RMS-Density change    ...    1.4902e-17  Tolerance :   5.0000e-09
  Last Orbital Gradient      ...    2.3282e-06  Tolerance :   1.0000e-05
  Last Orbital Rotation      ...    4.7208e-06  Tolerance :   1.0000e-05

             **** THE GBW FILE WAS UPDATED (TZVP_B3LYP_C1_wt_dlpno_pos.gbw) ****
             **** DENSITY TZVP_B3LYP_C1_wt_dlpno_pos.scfp WAS UPDATED ****
             **** ENERGY FILE WAS UPDATED (TZVP_B3LYP_C1_wt_dlpno_pos.en.tmp) ****
             **** THE GBW FILE WAS UPDATED (TZVP_B3LYP_C1_wt_dlpno_pos.gbw) ****
             **** DENSITY TZVP_B3LYP_C1_wt_dlpno_pos.scfp WAS UPDATED ****
----------------
ORBITAL ENERGIES
----------------

  NO   OCC          E(Eh)            E(eV) 
   0   2.0000     -10.153288      -276.2850 
   1   2.0000     -10.145295      -276.0675 
   2   2.0000     -10.126348      -275.5519 
   3   2.0000      -0.791640       -21.5416 
   4   2.0000      -0.687920       -18.7193 
   5   2.0000      -0.584822       -15.9138 
   6   2.0000      -0.467559       -12.7229 
   7   2.0000      -0.449148       -12.2219 
   8   2.0000      -0.402178       -10.9438 
   9   2.0000      -0.386893       -10.5279 
  10   2.0000      -0.338128        -9.2009 
  11   2.0000      -0.334529        -9.1030 
  12   2.0000      -0.327998        -8.9253 
  13   0.0000       0.041404         1.1267 
  14   0.0000       0.083508         2.2724 
  15   0.0000       0.089476         2.4348 
  16   0.0000       0.094548         2.5728 
  17   0.0000       0.113131         3.0785 
  18   0.0000       0.125348         3.4109 
  19   0.0000       0.145871         3.9693 
  20   0.0000       0.150092         4.0842 
  21   0.0000       0.175264         4.7692 
  22   0.0000       0.205609         5.5949 
  23   0.0000       0.213307         5.8044 
  24   0.0000       0.217632         5.9221 
  25   0.0000       0.231614         6.3025 
  26   0.0000       0.262725         7.1491 
  27   0.0000       0.276995         7.5374 
  28   0.0000       0.314495         8.5578 
  29   0.0000       0.338306         9.2058 
  30   0.0000       0.391526        10.6540 
  31   0.0000       0.412764        11.2319 
  32   0.0000       0.431580        11.7439 
  33   0.0000       0.438218        11.9245 
  34   0.0000       0.448340        12.1999 
  35   0.0000       0.457247        12.4423 
  36   0.0000       0.485662        13.2155 
  37   0.0000       0.497956        13.5501 
  38   0.0000       0.520244        14.1566 
  39   0.0000       0.523270        14.2389 
  40   0.0000       0.582642        15.8545 
  41   0.0000       0.604546        16.4505 
  42   0.0000       0.618227        16.8228 
  43   0.0000       0.678459        18.4618 
  44   0.0000       0.696307        18.9475 
  45   0.0000       0.830813        22.6076 
  46   0.0000       0.851146        23.1609 
  47   0.0000       0.855027        23.2665 
  48   0.0000       0.925860        25.1939 
  49   0.0000       0.965165        26.2635 
  50   0.0000       0.986417        26.8418 
  51   0.0000       1.021205        27.7884 
  52   0.0000       1.081499        29.4291 
  53   0.0000       1.088231        29.6123 
  54   0.0000       1.095617        29.8133 
  55   0.0000       1.109123        30.1808 
  56   0.0000       1.167662        31.7737 
  57   0.0000       1.202211        32.7138 
  58   0.0000       1.448088        39.4045 
  59   0.0000       1.503621        40.9156 
  60   0.0000       1.523730        41.4628 
  61   0.0000       1.527557        41.5669 
  62   0.0000       1.539675        41.8967 
  63   0.0000       1.548750        42.1436 
  64   0.0000       1.560483        42.4629 
  65   0.0000       1.583580        43.0914 
  66   0.0000       1.609198        43.7885 
  67   0.0000       1.645598        44.7790 
  68   0.0000       1.700631        46.2765 
  69   0.0000       1.706582        46.4385 
  70   0.0000       1.799225        48.9594 
  71   0.0000       1.817095        49.4457 
  72   0.0000       1.867181        50.8086 
  73   0.0000       1.892271        51.4913 
  74   0.0000       1.897160        51.6243 
  75   0.0000       1.928200        52.4690 
  76   0.0000       1.982979        53.9596 
  77   0.0000       2.086407        56.7740 
  78   0.0000       2.113221        57.5037 
  79   0.0000       2.147164        58.4273 
  80   0.0000       2.293343        62.4050 
  81   0.0000       2.298633        62.5490 
  82   0.0000       2.331142        63.4336 
  83   0.0000       2.348800        63.9141 
  84   0.0000       2.373034        64.5735 
  85   0.0000       2.388509        64.9946 
  86   0.0000       2.405566        65.4588 
  87   0.0000       2.458824        66.9080 
  88   0.0000       2.493856        67.8613 
  89   0.0000       2.555615        69.5418 
  90   0.0000       2.593735        70.5791 
  91   0.0000       2.621972        71.3475 
  92   0.0000       2.627667        71.5025 
  93   0.0000       2.665388        72.5289 
  94   0.0000       2.680032        72.9274 
  95   0.0000       2.704367        73.5896 
  96   0.0000       2.720348        74.0244 
  97   0.0000       2.753868        74.9366 
  98   0.0000       2.811547        76.5061 
  99   0.0000       2.827778        76.9478 
 100   0.0000       2.906019        79.0768 
 101   0.0000       2.962348        80.6096 
 102   0.0000       3.015211        82.0481 
 103   0.0000       3.043776        82.8253 
 104   0.0000       3.097157        84.2779 
 105   0.0000       3.109149        84.6042 
 106   0.0000       3.160195        85.9933 
 107   0.0000       3.196021        86.9682 
 108   0.0000       3.208717        87.3136 
 109   0.0000       3.236917        88.0810 
 110   0.0000       3.293629        89.6242 
 111   0.0000       3.327103        90.5351 
 112   0.0000       3.369361        91.6850 
 113   0.0000       3.422784        93.1387 
 114   0.0000       3.440001        93.6072 
 115   0.0000       3.525186        95.9252 
 116   0.0000       3.541293        96.3635 
 117   0.0000       3.580243        97.4234 
 118   0.0000       3.622853        98.5828 
 119   0.0000       3.643649        99.1487 
 120   0.0000       3.682655       100.2101 
 121   0.0000       3.848047       104.7107 
 122   0.0000       3.872433       105.3743 
 123   0.0000       3.881408       105.6185 
 124   0.0000       3.984863       108.4336 
 125   0.0000       4.036459       109.8376 
 126   0.0000       4.060522       110.4924 
 127   0.0000       4.110136       111.8425 
 128   0.0000       4.339612       118.0869 
 129   0.0000       4.385378       119.3322 
 130   0.0000       4.420417       120.2857 
 131   0.0000       4.485529       122.0574 
 132   0.0000       4.519768       122.9891 
 133   0.0000       4.627796       125.9287 
 134   0.0000       4.696557       127.7998 
 135   0.0000       4.721422       128.4764 
 136   0.0000       4.753768       129.3566 
 137   0.0000       4.852779       132.0508 
 138   0.0000      22.366819       608.6321 
 139   0.0000      22.445941       610.7851 
 140   0.0000      22.640400       616.0766 

                    ********************************
                    * MULLIKEN POPULATION ANALYSIS *
                    ********************************

-----------------------
MULLIKEN ATOMIC CHARGES
-----------------------
   0 C :   -0.130609
   1 C :   -0.296922
   2 C :   -0.310951
   3 H :    0.102490
   4 H :    0.088223
   5 H :    0.098626
   6 H :    0.075710
   7 H :    0.076600
   8 H :    0.102777
   9 H :    0.095830
  10 H :    0.098226
Sum of atomic charges:    0.0000000

--------------------------------
MULLIKEN REDUCED ORBITAL CHARGES
--------------------------------
  0 C s       :     3.208044  s :     3.208044
      pz      :     0.921390  p :     2.819731
      px      :     0.978302
      py      :     0.920038
      dz2     :     0.017812  d :     0.096434
      dxz     :     0.015428
      dyz     :     0.031632
      dx2y2   :     0.021250
      dxy     :     0.010311
      f0      :     0.001336  f :     0.006401
      f+1     :     0.001078
      f-1     :     0.001217
      f+2     :     0.000637
      f-2     :     0.000402
      f+3     :     0.001017
      f-3     :     0.000714
  1 C s       :     3.247671  s :     3.247671
      pz      :     0.930356  p :     2.996838
      px      :     1.026506
      py      :     1.039977
      dz2     :     0.010080  d :     0.048553
      dxz     :     0.013338
      dyz     :     0.015886
      dx2y2   :     0.007875
      dxy     :     0.001374
      f0      :     0.000995  f :     0.003859
      f+1     :     0.000878
      f-1     :     0.000899
      f+2     :     0.000237
      f-2     :     0.000093
      f+3     :     0.000170
      f-3     :     0.000588
  2 C s       :     3.264768  s :     3.264768
      pz      :     1.034714  p :     2.995323
      px      :     1.013956
      py      :     0.946653
      dz2     :     0.008012  d :     0.047155
      dxz     :     0.001207
      dyz     :     0.014995
      dx2y2   :     0.013857
      dxy     :     0.009085
      f0      :     0.000655  f :     0.003704
      f+1     :     0.000357
      f-1     :     0.000619
      f+2     :     0.000315
      f-2     :     0.000192
      f+3     :     0.000953
      f-3     :     0.000613
  3 H s       :     0.874266  s :     0.874266
      pz      :     0.005907  p :     0.023245
      px      :     0.005352
      py      :     0.011985
  4 H s       :     0.888314  s :     0.888314
      pz      :     0.005949  p :     0.023463
      px      :     0.011667
      py      :     0.005847
  5 H s       :     0.878157  s :     0.878157
      pz      :     0.008636  p :     0.023217
      px      :     0.007495
      py      :     0.007086
  6 H s       :     0.902925  s :     0.902925
      pz      :     0.007322  p :     0.021365
      px      :     0.005413
      py      :     0.008630
  7 H s       :     0.902024  s :     0.902024
      pz      :     0.004556  p :     0.021376
      px      :     0.012519
      py      :     0.004301
  8 H s       :     0.875158  s :     0.875158
      pz      :     0.011725  p :     0.022065
      px      :     0.005041
      py      :     0.005299
  9 H s       :     0.882282  s :     0.882282
      pz      :     0.007277  p :     0.021888
      px      :     0.005741
      py      :     0.008870
 10 H s       :     0.879904  s :     0.879904
      pz      :     0.004648  p :     0.021871
      px      :     0.012454
      py      :     0.004769


                     *******************************
                     * LOEWDIN POPULATION ANALYSIS *
                     *******************************

----------------------
LOEWDIN ATOMIC CHARGES
----------------------
   0 C :   -0.316304
   1 C :   -0.298399
   2 C :   -0.300843
   3 H :    0.104169
   4 H :    0.111110
   5 H :    0.106361
   6 H :    0.128824
   7 H :    0.126237
   8 H :    0.112495
   9 H :    0.113564
  10 H :    0.112787

-------------------------------
LOEWDIN REDUCED ORBITAL CHARGES
-------------------------------
  0 C s       :     2.774888  s :     2.774888
      pz      :     1.034561  p :     3.073134
      px      :     1.019891
      py      :     1.018681
      dz2     :     0.088939  d :     0.424540
      dxz     :     0.064493
      dyz     :     0.121398
      dx2y2   :     0.095656
      dxy     :     0.054054
      f0      :     0.007612  f :     0.043743
      f+1     :     0.007908
      f-1     :     0.007485
      f+2     :     0.004367
      f-2     :     0.006575
      f+3     :     0.005748
      f-3     :     0.004048
  1 C s       :     2.787167  s :     2.787167
      pz      :     1.055925  p :     3.194748
      px      :     1.072105
      py      :     1.066718
      dz2     :     0.072021  d :     0.285825
      dxz     :     0.065283
      dyz     :     0.075363
      dx2y2   :     0.055651
      dxy     :     0.017506
      f0      :     0.006046  f :     0.030660
      f+1     :     0.006262
      f-1     :     0.006706
      f+2     :     0.002042
      f-2     :     0.005096
      f+3     :     0.001118
      f-3     :     0.003391
  2 C s       :     2.821495  s :     2.821495
      pz      :     1.064654  p :     3.186617
      px      :     1.067209
      py      :     1.054755
      dz2     :     0.055536  d :     0.265993
      dxz     :     0.014136
      dyz     :     0.072000
      dx2y2   :     0.076843
      dxy     :     0.047477
      f0      :     0.003212  f :     0.026738
      f+1     :     0.002968
      f-1     :     0.003366
      f+2     :     0.002851
      f-2     :     0.004822
      f+3     :     0.005560
      f-3     :     0.003959
  3 H s       :     0.824519  s :     0.824519
      pz      :     0.017872  p :     0.071312
      px      :     0.017816
      py      :     0.035623
  4 H s       :     0.817989  s :     0.817989
      pz      :     0.017764  p :     0.070901
      px      :     0.034315
      py      :     0.018822
  5 H s       :     0.822756  s :     0.822756
      pz      :     0.024676  p :     0.070883
      px      :     0.023483
      py      :     0.022724
  6 H s       :     0.813157  s :     0.813157
      pz      :     0.019408  p :     0.058019
      px      :     0.016547
      py      :     0.022064
  7 H s       :     0.815607  s :     0.815607
      pz      :     0.013462  p :     0.058156
      px      :     0.031961
      py      :     0.012733
  8 H s       :     0.823871  s :     0.823871
      pz      :     0.032843  p :     0.063633
      px      :     0.015728
      py      :     0.015063
  9 H s       :     0.822571  s :     0.822571
      pz      :     0.022321  p :     0.063866
      px      :     0.017821
      py      :     0.023723
 10 H s       :     0.823431  s :     0.823431
      pz      :     0.014512  p :     0.063781
      px      :     0.034953
      py      :     0.014316


                      *****************************
                      * MAYER POPULATION ANALYSIS *
                      *****************************

  NA   - Mulliken gross atomic population
  ZA   - Total nuclear charge
  QA   - Mulliken gross atomic charge
  VA   - Mayer's total valence
  BVA  - Mayer's bonded valence
  FA   - Mayer's free valence

  ATOM       NA         ZA         QA         VA         BVA        FA
  0 C      6.1306     6.0000    -0.1306     3.8316     3.8316     0.0000
  1 C      6.2969     6.0000    -0.2969     3.8718     3.8718     0.0000
  2 C      6.3110     6.0000    -0.3110     3.8883     3.8883     0.0000
  3 H      0.8975     1.0000     0.1025     0.9718     0.9718     0.0000
  4 H      0.9118     1.0000     0.0882     0.9740     0.9740    -0.0000
  5 H      0.9014     1.0000     0.0986     0.9704     0.9704    -0.0000
  6 H      0.9243     1.0000     0.0757     0.9626     0.9626     0.0000
  7 H      0.9234     1.0000     0.0766     0.9637     0.9637     0.0000
  8 H      0.8972     1.0000     0.1028     0.9709     0.9709     0.0000
  9 H      0.9042     1.0000     0.0958     0.9710     0.9710    -0.0000
 10 H      0.9018     1.0000     0.0982     0.9730     0.9730     0.0000

  Mayer bond orders larger than 0.100000
B(  0-C ,  1-C ) :   0.9572 B(  0-C ,  2-C ) :   0.9709 B(  0-C ,  6-H ) :   0.9721 
B(  0-C ,  7-H ) :   0.9723 B(  1-C ,  3-H ) :   0.9823 B(  1-C ,  4-H ) :   0.9802 
B(  1-C ,  5-H ) :   0.9821 B(  2-C ,  8-H ) :   0.9799 B(  2-C ,  9-H ) :   0.9769 
B(  2-C , 10-H ) :   0.9769 

-------
TIMINGS
-------

Total SCF time: 0 days 0 hours 0 min 8 sec 

Total time                  ....       8.599 sec
Sum of individual times     ....       8.455 sec  ( 98.3%)

Fock matrix formation       ....       7.711 sec  ( 89.7%)
  Split-RI-J                ....       0.655 sec  (  8.5% of F)
  Chain of spheres X        ....       5.374 sec  ( 69.7% of F)
  XC integration            ....       1.657 sec  ( 21.5% of F)
    Basis function eval.    ....       0.565 sec  ( 34.1% of XC)
    Density eval.           ....       0.354 sec  ( 21.4% of XC)
    XC-Functional eval.     ....       0.122 sec  (  7.4% of XC)
    XC-Potential eval.      ....       0.496 sec  ( 29.9% of XC)
Diagonalization             ....       0.034 sec  (  0.4%)
Density matrix formation    ....       0.003 sec  (  0.0%)
Population analysis         ....       0.006 sec  (  0.1%)
Initial guess               ....       0.081 sec  (  0.9%)
Orbital Transformation      ....       0.000 sec  (  0.0%)
Orbital Orthonormalization  ....       0.000 sec  (  0.0%)
DIIS solution               ....       0.021 sec  (  0.2%)
SOSCF solution              ....       0.018 sec  (  0.2%)
Grid generation             ....       0.581 sec  (  6.8%)

Maximum memory used throughout the entire SCF-calculation: 63.7 MB


-------------------------------------------------------------------------------
                          DFT DISPERSION CORRECTION                            
                                                                               
                              DFTD3 V3.1  Rev 1                                
                          USING Becke-Johnson damping                          
-------------------------------------------------------------------------------
The B3LYP functional is recognized
Active option DFTDOPT                   ...         4   

molecular C6(AA) [au] = 720.418104 


            DFT-D V3
 parameters
 s6 scaling factor         :     1.0000 
 a1 scaling factor         :     0.3981 
 s8 scaling factor         :     1.9889 
 a2 scaling factor         :     4.4211 
 ad hoc parameters k1-k3   :    16.0000     1.3333    -4.0000 

 Edisp/kcal,au: -6.382216829146  -0.010170708829 
 E6   /kcal   :  -3.232075219 
 E8   /kcal   :  -3.150141610 
 % E8         :  49.358110109 

-------------------------   ----------------
Dispersion correction           -0.010170709
-------------------------   ----------------


-------------------------   --------------------
FINAL SINGLE POINT ENERGY      -119.093797694417
-------------------------   --------------------


                            ***************************************
                            *     ORCA property calculations      *
                            ***************************************

                                    ---------------------
                                    Active property flags
                                    ---------------------
   (+) Dipole Moment


------------------------------------------------------------------------------
                       ORCA ELECTRIC PROPERTIES CALCULATION
------------------------------------------------------------------------------

Dipole Moment Calculation                       ... on
Quadrupole Moment Calculation                   ... off
Polarizability Calculation                      ... off
GBWName                                         ... TZVP_B3LYP_C1_wt_dlpno_pos.gbw
Electron density file                           ... TZVP_B3LYP_C1_wt_dlpno_pos.scfp
The origin for moment calculation is the CENTER OF MASS  = ( 0.655588,  2.575865 -6.228770)

-------------
DIPOLE MOMENT
-------------
                                X             Y             Z
Electronic contribution:      0.26089      -0.28281      -0.24453
Nuclear contribution   :     -0.24754       0.26111       0.24628
                        -----------------------------------------
Total Dipole Moment    :      0.01335      -0.02170       0.00174
                        -----------------------------------------
Magnitude (a.u.)       :      0.02554
Magnitude (Debye)      :      0.06492



--------------------
Rotational spectrum 
--------------------
 
Rotational constants in cm-1:     1.006509     0.299509     0.263145 
Rotational constants in MHz : 30174.379724  8979.049324  7888.875355 

 Dipole components along the rotational axes: 
x,y,z [a.u.] :     0.017163    -0.018641    -0.003193 
x,y,z [Debye]:     0.043626    -0.047382    -0.008116 

 

Timings for individual modules:

Sum of individual times         ...       12.600 sec (=   0.210 min)
GTO integral calculation        ...        2.404 sec (=   0.040 min)  19.1 %
SCF iterations                  ...       10.195 sec (=   0.170 min)  80.9 %
                             ****ORCA TERMINATED NORMALLY****
TOTAL RUN TIME: 0 days 0 hours 0 minutes 13 seconds 125 msec
