
                                        *****************
                                        * O   R   C   A *
                                        *****************

                                            #,                                       
                                            ###                                      
                                            ####                                     
                                            #####                                    
                                            ######                                   
                                           ########,                                 
                                     ,,################,,,,,                         
                               ,,#################################,,                 
                          ,,##########################################,,             
                       ,#########################################, ''#####,          
                    ,#############################################,,   '####,        
                  ,##################################################,,,,####,       
                ,###########''''           ''''###############################       
              ,#####''   ,,,,##########,,,,          '''####'''          '####       
            ,##' ,,,,###########################,,,                        '##       
           ' ,,###''''                  '''############,,,                           
         ,,##''                                '''############,,,,        ,,,,,,###''
      ,#''                                            '''#######################'''  
     '                                                          ''''####''''         
             ,#######,   #######,   ,#######,      ##                                
            ,#'     '#,  ##    ##  ,#'     '#,    #''#        ######   ,####,        
            ##       ##  ##   ,#'  ##            #'  '#       #        #'  '#        
            ##       ##  #######   ##           ,######,      #####,   #    #        
            '#,     ,#'  ##    ##  '#,     ,#' ,#      #,         ##   #,  ,#        
             '#######'   ##     ##  '#######'  #'      '#     #####' # '####'        



                  #######################################################
                  #                        -***-                        #
                  #          Department of theory and spectroscopy      #
                  #    Directorship and core code : Frank Neese         #
                  #        Max Planck Institute fuer Kohlenforschung    #
                  #                Kaiser Wilhelm Platz 1               #
                  #                 D-45470 Muelheim/Ruhr               #
                  #                      Germany                        #
                  #                                                     #
                  #                  All rights reserved                #
                  #                        -***-                        #
                  #######################################################


                         Program Version 5.0.0 -  RELEASE  -
                                (SVN: $Rev: 19529$)
                ($Date: 2021-06-28 11:36:33 +0200 (Mo, 28 Jun 2021) $)


 With contributions from (in alphabetic order):
   Daniel Aravena         : Magnetic Suceptibility
   Michael Atanasov       : Ab Initio Ligand Field Theory (pilot matlab implementation)
   Alexander A. Auer      : GIAO ZORA, VPT2 properties, NMR spectrum
   Ute Becker             : Parallelization
   Giovanni Bistoni       : ED, misc. LED, open-shell LED, HFLD
   Martin Brehm           : Molecular dynamics
   Dmytro Bykov           : SCF Hessian
   Vijay G. Chilkuri      : MRCI spin determinant printing, contributions to CSF-ICE
   Dipayan Datta          : RHF DLPNO-CCSD density
   Achintya Kumar Dutta   : EOM-CC, STEOM-CC
   Dmitry Ganyushin       : Spin-Orbit,Spin-Spin,Magnetic field MRCI
   Miquel Garcia          : C-PCM Hessian, Gaussian charge scheme
   Yang Guo               : DLPNO-NEVPT2, F12-NEVPT2, CIM, IAO-localization
   Andreas Hansen         : Spin unrestricted coupled pair/coupled cluster methods
   Benjamin Helmich-Paris : MC-RPA, TRAH-SCF, COSX integrals
   Lee Huntington         : MR-EOM, pCC
   Robert Izsak           : Overlap fitted RIJCOSX, COSX-SCS-MP3, EOM
   Marcus Kettner         : VPT2
   Christian Kollmar      : KDIIS, OOCD, Brueckner-CCSD(T), CCSD density, CASPT2, CASPT2-K
   Simone Kossmann        : Meta GGA functionals, TD-DFT gradient, OOMP2, MP2 Hessian
   Martin Krupicka        : Initial AUTO-CI
   Lucas Lang             : DCDCAS
   Marvin Lechner         : AUTO-CI (C++ implementation), FIC-MRCC
   Dagmar Lenk            : GEPOL surface, SMD
   Dimitrios Liakos       : Extrapolation schemes; Compound Job, initial MDCI parallelization
   Dimitrios Manganas     : Further ROCIS development; embedding schemes
   Dimitrios Pantazis     : SARC Basis sets
   Anastasios Papadopoulos: AUTO-CI, single reference methods and gradients
   Taras Petrenko         : DFT Hessian,TD-DFT gradient, ASA, ECA, R-Raman, ABS, FL, XAS/XES, NRVS
   Peter Pinski           : DLPNO-MP2, DLPNO-MP2 Gradient
   Christoph Reimann      : Effective Core Potentials
   Marius Retegan         : Local ZFS, SOC
   Christoph Riplinger    : Optimizer, TS searches, QM/MM, DLPNO-CCSD(T), (RO)-DLPNO pert. Triples
   Tobias Risthaus        : Range-separated hybrids, TD-DFT gradient, RPA, STAB
   Michael Roemelt        : Original ROCIS implementation
   Masaaki Saitow         : Open-shell DLPNO-CCSD energy and density
   Barbara Sandhoefer     : DKH picture change effects
   Avijit Sen             : IP-ROCIS
   Kantharuban Sivalingam : CASSCF convergence, NEVPT2, FIC-MRCI
   Bernardo de Souza      : ESD, SOC TD-DFT
   Georgi Stoychev        : AutoAux, RI-MP2 NMR
   Willem Van den Heuvel  : Paramagnetic NMR
   Boris Wezisla          : Elementary symmetry handling
   Frank Wennmohs         : Technical directorship


 We gratefully acknowledge several colleagues who have allowed us to
 interface, adapt or use parts of their codes:
   Stefan Grimme, W. Hujo, H. Kruse, P. Pracht,  : VdW corrections, initial TS optimization,
                  C. Bannwarth, S. Ehlert          DFT functionals, gCP, sTDA/sTD-DF
   Ed Valeev, F. Pavosevic, A. Kumar             : LibInt (2-el integral package), F12 methods
   Garnet Chan, S. Sharma, J. Yang, R. Olivares  : DMRG
   Ulf Ekstrom                                   : XCFun DFT Library
   Mihaly Kallay                                 : mrcc  (arbitrary order and MRCC methods)
   Jiri Pittner, Ondrej Demel                    : Mk-CCSD
   Frank Weinhold                                : gennbo (NPA and NBO analysis)
   Christopher J. Cramer and Donald G. Truhlar   : smd solvation model
   Lars Goerigk                                  : TD-DFT with DH, B97 family of functionals
   V. Asgeirsson, H. Jonsson                     : NEB implementation
   FAccTs GmbH                                   : IRC, NEB, NEB-TS, DLPNO-Multilevel, CI-OPT
                                                   MM, QMMM, 2- and 3-layer-ONIOM, Crystal-QMMM,
                                                   LR-CPCM, SF, NACMEs, symmetry and pop. for TD-DFT,
                                                   nearIR, NL-DFT gradient (VV10), updates on ESD,
                                                   ML-optimized integration grids
   S Lehtola, MJT Oliveira, MAL Marques          : LibXC Library
   Liviu Ungur et al                             : ANISO software


 Your calculation uses the libint2 library for the computation of 2-el integrals
 For citations please refer to: http://libint.valeyev.net

 Your ORCA version has been built with support for libXC version: 5.1.0
 For citations please refer to: https://tddft.org/programs/libxc/

 This ORCA versions uses:
   CBLAS   interface :  Fast vector & matrix operations
   LAPACKE interface :  Fast linear algebra routines
   SCALAPACK package :  Parallel linear algebra routines
   Shared memory     :  Shared parallel matrices
   BLAS/LAPACK       :  OpenBLAS 0.3.15  USE64BITINT DYNAMIC_ARCH NO_AFFINITY Haswell SINGLE_THREADED
        Core in use  :  Haswell
   Copyright (c) 2011-2014, The OpenBLAS Project


================================================================================

----- Orbital basis set information -----
Your calculation utilizes the basis: def2-SVPD
   F. Weigend and R. Ahlrichs, Phys. Chem. Chem. Phys. 7, 3297 (2005).
   D. Rappoport and F. Furche, J. Chem. Phys. 133 134105 (2010).

----- AuxJ basis set information -----
Your calculation utilizes the auxiliary basis: def2/J
   F. Weigend, Phys. Chem. Chem. Phys. 8, 1057 (2006).

================================================================================
                                        WARNINGS
                       Please study these warnings very carefully!
================================================================================


INFO   : the flag for use of the SHARK integral package has been found!

================================================================================
                                       INPUT FILE
================================================================================
NAME = SVPD_LC_PBE_A_wt_dlpno_pos.com
|  1> !LC-PBE RIJCOSX def2-SVPD def2/J TightSCF
|  2> *xyz 1 1 
|  3> C          0.81607       -2.10149       -2.18655
|  4> H          1.69623       -2.36869       -1.60046
|  5> N          1.10055       -2.46749       -3.59927
|  6> C          0.51624       -0.61363       -2.03937
|  7> H         -0.02007       -2.71285       -1.84084
|  8> H          1.70061       -1.75723       -4.07838
|  9> H          0.29386       -2.35977       -4.25632
| 10> H          1.50132       -3.42848       -3.69491
| 11> H         -0.34841       -0.36504       -2.61858
| 12> H          1.35358       -0.04503       -2.38643
| 13> H          0.33317       -0.38682       -1.00984
| 14> *
| 15> %MaxCore 64000
| 16> 
| 17> %pal nprocs 4
| 18> end  
| 19> 
| 20> %scf
| 21>   MaxIter 150
| 22> end
| 23> 
| 24> 
| 25>                          ****END OF INPUT****
================================================================================

                       ****************************
                       * Single Point Calculation *
                       ****************************

---------------------------------
CARTESIAN COORDINATES (ANGSTROEM)
---------------------------------
  C      0.816070   -2.101490   -2.186550
  H      1.696230   -2.368690   -1.600460
  N      1.100550   -2.467490   -3.599270
  C      0.516240   -0.613630   -2.039370
  H     -0.020070   -2.712850   -1.840840
  H      1.700610   -1.757230   -4.078380
  H      0.293860   -2.359770   -4.256320
  H      1.501320   -3.428480   -3.694910
  H     -0.348410   -0.365040   -2.618580
  H      1.353580   -0.045030   -2.386430
  H      0.333170   -0.386820   -1.009840

----------------------------
CARTESIAN COORDINATES (A.U.)
----------------------------
  NO LB      ZA    FRAG     MASS         X           Y           Z
   0 C     6.0000    0    12.011    1.542149   -3.971241   -4.131981
   1 H     1.0000    0     1.008    3.205410   -4.476175   -3.024431
   2 N     7.0000    0    14.007    2.079738   -4.662880   -6.801635
   3 C     6.0000    0    12.011    0.975552   -1.159593   -3.853851
   4 H     1.0000    0     1.008   -0.037927   -5.126544   -3.478683
   5 H     1.0000    0     1.008    3.213687   -3.320683   -7.707021
   6 H     1.0000    0     1.008    0.555315   -4.459319   -8.043279
   7 H     1.0000    0     1.008    2.837084   -6.478888   -6.982368
   8 H     1.0000    0     1.008   -0.658399   -0.689826   -4.948399
   9 H     1.0000    0     1.008    2.557896   -0.085094   -4.509699
  10 H     1.0000    0     1.008    0.629600   -0.730984   -1.908321

--------------------------------
INTERNAL COORDINATES (ANGSTROEM)
--------------------------------
 C      0   0   0     0.000000000000     0.00000000     0.00000000
 H      1   0   0     1.090678208135     0.00000000     0.00000000
 N      1   2   0     1.486829737663   107.20969654     0.00000000
 C      1   2   3     1.524889294637   110.23327792   238.23497714
 H      1   2   3     1.091973696249   108.09753525   116.23750786
 H      3   1   2     1.045986454645   112.19915537   280.57074603
 H      3   1   2     1.045976604423   115.08391716   173.58599447
 H      3   1   2     1.045593316065   112.73631811    47.10374094
 H      4   1   2     1.070000390047   109.47083399   180.00016847
 H      4   1   2     1.069997607100   109.47052368    60.00053848
 H      4   1   2     1.069995056951   109.47133092   300.00053156

---------------------------
INTERNAL COORDINATES (A.U.)
---------------------------
 C      0   0   0     0.000000000000     0.00000000     0.00000000
 H      1   0   0     2.061083113611     0.00000000     0.00000000
 N      1   2   0     2.809701011954   107.20969654     0.00000000
 C      1   2   3     2.881623151413   110.23327792   238.23497714
 H      1   2   3     2.063531231357   108.09753525   116.23750786
 H      3   1   2     1.976627939070   112.19915537   280.57074603
 H      3   1   2     1.976609324848   115.08391716   173.58599447
 H      3   1   2     1.975885014822   112.73631811    47.10374094
 H      4   1   2     2.022007700377   109.47083399   180.00016847
 H      4   1   2     2.022002441370   109.47052368    60.00053848
 H      4   1   2     2.021997622287   109.47133092   300.00053156

---------------------
BASIS SET INFORMATION
---------------------
There are 3 groups of distinct atoms

 Group   1 Type C   : 8s4p2d contracted to 4s2p2d pattern {5111/31/11}
 Group   2 Type H   : 4s2p contracted to 2s2p pattern {31/11}
 Group   3 Type N   : 8s4p2d contracted to 4s2p2d pattern {5111/31/11}

Atom   0C    basis set group =>   1
Atom   1H    basis set group =>   2
Atom   2N    basis set group =>   3
Atom   3C    basis set group =>   1
Atom   4H    basis set group =>   2
Atom   5H    basis set group =>   2
Atom   6H    basis set group =>   2
Atom   7H    basis set group =>   2
Atom   8H    basis set group =>   2
Atom   9H    basis set group =>   2
Atom  10H    basis set group =>   2
---------------------------------
AUXILIARY/J BASIS SET INFORMATION
---------------------------------
There are 3 groups of distinct atoms

 Group   1 Type C   : 12s5p4d2f1g contracted to 6s4p3d1f1g pattern {711111/2111/211/2/1}
 Group   2 Type H   : 5s2p1d contracted to 3s1p1d pattern {311/2/1}
 Group   3 Type N   : 12s5p4d2f1g contracted to 6s4p3d1f1g pattern {711111/2111/211/2/1}

Atom   0C    basis set group =>   1
Atom   1H    basis set group =>   2
Atom   2N    basis set group =>   3
Atom   3C    basis set group =>   1
Atom   4H    basis set group =>   2
Atom   5H    basis set group =>   2
Atom   6H    basis set group =>   2
Atom   7H    basis set group =>   2
Atom   8H    basis set group =>   2
Atom   9H    basis set group =>   2
Atom  10H    basis set group =>   2


           ************************************************************
           *        Program running with 4 parallel MPI-processes     *
           *              working on a common directory               *
           ************************************************************
------------------------------------------------------------------------------
                           ORCA GTO INTEGRAL CALCULATION
                           -- RI-GTO INTEGRALS CHOSEN --
------------------------------------------------------------------------------
------------------------------------------------------------------------------
                   ___                                                        
                  /   \      - P O W E R E D   B Y -                         
                 /     \                                                     
                 |  |  |   _    _      __       _____    __    __             
                 |  |  |  | |  | |    /  \     |  _  \  |  |  /  |          
                  \  \/   | |  | |   /    \    | | | |  |  | /  /          
                 / \  \   | |__| |  /  /\  \   | |_| |  |  |/  /          
                |  |  |   |  __  | /  /__\  \  |    /   |      \           
                |  |  |   | |  | | |   __   |  |    \   |  |\   \          
                \     /   | |  | | |  |  |  |  | |\  \  |  | \   \       
                 \___/    |_|  |_| |__|  |__|  |_| \__\ |__|  \__/        
                                                                              
                      - O R C A' S   B I G   F R I E N D -                    
                                      &                                       
                       - I N T E G R A L  F E E D E R -                       
                                                                              
 v1 FN, 2020, v2 2021                                                         
------------------------------------------------------------------------------


Reading SHARK input file SVPD_LC_PBE_A_wt_dlpno_pos.SHARKINP.tmp ... ok
----------------------
SHARK INTEGRAL PACKAGE
----------------------

Number of atoms                             ...     11
Number of basis functions                   ...    124
Number of shells                            ...     56
Maximum angular momentum                    ...      2
Integral batch strategy                     ... SHARK/LIBINT Hybrid
RI-J (if used) integral strategy            ... SPLIT-RIJ (Revised 2003 algorithm where possible)
Printlevel                                  ...      1
Contraction scheme used                     ... SEGMENTED contraction
Coulomb Range Separation                    ... NOT USED
Exchange Range Separation                   ... Long Range
   Mu parameter                             ...  0.470000
   Scaling (regular/separated)              ...  0.000000  1.000000
Finite Nucleus Model                        ... NOT USED
Auxiliary Coulomb fitting basis             ... AVAILABLE
   # of basis functions in Aux-J            ...    235
   # of shells in Aux-J                     ...     85
   Maximum angular momentum in Aux-J        ...      4
Auxiliary J/K fitting basis                 ... NOT available
Auxiliary Correlation fitting basis         ... NOT available
Auxiliary 'external' fitting basis          ... NOT available
Integral threshold                          ...     2.500000e-11
Primitive cut-off                           ...     2.500000e-12
Primitive pair pre-selection threshold      ...     2.500000e-12

Calculating pre-screening integrals         ... done (  0.0 sec) Dimension = 56
Organizing shell pair data                  ... done (  0.0 sec)
Shell pair information
Total number of shell pairs                 ...      1596
Shell pairs after pre-screening             ...      1594
Total number of primitive shell pairs       ...      4158
Primitive shell pairs kept                  ...      3735
          la=0 lb=0:    405 shell pairs
          la=1 lb=0:    615 shell pairs
          la=1 lb=1:    253 shell pairs
          la=2 lb=0:    168 shell pairs
          la=2 lb=1:    132 shell pairs
          la=2 lb=2:     21 shell pairs

Calculating one electron integrals          ... done (  0.0 sec)
Calculating RI/J V-Matrix + Cholesky decomp.... done (  0.0 sec)
Calculating Nuclear repulsion               ... done (  0.0 sec) ENN=     90.218451815911 Eh

SHARK setup successfully completed in   0.1 seconds

Maximum memory used throughout the entire GTOINT-calculation: 8.8 MB


           ************************************************************
           *        Program running with 4 parallel MPI-processes     *
           *              working on a common directory               *
           ************************************************************
-------------------------------------------------------------------------------
                                 ORCA SCF
-------------------------------------------------------------------------------

------------
SCF SETTINGS
------------
Hamiltonian:
 Density Functional     Method          .... DFT(GTOs)
 Exchange Functional    Exchange        .... LC-PBE
 Correlation Functional Correlation     .... PBE
   PBE beta parameter  CBetaPBE         ....  0.066725
 LDA part of GGA corr.  LDAOpt          .... PW91-LDA
 Gradients option       PostSCFGGA      .... off
   Density functional embedding theory  .... OFF
 Long-range corrected/Screened/Range-Separated Hybrid DFT is turned on
   Amount of maximum screened exact exchange              ....  1.000000
   Range separation parameter mu (erf(mu*r12)/r12)        ....  0.470000
   NL short-range parameter             ....  6.400000
 RI-approximation to the Coulomb term is turned on
   Number of AuxJ basis functions       .... 235
   RIJ-COSX (HFX calculated with COS-X)).... on


General Settings:
 Integral files         IntName         .... SVPD_LC_PBE_A_wt_dlpno_pos
 Hartree-Fock type      HFTyp           .... RHF
 Total Charge           Charge          ....    1
 Multiplicity           Mult            ....    1
 Number of Electrons    NEL             ....   26
 Basis Dimension        Dim             ....  124
 Nuclear Repulsion      ENuc            ....     90.2184518159 Eh

Convergence Acceleration:
 DIIS                   CNVDIIS         .... on
   Start iteration      DIISMaxIt       ....    12
   Startup error        DIISStart       ....  0.200000
   # of expansion vecs  DIISMaxEq       ....     5
   Bias factor          DIISBfac        ....   1.050
   Max. coefficient     DIISMaxC        ....  10.000
 Trust-Rad. Augm. Hess. CNVTRAH         .... auto
   Auto Start mean grad. ratio tolernc. ....  1.125000
   Auto Start start iteration           ....    20
   Auto Start num. interpolation iter.  ....    10
   Max. Number of Micro iterations      ....    16
   Max. Number of Macro iterations      .... Maxiter - #DIIS iter
   Number of Davidson start vectors     ....     2
   Converg. threshold I  (grad. norm)   ....   1.000e-05
   Converg. threshold II (energy diff.) ....   1.000e-08
   Grad. Scal. Fac. for Micro threshold ....   0.100
   Minimum threshold for Micro iter.    ....   0.010
   NR start threshold (gradient norm)   ....   0.001
   Initial trust radius                 ....   0.400
   Minimum AH scaling param. (alpha)    ....   1.000
   Maximum AH scaling param. (alpha)    .... 1000.000
   Orbital update algorithm             .... Taylor
   White noise on init. David. guess    .... on
   Maximum white noise                  ....   0.010
   Quad. conv. algorithm                .... NR
 SOSCF                  CNVSOSCF        .... on
   Start iteration      SOSCFMaxIt      ....   150
   Startup grad/error   SOSCFStart      ....  0.003300
 Level Shifting         CNVShift        .... on
   Level shift para.    LevelShift      ....    0.2500
   Turn off err/grad.   ShiftErr        ....    0.0010
 Zerner damping         CNVZerner       .... off
 Static damping         CNVDamp         .... on
   Fraction old density DampFac         ....    0.7000
   Max. Damping (<1)    DampMax         ....    0.9800
   Min. Damping (>=0)   DampMin         ....    0.0000
   Turn off err/grad.   DampErr         ....    0.1000
 Fernandez-Rico         CNVRico         .... off

SCF Procedure:
 Maximum # iterations   MaxIter         ....   150
 SCF integral mode      SCFMode         .... Direct
   Integral package                     .... SHARK and LIBINT hybrid scheme
 Reset frequency        DirectResetFreq ....    20
 Integral Threshold     Thresh          ....  2.500e-11 Eh
 Primitive CutOff       TCut            ....  2.500e-12 Eh

Convergence Tolerance:
 Convergence Check Mode ConvCheckMode   .... Total+1el-Energy
 Convergence forced     ConvForced      .... 0
 Energy Change          TolE            ....  1.000e-08 Eh
 1-El. energy change                    ....  1.000e-05 Eh
 Orbital Gradient       TolG            ....  1.000e-05
 Orbital Rotation angle TolX            ....  1.000e-05
 DIIS Error             TolErr          ....  5.000e-07


Diagonalization of the overlap matrix:
Smallest eigenvalue                        ... 1.225e-04
Time for diagonalization                   ...    0.005 sec
Threshold for overlap eigenvalues          ... 1.000e-08
Number of eigenvalues below threshold      ... 0
Time for construction of square roots      ...    0.004 sec
Total time needed                          ...    0.009 sec

Time for model grid setup =    0.049 sec

------------------------------
INITIAL GUESS: MODEL POTENTIAL
------------------------------
Loading Hartree-Fock densities                     ... done
Calculating cut-offs                               ... done
Initializing the effective Hamiltonian             ... done
Setting up the integral package (SHARK)            ... done
Starting the Coulomb interaction                   ... done (   0.0 sec)
Reading the grid                                   ... done
Mapping shells                                     ... done
Starting the XC term evaluation                    ... done (   0.0 sec)
  promolecular density results
     # of electrons  =     26.996799457
     EX              =    -13.017443507
     EC              =     -0.865119573
     EX+EC           =    -13.882563080
Transforming the Hamiltonian                       ... done (   0.0 sec)
Diagonalizing the Hamiltonian                      ... done (   0.0 sec)
Back transforming the eigenvectors                 ... done (   0.0 sec)
Now organizing SCF variables                       ... done
                      ------------------
                      INITIAL GUESS DONE (   0.1 sec)
                      ------------------
-------------------
DFT GRID GENERATION
-------------------

General Integration Accuracy     IntAcc      ... 4.388
Radial Grid Type                 RadialGrid  ... OptM3 with GC (2021)
Angular Grid (max. ang.)         AngularGrid ... 4 (Lebedev-302)
Angular grid pruning method      GridPruning ... 4 (adaptive)
Weight generation scheme         WeightScheme... Becke
Basis function cutoff            BFCut       ... 1.0000e-11
Integration weight cutoff        WCut        ... 1.0000e-14
Angular grids for H and He will be reduced by one unit
Partially contracted basis set               ... off
Rotationally invariant grid construction     ... off

Total number of grid points                  ...    45602
Total number of batches                      ...      717
Average number of points per batch           ...       63
Average number of grid points per atom       ...     4146
Time for grid setup =    0.255 sec

--------------------
COSX GRID GENERATION
--------------------

GRIDX 1
-------
General Integration Accuracy     IntAcc      ... 3.816
Radial Grid Type                 RadialGrid  ... OptM3 with GC (2021)
Angular Grid (max. ang.)         AngularGrid ... 1 (Lebedev-50)
Angular grid pruning method      GridPruning ... 4 (adaptive)
Weight generation scheme         WeightScheme... Becke
Basis function cutoff            BFCut       ... 1.0000e-11
Integration weight cutoff        WCut        ... 1.0000e-14
Angular grids for H and He will be reduced by one unit
Partially contracted basis set               ... on
Rotationally invariant grid construction     ... off

Total number of grid points                  ...     5724
Total number of batches                      ...       97
Average number of points per batch           ...       59
Average number of grid points per atom       ...      520
UseSFitting                                  ... on

GRIDX 2
-------
General Integration Accuracy     IntAcc      ... 4.020
Radial Grid Type                 RadialGrid  ... OptM3 with GC (2021)
Angular Grid (max. ang.)         AngularGrid ... 2 (Lebedev-110)
Angular grid pruning method      GridPruning ... 4 (adaptive)
Weight generation scheme         WeightScheme... Becke
Basis function cutoff            BFCut       ... 1.0000e-11
Integration weight cutoff        WCut        ... 1.0000e-14
Angular grids for H and He will be reduced by one unit
Partially contracted basis set               ... on
Rotationally invariant grid construction     ... off

Total number of grid points                  ...    12387
Total number of batches                      ...      198
Average number of points per batch           ...       62
Average number of grid points per atom       ...     1126
UseSFitting                                  ... on

GRIDX 3
-------
General Integration Accuracy     IntAcc      ... 4.338
Radial Grid Type                 RadialGrid  ... OptM3 with GC (2021)
Angular Grid (max. ang.)         AngularGrid ... 3 (Lebedev-194)
Angular grid pruning method      GridPruning ... 4 (adaptive)
Weight generation scheme         WeightScheme... Becke
Basis function cutoff            BFCut       ... 1.0000e-11
Integration weight cutoff        WCut        ... 1.0000e-14
Angular grids for H and He will be reduced by one unit
Partially contracted basis set               ... on
Rotationally invariant grid construction     ... off

Total number of grid points                  ...    28726
Total number of batches                      ...      454
Average number of points per batch           ...       63
Average number of grid points per atom       ...     2611
UseSFitting                                  ... on

Time for X-Grid setup             =    0.232 sec

--------------
SCF ITERATIONS
--------------
ITER       Energy         Delta-E        Max-DP      RMS-DP      [F,P]     Damp
               ***  Starting incremental Fock matrix formation  ***
  0   -134.9485558475   0.000000000000 0.08584530  0.00204869  0.0840802 0.7000
  1   -134.9616781274  -0.013122279873 0.09895098  0.00170936  0.0497597 0.7000
                               ***Turning on DIIS***
  2   -134.9699588923  -0.008280764910 0.29019268  0.00430135  0.0290447 0.0000
  3   -134.9874917357  -0.017532843460 0.07241637  0.00098137  0.0237055 0.0000
                      *** Initiating the SOSCF procedure ***
                           *** Shutting down DIIS ***
                      *** Re-Reading the Fockian *** 
                      *** Removing any level shift *** 
ITER      Energy       Delta-E        Grad      Rot      Max-DP    RMS-DP
  4   -134.98872241  -0.0012306707  0.001879  0.001879  0.051735  0.000599
               *** Restarting incremental Fock matrix formation ***
  5   -134.98884109  -0.0001186859  0.000546  0.000899  0.018368  0.000232
  6   -134.98885453  -0.0000134355  0.000256  0.000390  0.008397  0.000104
  7   -134.98885600  -0.0000014693  0.000105  0.000099  0.002074  0.000026
  8   -134.98885628  -0.0000002849  0.000011  0.000011  0.000235  0.000004
  9   -134.98885629  -0.0000000051  0.000007  0.000004  0.000059  0.000001
                  ***Gradient check signals convergence***
              ***Rediagonalizing the Fockian in SOSCF/NRSCF***

               *****************************************************
               *                     SUCCESS                       *
               *           SCF CONVERGED AFTER  10 CYCLES          *
               *****************************************************


----------------
TOTAL SCF ENERGY
----------------

Total Energy       :         -134.98885629 Eh           -3673.23352 eV

Components:
Nuclear Repulsion  :           90.21845182 Eh            2454.96888 eV
Electronic Energy  :         -225.20730810 Eh           -6128.20241 eV
One Electron Energy:         -353.20022073 Eh           -9611.06662 eV
Two Electron Energy:          127.99291263 Eh            3482.86422 eV
Max COSX asymmetry :            0.00001218 Eh               0.00033 eV

Virial components:
Potential Energy   :         -268.40913172 Eh           -7303.78379 eV
Kinetic Energy     :          133.42027543 Eh            3630.55027 eV
Virial Ratio       :            2.01175669


DFT components:
N(Alpha)           :       12.999992351892 electrons
N(Beta)            :       12.999992351892 electrons
N(Total)           :       25.999984703785 electrons
E(X)               :      -13.281533051370 Eh       
E(C)               :       -0.846061411939 Eh       
E(XC)              :      -14.127594463308 Eh       
DFET-embed. en.    :        0.000000000000 Eh       

---------------
SCF CONVERGENCE
---------------

  Last Energy change         ...   -1.7212e-09  Tolerance :   1.0000e-08
  Last MAX-Density change    ...    1.5689e-05  Tolerance :   1.0000e-07
  Last RMS-Density change    ...    2.5076e-07  Tolerance :   5.0000e-09
  Last Orbital Gradient      ...    7.4805e-07  Tolerance :   1.0000e-05
  Last Orbital Rotation      ...    1.0598e-06  Tolerance :   1.0000e-05

             **** THE GBW FILE WAS UPDATED (SVPD_LC_PBE_A_wt_dlpno_pos.gbw) ****
             **** DENSITY SVPD_LC_PBE_A_wt_dlpno_pos.scfp WAS UPDATED ****
             **** ENERGY FILE WAS UPDATED (SVPD_LC_PBE_A_wt_dlpno_pos.en.tmp) ****
             **** THE GBW FILE WAS UPDATED (SVPD_LC_PBE_A_wt_dlpno_pos.gbw) ****
             **** DENSITY SVPD_LC_PBE_A_wt_dlpno_pos.scfp WAS UPDATED ****
----------------
ORBITAL ENERGIES
----------------

  NO   OCC          E(Eh)            E(eV) 
   0   2.0000     -14.568691      -396.4342 
   1   2.0000     -10.382496      -282.5221 
   2   2.0000     -10.302007      -280.3319 
   3   2.0000      -1.377129       -37.4736 
   4   2.0000      -1.134509       -30.8716 
   5   2.0000      -1.009429       -27.4679 
   6   2.0000      -0.937671       -25.5153 
   7   2.0000      -0.922407       -25.1000 
   8   2.0000      -0.846115       -23.0240 
   9   2.0000      -0.779118       -21.2009 
  10   2.0000      -0.718780       -19.5590 
  11   2.0000      -0.702499       -19.1160 
  12   2.0000      -0.680616       -18.5205 
  13   0.0000      -0.111274        -3.0279 
  14   0.0000      -0.053540        -1.4569 
  15   0.0000      -0.047538        -1.2936 
  16   0.0000      -0.046410        -1.2629 
  17   0.0000      -0.007664        -0.2085 
  18   0.0000      -0.000723        -0.0197 
  19   0.0000       0.010580         0.2879 
  20   0.0000       0.025081         0.6825 
  21   0.0000       0.048051         1.3075 
  22   0.0000       0.052285         1.4227 
  23   0.0000       0.059990         1.6324 
  24   0.0000       0.072787         1.9806 
  25   0.0000       0.096267         2.6196 
  26   0.0000       0.105904         2.8818 
  27   0.0000       0.109266         2.9733 
  28   0.0000       0.118935         3.2364 
  29   0.0000       0.141767         3.8577 
  30   0.0000       0.163772         4.4565 
  31   0.0000       0.196621         5.3503 
  32   0.0000       0.209394         5.6979 
  33   0.0000       0.210747         5.7347 
  34   0.0000       0.224761         6.1160 
  35   0.0000       0.231074         6.2878 
  36   0.0000       0.234434         6.3793 
  37   0.0000       0.243036         6.6133 
  38   0.0000       0.253473         6.8973 
  39   0.0000       0.273247         7.4354 
  40   0.0000       0.282195         7.6789 
  41   0.0000       0.293568         7.9884 
  42   0.0000       0.302356         8.2275 
  43   0.0000       0.311055         8.4642 
  44   0.0000       0.318276         8.6607 
  45   0.0000       0.329018         8.9530 
  46   0.0000       0.341356         9.2888 
  47   0.0000       0.351941         9.5768 
  48   0.0000       0.366722         9.9790 
  49   0.0000       0.381876        10.3914 
  50   0.0000       0.387658        10.5487 
  51   0.0000       0.395163        10.7529 
  52   0.0000       0.405069        11.0225 
  53   0.0000       0.414545        11.2803 
  54   0.0000       0.425158        11.5691 
  55   0.0000       0.433811        11.8046 
  56   0.0000       0.443602        12.0710 
  57   0.0000       0.462176        12.5764 
  58   0.0000       0.475016        12.9258 
  59   0.0000       0.490676        13.3520 
  60   0.0000       0.501994        13.6599 
  61   0.0000       0.518643        14.1130 
  62   0.0000       0.525364        14.2959 
  63   0.0000       0.602846        16.4043 
  64   0.0000       0.644718        17.5437 
  65   0.0000       0.788969        21.4689 
  66   0.0000       0.826904        22.5012 
  67   0.0000       0.840275        22.8650 
  68   0.0000       0.862096        23.4588 
  69   0.0000       0.879068        23.9207 
  70   0.0000       0.898391        24.4465 
  71   0.0000       0.942695        25.6520 
  72   0.0000       0.945750        25.7352 
  73   0.0000       0.964425        26.2433 
  74   0.0000       0.995584        27.0912 
  75   0.0000       1.021419        27.7942 
  76   0.0000       1.069369        29.0990 
  77   0.0000       1.081686        29.4342 
  78   0.0000       1.144874        31.1536 
  79   0.0000       1.221172        33.2298 
  80   0.0000       1.256624        34.1945 
  81   0.0000       1.295345        35.2481 
  82   0.0000       1.354519        36.8583 
  83   0.0000       1.424477        38.7620 
  84   0.0000       1.499870        40.8135 
  85   0.0000       1.514288        41.2059 
  86   0.0000       1.525556        41.5125 
  87   0.0000       1.537943        41.8496 
  88   0.0000       1.620956        44.1085 
  89   0.0000       1.641615        44.6706 
  90   0.0000       1.676553        45.6213 
  91   0.0000       1.748723        47.5852 
  92   0.0000       1.784726        48.5649 
  93   0.0000       1.791989        48.7625 
  94   0.0000       1.850095        50.3436 
  95   0.0000       1.880543        51.1722 
  96   0.0000       1.886526        51.3350 
  97   0.0000       1.929299        52.4989 
  98   0.0000       1.967349        53.5343 
  99   0.0000       1.991668        54.1960 
 100   0.0000       1.995993        54.3137 
 101   0.0000       2.035550        55.3901 
 102   0.0000       2.046679        55.6930 
 103   0.0000       2.097757        57.0829 
 104   0.0000       2.145549        58.3834 
 105   0.0000       2.169810        59.0435 
 106   0.0000       2.229525        60.6685 
 107   0.0000       2.360465        64.2315 
 108   0.0000       2.386778        64.9475 
 109   0.0000       2.434977        66.2591 
 110   0.0000       2.483544        67.5807 
 111   0.0000       2.564574        69.7856 
 112   0.0000       2.595923        70.6386 
 113   0.0000       2.614994        71.1576 
 114   0.0000       2.705713        73.6262 
 115   0.0000       2.742663        74.6317 
 116   0.0000       2.843645        77.3795 
 117   0.0000       2.995281        81.5057 
 118   0.0000       3.016660        82.0875 
 119   0.0000       3.075769        83.6959 
 120   0.0000       3.130567        85.1871 
 121   0.0000       3.161381        86.0256 
 122   0.0000       3.364540        91.5538 
 123   0.0000       3.393577        92.3439 

                    ********************************
                    * MULLIKEN POPULATION ANALYSIS *
                    ********************************

-----------------------
MULLIKEN ATOMIC CHARGES
-----------------------
   0 C :    0.073833
   1 H :    0.041485
   2 N :   -0.972863
   3 C :    0.315545
   4 H :    0.026273
   5 H :    0.455541
   6 H :    0.422013
   7 H :    0.431149
   8 H :    0.082371
   9 H :    0.051693
  10 H :    0.072960
Sum of atomic charges:    1.0000000

--------------------------------
MULLIKEN REDUCED ORBITAL CHARGES
--------------------------------
  0 C s       :     2.837148  s :     2.837148
      pz      :     0.692714  p :     2.789497
      px      :     1.024968
      py      :     1.071815
      dz2     :     0.008454  d :     0.299521
      dxz     :     0.026123
      dyz     :     0.132357
      dx2y2   :     0.016942
      dxy     :     0.115646
  1 H s       :     0.949577  s :     0.949577
      pz      :     0.012868  p :     0.008937
      px      :     0.021500
      py      :    -0.025431
  2 N s       :     4.174206  s :     4.174206
      pz      :     1.248356  p :     3.709918
      px      :     1.270203
      py      :     1.191359
      dz2     :     0.024499  d :     0.088739
      dxz     :     0.051557
      dyz     :     0.019987
      dx2y2   :     0.000676
      dxy     :    -0.007980
  3 C s       :     2.655283  s :     2.655283
      pz      :     1.010735  p :     2.952359
      px      :     1.019882
      py      :     0.921743
      dz2     :     0.006786  d :     0.076813
      dxz     :    -0.001050
      dyz     :     0.027656
      dx2y2   :     0.013074
      dxy     :     0.030347
  4 H s       :     0.953715  s :     0.953715
      pz      :     0.009378  p :     0.020013
      px      :     0.007429
      py      :     0.003206
  5 H s       :     0.527665  s :     0.527665
      pz      :     0.010802  p :     0.016794
      px      :     0.019985
      py      :    -0.013993
  6 H s       :     0.555615  s :     0.555615
      pz      :     0.016194  p :     0.022373
      px      :     0.000580
      py      :     0.005598
  7 H s       :     0.564517  s :     0.564517
      pz      :    -0.008386  p :     0.004334
      px      :     0.005106
      py      :     0.007614
  8 H s       :     0.877355  s :     0.877355
      pz      :     0.006894  p :     0.040274
      px      :     0.029371
      py      :     0.004009
  9 H s       :     0.895967  s :     0.895967
      pz      :    -0.001844  p :     0.052340
      px      :     0.041276
      py      :     0.012908
 10 H s       :     0.881748  s :     0.881748
      pz      :     0.059020  p :     0.045292
      px      :    -0.002343
      py      :    -0.011385


                     *******************************
                     * LOEWDIN POPULATION ANALYSIS *
                     *******************************

----------------------
LOEWDIN ATOMIC CHARGES
----------------------
   0 C :    0.025209
   1 H :    0.062938
   2 N :    0.287541
   3 C :    0.136282
   4 H :    0.064119
   5 H :    0.121182
   6 H :    0.126162
   7 H :    0.130522
   8 H :    0.011046
   9 H :    0.009705
  10 H :    0.025293

-------------------------------
LOEWDIN REDUCED ORBITAL CHARGES
-------------------------------
  0 C s       :     2.675724  s :     2.675724
      pz      :     0.739481  p :     2.647958
      px      :     0.962132
      py      :     0.946345
      dz2     :     0.134627  d :     0.651110
      dxz     :     0.113909
      dyz     :     0.167749
      dx2y2   :     0.093863
      dxy     :     0.140962
  1 H s       :     0.710030  s :     0.710030
      pz      :     0.060830  p :     0.227032
      px      :     0.104497
      py      :     0.061705
  2 N s       :     2.901402  s :     2.901402
      pz      :     1.139626  p :     3.421269
      px      :     1.157717
      py      :     1.123925
      dz2     :     0.098667  d :     0.389788
      dxz     :     0.133736
      dyz     :     0.092238
      dx2y2   :     0.030823
      dxy     :     0.034324
  3 C s       :     2.699836  s :     2.699836
      pz      :     0.966718  p :     2.808547
      px      :     0.962204
      py      :     0.879625
      dz2     :     0.061059  d :     0.355335
      dxz     :     0.041732
      dyz     :     0.061132
      dx2y2   :     0.081164
      dxy     :     0.110247
  4 H s       :     0.711033  s :     0.711033
      pz      :     0.049847  p :     0.224848
      px      :     0.100607
      py      :     0.074395
  5 H s       :     0.592854  s :     0.592854
      pz      :     0.081130  p :     0.285963
      px      :     0.098042
      py      :     0.106792
  6 H s       :     0.595511  s :     0.595511
      pz      :     0.093441  p :     0.278327
      px      :     0.118783
      py      :     0.066103
  7 H s       :     0.597493  s :     0.597493
      pz      :     0.062021  p :     0.271985
      px      :     0.075889
      py      :     0.134075
  8 H s       :     0.724999  s :     0.724999
      pz      :     0.091246  p :     0.263955
      px      :     0.109827
      py      :     0.062882
  9 H s       :     0.724223  s :     0.724223
      pz      :     0.081114  p :     0.266072
      px      :     0.109453
      py      :     0.075504
 10 H s       :     0.712314  s :     0.712314
      pz      :     0.128028  p :     0.262393
      px      :     0.073188
      py      :     0.061177


                      *****************************
                      * MAYER POPULATION ANALYSIS *
                      *****************************

  NA   - Mulliken gross atomic population
  ZA   - Total nuclear charge
  QA   - Mulliken gross atomic charge
  VA   - Mayer's total valence
  BVA  - Mayer's bonded valence
  FA   - Mayer's free valence

  ATOM       NA         ZA         QA         VA         BVA        FA
  0 C      5.9262     6.0000     0.0738     4.3175     4.3175    -0.0000
  1 H      0.9585     1.0000     0.0415     1.0445     1.0445    -0.0000
  2 N      7.9729     7.0000    -0.9729     3.0228     3.0228    -0.0000
  3 C      5.6845     6.0000     0.3155     3.9741     3.9741    -0.0000
  4 H      0.9737     1.0000     0.0263     1.0804     1.0804    -0.0000
  5 H      0.5445     1.0000     0.4555     0.6456     0.6456     0.0000
  6 H      0.5780     1.0000     0.4220     0.7052     0.7052    -0.0000
  7 H      0.5689     1.0000     0.4311     0.6685     0.6685     0.0000
  8 H      0.9176     1.0000     0.0824     1.0508     1.0508     0.0000
  9 H      0.9483     1.0000     0.0517     1.0762     1.0762     0.0000
 10 H      0.9270     1.0000     0.0730     1.0963     1.0963    -0.0000

  Mayer bond orders larger than 0.100000
B(  0-C ,  1-H ) :   0.9509 B(  0-C ,  2-N ) :   0.7166 B(  0-C ,  3-C ) :   1.2989 
B(  0-C ,  4-H ) :   0.9657 B(  0-C ,  8-H ) :   0.1037 B(  0-C ,  9-H ) :   0.1108 
B(  0-C , 10-H ) :   0.1429 B(  2-N ,  5-H ) :   0.6721 B(  2-N ,  6-H ) :   0.7368 
B(  2-N ,  7-H ) :   0.6886 B(  3-C ,  8-H ) :   0.8628 B(  3-C ,  9-H ) :   0.8795 
B(  3-C , 10-H ) :   0.8666 

-------
TIMINGS
-------

Total SCF time: 0 days 0 hours 0 min 8 sec 

Total time                  ....       8.613 sec
Sum of individual times     ....       8.373 sec  ( 97.2%)

Fock matrix formation       ....       7.637 sec  ( 88.7%)
  Split-RI-J                ....       0.338 sec  (  4.4% of F)
  Chain of spheres X        ....       5.700 sec  ( 74.6% of F)
  XC integration            ....       1.577 sec  ( 20.7% of F)
    Basis function eval.    ....       0.527 sec  ( 33.4% of XC)
    Density eval.           ....       0.313 sec  ( 19.9% of XC)
    XC-Functional eval.     ....       0.195 sec  ( 12.4% of XC)
    XC-Potential eval.      ....       0.421 sec  ( 26.7% of XC)
Diagonalization             ....       0.020 sec  (  0.2%)
Density matrix formation    ....       0.002 sec  (  0.0%)
Population analysis         ....       0.005 sec  (  0.1%)
Initial guess               ....       0.067 sec  (  0.8%)
Orbital Transformation      ....       0.000 sec  (  0.0%)
Orbital Orthonormalization  ....       0.000 sec  (  0.0%)
DIIS solution               ....       0.013 sec  (  0.1%)
SOSCF solution              ....       0.092 sec  (  1.1%)
Grid generation             ....       0.536 sec  (  6.2%)

Maximum memory used throughout the entire SCF-calculation: 15.8 MB

-------------------------   --------------------
FINAL SINGLE POINT ENERGY      -134.988856288881
-------------------------   --------------------


                            ***************************************
                            *     ORCA property calculations      *
                            ***************************************

                                    ---------------------
                                    Active property flags
                                    ---------------------
   (+) Dipole Moment


------------------------------------------------------------------------------
                       ORCA ELECTRIC PROPERTIES CALCULATION
------------------------------------------------------------------------------

Dipole Moment Calculation                       ... on
Quadrupole Moment Calculation                   ... off
Polarizability Calculation                      ... off
GBWName                                         ... SVPD_LC_PBE_A_wt_dlpno_pos.gbw
Electron density file                           ... SVPD_LC_PBE_A_wt_dlpno_pos.scfp
The origin for moment calculation is the CENTER OF MASS  = ( 1.557115, -3.308742 -5.035805)

-------------
DIPOLE MOMENT
-------------
                                X             Y             Z
Electronic contribution:      0.42683      -1.45008      -1.10589
Nuclear contribution   :     -0.07506       0.54337      -0.16191
                        -----------------------------------------
Total Dipole Moment    :      0.35177      -0.90671      -1.26780
                        -----------------------------------------
Magnitude (a.u.)       :      1.59787
Magnitude (Debye)      :      4.06147



--------------------
Rotational spectrum 
--------------------
 
Rotational constants in cm-1:     0.999557     0.280801     0.246932 
Rotational constants in MHz : 29965.963633  8418.199581  7402.841054 

 Dipole components along the rotational axes: 
x,y,z [a.u.] :    -1.556541    -0.361019     0.006354 
x,y,z [Debye]:    -3.956412    -0.917638     0.016152 

 

Timings for individual modules:

Sum of individual times         ...       12.358 sec (=   0.206 min)
GTO integral calculation        ...        2.156 sec (=   0.036 min)  17.4 %
SCF iterations                  ...       10.203 sec (=   0.170 min)  82.6 %
                             ****ORCA TERMINATED NORMALLY****
TOTAL RUN TIME: 0 days 0 hours 0 minutes 12 seconds 832 msec
