
                                        *****************
                                        * O   R   C   A *
                                        *****************

                                            #,                                       
                                            ###                                      
                                            ####                                     
                                            #####                                    
                                            ######                                   
                                           ########,                                 
                                     ,,################,,,,,                         
                               ,,#################################,,                 
                          ,,##########################################,,             
                       ,#########################################, ''#####,          
                    ,#############################################,,   '####,        
                  ,##################################################,,,,####,       
                ,###########''''           ''''###############################       
              ,#####''   ,,,,##########,,,,          '''####'''          '####       
            ,##' ,,,,###########################,,,                        '##       
           ' ,,###''''                  '''############,,,                           
         ,,##''                                '''############,,,,        ,,,,,,###''
      ,#''                                            '''#######################'''  
     '                                                          ''''####''''         
             ,#######,   #######,   ,#######,      ##                                
            ,#'     '#,  ##    ##  ,#'     '#,    #''#        ######   ,####,        
            ##       ##  ##   ,#'  ##            #'  '#       #        #'  '#        
            ##       ##  #######   ##           ,######,      #####,   #    #        
            '#,     ,#'  ##    ##  '#,     ,#' ,#      #,         ##   #,  ,#        
             '#######'   ##     ##  '#######'  #'      '#     #####' # '####'        



                  #######################################################
                  #                        -***-                        #
                  #          Department of theory and spectroscopy      #
                  #    Directorship and core code : Frank Neese         #
                  #        Max Planck Institute fuer Kohlenforschung    #
                  #                Kaiser Wilhelm Platz 1               #
                  #                 D-45470 Muelheim/Ruhr               #
                  #                      Germany                        #
                  #                                                     #
                  #                  All rights reserved                #
                  #                        -***-                        #
                  #######################################################


                         Program Version 5.0.0 -  RELEASE  -
                                (SVN: $Rev: 19529$)
                ($Date: 2021-06-28 11:36:33 +0200 (Mo, 28 Jun 2021) $)


 With contributions from (in alphabetic order):
   Daniel Aravena         : Magnetic Suceptibility
   Michael Atanasov       : Ab Initio Ligand Field Theory (pilot matlab implementation)
   Alexander A. Auer      : GIAO ZORA, VPT2 properties, NMR spectrum
   Ute Becker             : Parallelization
   Giovanni Bistoni       : ED, misc. LED, open-shell LED, HFLD
   Martin Brehm           : Molecular dynamics
   Dmytro Bykov           : SCF Hessian
   Vijay G. Chilkuri      : MRCI spin determinant printing, contributions to CSF-ICE
   Dipayan Datta          : RHF DLPNO-CCSD density
   Achintya Kumar Dutta   : EOM-CC, STEOM-CC
   Dmitry Ganyushin       : Spin-Orbit,Spin-Spin,Magnetic field MRCI
   Miquel Garcia          : C-PCM Hessian, Gaussian charge scheme
   Yang Guo               : DLPNO-NEVPT2, F12-NEVPT2, CIM, IAO-localization
   Andreas Hansen         : Spin unrestricted coupled pair/coupled cluster methods
   Benjamin Helmich-Paris : MC-RPA, TRAH-SCF, COSX integrals
   Lee Huntington         : MR-EOM, pCC
   Robert Izsak           : Overlap fitted RIJCOSX, COSX-SCS-MP3, EOM
   Marcus Kettner         : VPT2
   Christian Kollmar      : KDIIS, OOCD, Brueckner-CCSD(T), CCSD density, CASPT2, CASPT2-K
   Simone Kossmann        : Meta GGA functionals, TD-DFT gradient, OOMP2, MP2 Hessian
   Martin Krupicka        : Initial AUTO-CI
   Lucas Lang             : DCDCAS
   Marvin Lechner         : AUTO-CI (C++ implementation), FIC-MRCC
   Dagmar Lenk            : GEPOL surface, SMD
   Dimitrios Liakos       : Extrapolation schemes; Compound Job, initial MDCI parallelization
   Dimitrios Manganas     : Further ROCIS development; embedding schemes
   Dimitrios Pantazis     : SARC Basis sets
   Anastasios Papadopoulos: AUTO-CI, single reference methods and gradients
   Taras Petrenko         : DFT Hessian,TD-DFT gradient, ASA, ECA, R-Raman, ABS, FL, XAS/XES, NRVS
   Peter Pinski           : DLPNO-MP2, DLPNO-MP2 Gradient
   Christoph Reimann      : Effective Core Potentials
   Marius Retegan         : Local ZFS, SOC
   Christoph Riplinger    : Optimizer, TS searches, QM/MM, DLPNO-CCSD(T), (RO)-DLPNO pert. Triples
   Tobias Risthaus        : Range-separated hybrids, TD-DFT gradient, RPA, STAB
   Michael Roemelt        : Original ROCIS implementation
   Masaaki Saitow         : Open-shell DLPNO-CCSD energy and density
   Barbara Sandhoefer     : DKH picture change effects
   Avijit Sen             : IP-ROCIS
   Kantharuban Sivalingam : CASSCF convergence, NEVPT2, FIC-MRCI
   Bernardo de Souza      : ESD, SOC TD-DFT
   Georgi Stoychev        : AutoAux, RI-MP2 NMR
   Willem Van den Heuvel  : Paramagnetic NMR
   Boris Wezisla          : Elementary symmetry handling
   Frank Wennmohs         : Technical directorship


 We gratefully acknowledge several colleagues who have allowed us to
 interface, adapt or use parts of their codes:
   Stefan Grimme, W. Hujo, H. Kruse, P. Pracht,  : VdW corrections, initial TS optimization,
                  C. Bannwarth, S. Ehlert          DFT functionals, gCP, sTDA/sTD-DF
   Ed Valeev, F. Pavosevic, A. Kumar             : LibInt (2-el integral package), F12 methods
   Garnet Chan, S. Sharma, J. Yang, R. Olivares  : DMRG
   Ulf Ekstrom                                   : XCFun DFT Library
   Mihaly Kallay                                 : mrcc  (arbitrary order and MRCC methods)
   Jiri Pittner, Ondrej Demel                    : Mk-CCSD
   Frank Weinhold                                : gennbo (NPA and NBO analysis)
   Christopher J. Cramer and Donald G. Truhlar   : smd solvation model
   Lars Goerigk                                  : TD-DFT with DH, B97 family of functionals
   V. Asgeirsson, H. Jonsson                     : NEB implementation
   FAccTs GmbH                                   : IRC, NEB, NEB-TS, DLPNO-Multilevel, CI-OPT
                                                   MM, QMMM, 2- and 3-layer-ONIOM, Crystal-QMMM,
                                                   LR-CPCM, SF, NACMEs, symmetry and pop. for TD-DFT,
                                                   nearIR, NL-DFT gradient (VV10), updates on ESD,
                                                   ML-optimized integration grids
   S Lehtola, MJT Oliveira, MAL Marques          : LibXC Library
   Liviu Ungur et al                             : ANISO software


 Your calculation uses the libint2 library for the computation of 2-el integrals
 For citations please refer to: http://libint.valeyev.net

 Your ORCA version has been built with support for libXC version: 5.1.0
 For citations please refer to: https://tddft.org/programs/libxc/

 This ORCA versions uses:
   CBLAS   interface :  Fast vector & matrix operations
   LAPACKE interface :  Fast linear algebra routines
   SCALAPACK package :  Parallel linear algebra routines
   Shared memory     :  Shared parallel matrices
   BLAS/LAPACK       :  OpenBLAS 0.3.15  USE64BITINT DYNAMIC_ARCH NO_AFFINITY Haswell SINGLE_THREADED
        Core in use  :  Haswell
   Copyright (c) 2011-2014, The OpenBLAS Project




***************************************
The coordinates will be read from file: D1.xyz
***************************************


================================================================================

----- Orbital basis set information -----
Your calculation utilizes the basis: def2-SVPD
   F. Weigend and R. Ahlrichs, Phys. Chem. Chem. Phys. 7, 3297 (2005).
   D. Rappoport and F. Furche, J. Chem. Phys. 133 134105 (2010).

----- AuxJ basis set information -----
Your calculation utilizes the auxiliary basis: def2/J
   F. Weigend, Phys. Chem. Chem. Phys. 8, 1057 (2006).

================================================================================
                                        WARNINGS
                       Please study these warnings very carefully!
================================================================================


INFO   : the flag for use of the SHARK integral package has been found!

================================================================================
                                       INPUT FILE
================================================================================
NAME = 28Oct_SVPD_LC_PBE_D1_wb97.com
|  1> !LC-PBE RIJCOSX def2-SVPD def2/J TightSCF xyzfile                                                                                         
|  2> 
|  3> *xyzfile 0 1 D1.xyz
|  4> 
|  5> %MaxCore 64000
|  6> 
|  7> %pal nprocs 4                                                                                                                                                  
|  8> end  
|  9> 
| 10> %scf
| 11>   MaxIter 150
| 12> end
| 13> 
| 14> 
| 15>                          ****END OF INPUT****
================================================================================

                       ****************************
                       * Single Point Calculation *
                       ****************************

---------------------------------
CARTESIAN COORDINATES (ANGSTROEM)
---------------------------------
  C      3.913853   -1.658291    3.015134
  C      5.039266   -0.901154    2.492821
  C      4.084215    1.742081   -2.114724
  C      4.265245    2.500518   -0.795890
  H      4.868534    3.392674   -0.981134
  H      3.307640    2.824571   -0.387809
  C      4.982240    1.650257    0.247422
  C      6.210384   -1.417261    2.178244
  N      6.535913   -2.677122    2.556078
  N      7.076754   -0.700820    1.478906
  H      7.954643   -1.121554    1.207554
  H      6.756161    0.106637    0.960278
  H      4.842168    0.017609    2.115191
  H      5.993876   -3.126918    3.282784
  H      7.498441   -2.975482    2.468776
  F      4.368065    1.389270    1.313706
  O      6.128919    1.233512   -0.045620
  C      3.139159   -2.376572    1.910609
  H      3.267235   -0.939401    3.520693
  H      4.247195   -2.355095    3.790065
  C      1.997274    0.430918   -1.399218
  C      3.412746    0.376886   -1.965497
  H      4.047407   -0.246590   -1.326706
  H      3.390774   -0.118719   -2.942839
  H      5.068475    1.598504   -2.565728
  H      3.503356    2.363939   -2.804565
  C      2.399946   -1.389579    1.009490
  H      2.440750   -3.087118    2.362976
  H      3.844475   -2.970462    1.318677
  C      2.070177   -1.936705   -0.372401
  H      1.481611   -1.061542    1.509912
  H      3.008628   -0.490001    0.897451
  C      1.322238   -0.935775   -1.256413
  H      1.472747   -2.850902   -0.283997
  H      3.003539   -2.234041   -0.862535
  H      1.376444    1.058920   -2.047420
  H      2.015341    0.929780   -0.426535
  H      0.316648   -0.787213   -0.848278
  H      1.185611   -1.379252   -2.248613

----------------------------
CARTESIAN COORDINATES (A.U.)
----------------------------
  NO LB      ZA    FRAG     MASS         X           Y           Z
   0 C     6.0000    0    12.011    7.396111   -3.133715    5.697778
   1 C     6.0000    0    12.011    9.522832   -1.702935    4.710749
   2 C     6.0000    0    12.011    7.718048    3.292056   -3.996250
   3 C     6.0000    0    12.011    8.060145    4.725294   -1.504014
   4 H     1.0000    0     1.008    9.200197    6.411225   -1.854074
   5 H     1.0000    0     1.008    6.250533    5.337665   -0.732852
   6 C     6.0000    0    12.011    9.415070    3.118533    0.467560
   7 C     6.0000    0    12.011   11.735926   -2.678236    4.116285
   8 N     7.0000    0    14.007   12.351086   -5.059027    4.830288
   9 N     7.0000    0    14.007   13.373127   -1.324358    2.794727
  10 H     1.0000    0     1.008   15.032097   -2.119429    2.281947
  11 H     1.0000    0     1.008   12.767294    0.201516    1.814662
  12 H     1.0000    0     1.008    9.150372    0.033277    3.997132
  13 H     1.0000    0     1.008   11.326784   -5.909018    6.203562
  14 H     1.0000    0     1.008   14.169999   -5.622847    4.665310
  15 F     9.0000    0    18.998    8.254446    2.625339    2.482544
  16 O     8.0000    0    15.999   11.581978    2.331000   -0.086210
  17 C     6.0000    0    12.011    5.932152   -4.491070    3.610528
  18 H     1.0000    0     1.008    6.174179   -1.775211    6.653145
  19 H     1.0000    0     1.008    8.026036   -4.450484    7.162184
  20 C     6.0000    0    12.011    3.774301    0.814318   -2.644139
  21 C     6.0000    0    12.011    6.449156    0.712212   -3.714252
  22 H     1.0000    0     1.008    7.648491   -0.465987   -2.507111
  23 H     1.0000    0     1.008    6.407634   -0.224346   -5.561161
  24 H     1.0000    0     1.008    9.578030    3.020734   -4.848524
  25 H     1.0000    0     1.008    6.620384    4.467196   -5.299860
  26 C     6.0000    0    12.011    4.535240   -2.625923    1.907659
  27 H     1.0000    0     1.008    4.612349   -5.833808    4.465377
  28 H     1.0000    0     1.008    7.265005   -5.613360    2.491938
  29 C     6.0000    0    12.011    3.912068   -3.659842   -0.703735
  30 H     1.0000    0     1.008    2.799840   -2.006023    2.853320
  31 H     1.0000    0     1.008    5.685483   -0.925968    1.695937
  32 C     6.0000    0    12.011    2.498667   -1.768358   -2.374277
  33 H     1.0000    0     1.008    2.783088   -5.387425   -0.536677
  34 H     1.0000    0     1.008    5.675866   -4.221725   -1.629955
  35 H     1.0000    0     1.008    2.601102    2.001069   -3.869064
  36 H     1.0000    0     1.008    3.808443    1.757029   -0.806034
  37 H     1.0000    0     1.008    0.598377   -1.487618   -1.603013
  38 H     1.0000    0     1.008    2.240481   -2.606408   -4.249264

--------------------------------
INTERNAL COORDINATES (ANGSTROEM)
--------------------------------
 C      0   0   0     0.000000000000     0.00000000     0.00000000
 C      1   0   0     1.453485443280     0.00000000     0.00000000
 C      2   1   0     5.397062831959   115.14348757     0.00000000
 C      3   2   1     1.532097611045    59.11314503   109.40719194
 H      4   3   2     1.092802021856   108.87189731   139.00405486
 H      4   3   2     1.090205655918   111.44258955   257.77719885
 C      4   3   2     1.524967567516   111.62104119    19.68257472
 C      2   1   3     1.317893766373   124.73852092   238.61776321
 N      8   2   1     1.354981786071   120.73396109   347.55295988
 N      8   2   1     1.323993306980   119.71283342   167.17472830
 H     10   8   2     1.010612779130   119.01054202   182.74777304
 H     10   8   2     1.011801586507   119.68596873   341.90401853
 H      2   1   3     1.012708267950   117.12238202    41.50352268
 H      9   8   2     1.012038255530   118.99951205   343.55991010
 H      9   8   2     1.011484164655   118.60809282   192.38988925
 F      7   4   3     1.257889696357   117.77873315   241.09573441
 O      7   4   3     1.254759572899   117.06973879    59.09677419
 C      1   2   3     1.528415415419   112.18313395    40.55299548
 H      1   2   3     1.091103498013   106.38904530   280.07132220
 H      1   2   3     1.094153031138   110.50914891   165.69684107
 C      3   2   1     2.566402161358    69.85918924   358.63373552
 C     21   3   2     1.525500843689    32.86803597   287.57417264
 H     22  21   3     1.095249262273   109.95802161   121.81463450
 H     22  21   3     1.096040506729   109.17304515   237.61374675
 H      3   2   1     1.092147522563    97.39336254   216.34966963
 H      3   2   1     1.095437941699   155.43261953    43.06177566
 C     18   1   2     1.527288090659   111.59234233   291.30595630
 H     18   1   2     1.094206250286   109.26450960   168.46195288
 H     18   1   2     1.095700648837   108.59364813    52.80241857
 C     27  18   1     1.522404354645   114.08859980   157.53677373
 H     27  18   1     1.096069675730   109.24160675   280.97905834
 H     27  18   1     1.091918658179   108.85287375    35.71174097
 C     30  27  18     1.530605579965   113.27107541   179.64303584
 H     30  27  18     1.095670751936   110.16542924    57.24922825
 H     30  27  18     1.095355598276   108.61125824   301.65869014
 H     21   3   2     1.095437356092    90.17181458   160.91850925
 H     21   3   2     1.093298677198    90.08509930    55.00215557
 H     33  30  27     1.095379590960   108.78969663   291.25991339
 H     33  30  27     1.095353635048   108.62394524   176.14504675

---------------------------
INTERNAL COORDINATES (A.U.)
---------------------------
 C      0   0   0     0.000000000000     0.00000000     0.00000000
 C      1   0   0     2.746689427440     0.00000000     0.00000000
 C      2   1   0    10.198970679968   115.14348757     0.00000000
 C      3   2   1     2.895244895311    59.11314503   109.40719194
 H      4   3   2     2.065096539903   108.87189731   139.00405486
 H      4   3   2     2.060190119337   111.44258955   257.77719885
 C      4   3   2     2.881771065717   111.62104119    19.68257472
 C      2   1   3     2.490458292047   124.73852092   238.61776321
 N      8   2   1     2.560544492126   120.73396109   347.55295988
 N      8   2   1     2.501984753337   119.71283342   167.17472830
 H     10   8   2     1.909781379998   119.01054202   182.74777304
 H     10   8   2     1.912027900366   119.68596873   341.90401853
 H      2   1   3     1.913741279984   117.12238202    41.50352268
 H      9   8   2     1.912475140003   118.99951205   343.55991010
 H      9   8   2     1.911428059996   118.60809282   192.38988925
 F      7   4   3     2.377067032797   117.77873315   241.09573441
 O      7   4   3     2.371151956695   117.06973879    59.09677419
 C      1   2   3     2.888286554006   112.18313395    40.55299548
 H      1   2   3     2.061886795008   106.38904530   280.07132220
 H      1   2   3     2.067649577451   110.50914891   165.69684107
 C      3   2   1     4.849797234470    69.85918924   358.63373552
 C     21   3   2     2.882778811638    32.86803597   287.57417264
 H     22  21   3     2.069721154075   109.95802161   121.81463450
 H     22  21   3     2.071216389401   109.17304515   237.61374675
 H      3   2   1     2.063859715485    97.39336254   216.34966963
 H      3   2   1     2.070077706517   155.43261953    43.06177566
 C     18   1   2     2.886156218945   111.59234233   291.30595630
 H     18   1   2     2.067750147065   109.26450960   168.46195288
 H     18   1   2     2.070574151061   108.59364813    52.80241857
 C     27  18   1     2.876927295368   114.08859980   157.53677373
 H     27  18   1     2.071271510826   109.24160675   280.97905834
 H     27  18   1     2.063427224477   108.85287375    35.71174097
 C     30  27  18     2.892425365185   113.27107541   179.64303584
 H     30  27  18     2.070517654106   110.16542924    57.24922825
 H     30  27  18     2.069922099999   108.61125824   301.65869014
 H     21   3   2     2.070076599880    90.17181458   160.91850925
 H     21   3   2     2.066035082482    90.08509930    55.00215557
 H     33  30  27     2.069967439602   108.78969663   291.25991339
 H     33  30  27     2.069918390037   108.62394524   176.14504675

---------------------
BASIS SET INFORMATION
---------------------
There are 5 groups of distinct atoms

 Group   1 Type C   : 8s4p2d contracted to 4s2p2d pattern {5111/31/11}
 Group   2 Type H   : 4s2p contracted to 2s2p pattern {31/11}
 Group   3 Type N   : 8s4p2d contracted to 4s2p2d pattern {5111/31/11}
 Group   4 Type F   : 8s5p2d contracted to 4s3p2d pattern {5111/311/11}
 Group   5 Type O   : 8s5p2d contracted to 4s3p2d pattern {5111/311/11}

Atom   0C    basis set group =>   1
Atom   1C    basis set group =>   1
Atom   2C    basis set group =>   1
Atom   3C    basis set group =>   1
Atom   4H    basis set group =>   2
Atom   5H    basis set group =>   2
Atom   6C    basis set group =>   1
Atom   7C    basis set group =>   1
Atom   8N    basis set group =>   3
Atom   9N    basis set group =>   3
Atom  10H    basis set group =>   2
Atom  11H    basis set group =>   2
Atom  12H    basis set group =>   2
Atom  13H    basis set group =>   2
Atom  14H    basis set group =>   2
Atom  15F    basis set group =>   4
Atom  16O    basis set group =>   5
Atom  17C    basis set group =>   1
Atom  18H    basis set group =>   2
Atom  19H    basis set group =>   2
Atom  20C    basis set group =>   1
Atom  21C    basis set group =>   1
Atom  22H    basis set group =>   2
Atom  23H    basis set group =>   2
Atom  24H    basis set group =>   2
Atom  25H    basis set group =>   2
Atom  26C    basis set group =>   1
Atom  27H    basis set group =>   2
Atom  28H    basis set group =>   2
Atom  29C    basis set group =>   1
Atom  30H    basis set group =>   2
Atom  31H    basis set group =>   2
Atom  32C    basis set group =>   1
Atom  33H    basis set group =>   2
Atom  34H    basis set group =>   2
Atom  35H    basis set group =>   2
Atom  36H    basis set group =>   2
Atom  37H    basis set group =>   2
Atom  38H    basis set group =>   2
---------------------------------
AUXILIARY/J BASIS SET INFORMATION
---------------------------------
There are 5 groups of distinct atoms

 Group   1 Type C   : 12s5p4d2f1g contracted to 6s4p3d1f1g pattern {711111/2111/211/2/1}
 Group   2 Type H   : 5s2p1d contracted to 3s1p1d pattern {311/2/1}
 Group   3 Type N   : 12s5p4d2f1g contracted to 6s4p3d1f1g pattern {711111/2111/211/2/1}
 Group   4 Type F   : 12s5p4d2f1g contracted to 6s4p3d1f1g pattern {711111/2111/211/2/1}
 Group   5 Type O   : 12s5p4d2f1g contracted to 6s4p3d1f1g pattern {711111/2111/211/2/1}

Atom   0C    basis set group =>   1
Atom   1C    basis set group =>   1
Atom   2C    basis set group =>   1
Atom   3C    basis set group =>   1
Atom   4H    basis set group =>   2
Atom   5H    basis set group =>   2
Atom   6C    basis set group =>   1
Atom   7C    basis set group =>   1
Atom   8N    basis set group =>   3
Atom   9N    basis set group =>   3
Atom  10H    basis set group =>   2
Atom  11H    basis set group =>   2
Atom  12H    basis set group =>   2
Atom  13H    basis set group =>   2
Atom  14H    basis set group =>   2
Atom  15F    basis set group =>   4
Atom  16O    basis set group =>   5
Atom  17C    basis set group =>   1
Atom  18H    basis set group =>   2
Atom  19H    basis set group =>   2
Atom  20C    basis set group =>   1
Atom  21C    basis set group =>   1
Atom  22H    basis set group =>   2
Atom  23H    basis set group =>   2
Atom  24H    basis set group =>   2
Atom  25H    basis set group =>   2
Atom  26C    basis set group =>   1
Atom  27H    basis set group =>   2
Atom  28H    basis set group =>   2
Atom  29C    basis set group =>   1
Atom  30H    basis set group =>   2
Atom  31H    basis set group =>   2
Atom  32C    basis set group =>   1
Atom  33H    basis set group =>   2
Atom  34H    basis set group =>   2
Atom  35H    basis set group =>   2
Atom  36H    basis set group =>   2
Atom  37H    basis set group =>   2
Atom  38H    basis set group =>   2


           ************************************************************
           *        Program running with 4 parallel MPI-processes     *
           *              working on a common directory               *
           ************************************************************
------------------------------------------------------------------------------
                           ORCA GTO INTEGRAL CALCULATION
                           -- RI-GTO INTEGRALS CHOSEN --
------------------------------------------------------------------------------
------------------------------------------------------------------------------
                   ___                                                        
                  /   \      - P O W E R E D   B Y -                         
                 /     \                                                     
                 |  |  |   _    _      __       _____    __    __             
                 |  |  |  | |  | |    /  \     |  _  \  |  |  /  |          
                  \  \/   | |  | |   /    \    | | | |  |  | /  /          
                 / \  \   | |__| |  /  /\  \   | |_| |  |  |/  /          
                |  |  |   |  __  | /  /__\  \  |    /   |      \           
                |  |  |   | |  | | |   __   |  |    \   |  |\   \          
                \     /   | |  | | |  |  |  |  | |\  \  |  | \   \       
                 \___/    |_|  |_| |__|  |__|  |_| \__\ |__|  \__/        
                                                                              
                      - O R C A' S   B I G   F R I E N D -                    
                                      &                                       
                       - I N T E G R A L  F E E D E R -                       
                                                                              
 v1 FN, 2020, v2 2021                                                         
------------------------------------------------------------------------------


Reading SHARK input file 28Oct_SVPD_LC_PBE_D1_wb97.SHARKINP.tmp ... ok
----------------------
SHARK INTEGRAL PACKAGE
----------------------

Number of atoms                             ...     39
Number of basis functions                   ...    510
Number of shells                            ...    222
Maximum angular momentum                    ...      2
Integral batch strategy                     ... SHARK/LIBINT Hybrid
RI-J (if used) integral strategy            ... SPLIT-RIJ (Revised 2003 algorithm where possible)
Printlevel                                  ...      1
Contraction scheme used                     ... SEGMENTED contraction
Coulomb Range Separation                    ... NOT USED
Exchange Range Separation                   ... Long Range
   Mu parameter                             ...  0.470000
   Scaling (regular/separated)              ...  0.000000  1.000000
Finite Nucleus Model                        ... NOT USED
Auxiliary Coulomb fitting basis             ... AVAILABLE
   # of basis functions in Aux-J            ...   1037
   # of shells in Aux-J                     ...    355
   Maximum angular momentum in Aux-J        ...      4
Auxiliary J/K fitting basis                 ... NOT available
Auxiliary Correlation fitting basis         ... NOT available
Auxiliary 'external' fitting basis          ... NOT available
Integral threshold                          ...     2.500000e-11
Primitive cut-off                           ...     2.500000e-12
Primitive pair pre-selection threshold      ...     2.500000e-12

Calculating pre-screening integrals         ... done (  0.1 sec) Dimension = 222
Organizing shell pair data                  ... done (  0.2 sec)
Shell pair information
Total number of shell pairs                 ...     24753
Shell pairs after pre-screening             ...     22468
Total number of primitive shell pairs       ...     66707
Primitive shell pairs kept                  ...     45613
          la=0 lb=0:   5519 shell pairs
          la=1 lb=0:   7981 shell pairs
          la=1 lb=1:   2940 shell pairs
          la=2 lb=0:   3201 shell pairs
          la=2 lb=1:   2342 shell pairs
          la=2 lb=2:    485 shell pairs

Calculating one electron integrals          ... done (  0.1 sec)
Calculating RI/J V-Matrix + Cholesky decomp.... done (  0.1 sec)
Calculating Nuclear repulsion               ... done (  0.0 sec) ENN=   1238.114154688295 Eh

SHARK setup successfully completed in   0.6 seconds

Maximum memory used throughout the entire GTOINT-calculation: 33.1 MB


           ************************************************************
           *        Program running with 4 parallel MPI-processes     *
           *              working on a common directory               *
           ************************************************************
-------------------------------------------------------------------------------
                                 ORCA SCF
-------------------------------------------------------------------------------

------------
SCF SETTINGS
------------
Hamiltonian:
 Density Functional     Method          .... DFT(GTOs)
 Exchange Functional    Exchange        .... LC-PBE
 Correlation Functional Correlation     .... PBE
   PBE beta parameter  CBetaPBE         ....  0.066725
 LDA part of GGA corr.  LDAOpt          .... PW91-LDA
 Gradients option       PostSCFGGA      .... off
   Density functional embedding theory  .... OFF
 Long-range corrected/Screened/Range-Separated Hybrid DFT is turned on
   Amount of maximum screened exact exchange              ....  1.000000
   Range separation parameter mu (erf(mu*r12)/r12)        ....  0.470000
   NL short-range parameter             ....  6.400000
 RI-approximation to the Coulomb term is turned on
   Number of AuxJ basis functions       .... 1037
   RIJ-COSX (HFX calculated with COS-X)).... on


General Settings:
 Integral files         IntName         .... 28Oct_SVPD_LC_PBE_D1_wb97
 Hartree-Fock type      HFTyp           .... RHF
 Total Charge           Charge          ....    0
 Multiplicity           Mult            ....    1
 Number of Electrons    NEL             ....  126
 Basis Dimension        Dim             ....  510
 Nuclear Repulsion      ENuc            ....   1238.1141546883 Eh

Convergence Acceleration:
 DIIS                   CNVDIIS         .... on
   Start iteration      DIISMaxIt       ....    12
   Startup error        DIISStart       ....  0.200000
   # of expansion vecs  DIISMaxEq       ....     5
   Bias factor          DIISBfac        ....   1.050
   Max. coefficient     DIISMaxC        ....  10.000
 Trust-Rad. Augm. Hess. CNVTRAH         .... auto
   Auto Start mean grad. ratio tolernc. ....  1.125000
   Auto Start start iteration           ....    20
   Auto Start num. interpolation iter.  ....    10
   Max. Number of Micro iterations      ....    16
   Max. Number of Macro iterations      .... Maxiter - #DIIS iter
   Number of Davidson start vectors     ....     2
   Converg. threshold I  (grad. norm)   ....   1.000e-05
   Converg. threshold II (energy diff.) ....   1.000e-08
   Grad. Scal. Fac. for Micro threshold ....   0.100
   Minimum threshold for Micro iter.    ....   0.010
   NR start threshold (gradient norm)   ....   0.001
   Initial trust radius                 ....   0.400
   Minimum AH scaling param. (alpha)    ....   1.000
   Maximum AH scaling param. (alpha)    .... 1000.000
   Orbital update algorithm             .... Taylor
   White noise on init. David. guess    .... on
   Maximum white noise                  ....   0.010
   Quad. conv. algorithm                .... NR
 SOSCF                  CNVSOSCF        .... on
   Start iteration      SOSCFMaxIt      ....   150
   Startup grad/error   SOSCFStart      ....  0.003300
 Level Shifting         CNVShift        .... on
   Level shift para.    LevelShift      ....    0.2500
   Turn off err/grad.   ShiftErr        ....    0.0010
 Zerner damping         CNVZerner       .... off
 Static damping         CNVDamp         .... on
   Fraction old density DampFac         ....    0.7000
   Max. Damping (<1)    DampMax         ....    0.9800
   Min. Damping (>=0)   DampMin         ....    0.0000
   Turn off err/grad.   DampErr         ....    0.1000
 Fernandez-Rico         CNVRico         .... off

SCF Procedure:
 Maximum # iterations   MaxIter         ....   150
 SCF integral mode      SCFMode         .... Direct
   Integral package                     .... SHARK and LIBINT hybrid scheme
 Reset frequency        DirectResetFreq ....    20
 Integral Threshold     Thresh          ....  2.500e-11 Eh
 Primitive CutOff       TCut            ....  2.500e-12 Eh

Convergence Tolerance:
 Convergence Check Mode ConvCheckMode   .... Total+1el-Energy
 Convergence forced     ConvForced      .... 0
 Energy Change          TolE            ....  1.000e-08 Eh
 1-El. energy change                    ....  1.000e-05 Eh
 Orbital Gradient       TolG            ....  1.000e-05
 Orbital Rotation angle TolX            ....  1.000e-05
 DIIS Error             TolErr          ....  5.000e-07


Diagonalization of the overlap matrix:
Smallest eigenvalue                        ... 1.778e-05
Time for diagonalization                   ...    0.063 sec
Threshold for overlap eigenvalues          ... 1.000e-08
Number of eigenvalues below threshold      ... 0
Time for construction of square roots      ...    0.072 sec
Total time needed                          ...    0.138 sec

Time for model grid setup =    0.447 sec

------------------------------
INITIAL GUESS: MODEL POTENTIAL
------------------------------
Loading Hartree-Fock densities                     ... done
Calculating cut-offs                               ... done
Initializing the effective Hamiltonian             ... done
Setting up the integral package (SHARK)            ... done
Starting the Coulomb interaction                   ... done (   0.6 sec)
Reading the grid                                   ... done
Mapping shells                                     ... done
Starting the XC term evaluation                    ... done (   0.7 sec)
  promolecular density results
     # of electrons  =    125.997639450
     EX              =    -70.105294623
     EC              =     -4.221844339
     EX+EC           =    -74.327138962
Transforming the Hamiltonian                       ... done (   0.0 sec)
Diagonalizing the Hamiltonian                      ... done (   0.1 sec)
Back transforming the eigenvectors                 ... done (   0.0 sec)
Now organizing SCF variables                       ... done
                      ------------------
                      INITIAL GUESS DONE (   1.8 sec)
                      ------------------
-------------------
DFT GRID GENERATION
-------------------

General Integration Accuracy     IntAcc      ... 4.388
Radial Grid Type                 RadialGrid  ... OptM3 with GC (2021)
Angular Grid (max. ang.)         AngularGrid ... 4 (Lebedev-302)
Angular grid pruning method      GridPruning ... 4 (adaptive)
Weight generation scheme         WeightScheme... Becke
Basis function cutoff            BFCut       ... 1.0000e-11
Integration weight cutoff        WCut        ... 1.0000e-14
Angular grids for H and He will be reduced by one unit
Partially contracted basis set               ... off
Rotationally invariant grid construction     ... off

Total number of grid points                  ...   172301
Total number of batches                      ...     2713
Average number of points per batch           ...       63
Average number of grid points per atom       ...     4418
Time for grid setup =    1.751 sec

--------------------
COSX GRID GENERATION
--------------------

GRIDX 1
-------
General Integration Accuracy     IntAcc      ... 3.816
Radial Grid Type                 RadialGrid  ... OptM3 with GC (2021)
Angular Grid (max. ang.)         AngularGrid ... 1 (Lebedev-50)
Angular grid pruning method      GridPruning ... 4 (adaptive)
Weight generation scheme         WeightScheme... Becke
Basis function cutoff            BFCut       ... 1.0000e-11
Integration weight cutoff        WCut        ... 1.0000e-14
Angular grids for H and He will be reduced by one unit
Partially contracted basis set               ... on
Rotationally invariant grid construction     ... off

Total number of grid points                  ...    21472
Total number of batches                      ...      362
Average number of points per batch           ...       59
Average number of grid points per atom       ...      551
UseSFitting                                  ... on

GRIDX 2
-------
General Integration Accuracy     IntAcc      ... 4.020
Radial Grid Type                 RadialGrid  ... OptM3 with GC (2021)
Angular Grid (max. ang.)         AngularGrid ... 2 (Lebedev-110)
Angular grid pruning method      GridPruning ... 4 (adaptive)
Weight generation scheme         WeightScheme... Becke
Basis function cutoff            BFCut       ... 1.0000e-11
Integration weight cutoff        WCut        ... 1.0000e-14
Angular grids for H and He will be reduced by one unit
Partially contracted basis set               ... on
Rotationally invariant grid construction     ... off

Total number of grid points                  ...    46774
Total number of batches                      ...      753
Average number of points per batch           ...       62
Average number of grid points per atom       ...     1199
UseSFitting                                  ... on

GRIDX 3
-------
General Integration Accuracy     IntAcc      ... 4.338
Radial Grid Type                 RadialGrid  ... OptM3 with GC (2021)
Angular Grid (max. ang.)         AngularGrid ... 3 (Lebedev-194)
Angular grid pruning method      GridPruning ... 4 (adaptive)
Weight generation scheme         WeightScheme... Becke
Basis function cutoff            BFCut       ... 1.0000e-11
Integration weight cutoff        WCut        ... 1.0000e-14
Angular grids for H and He will be reduced by one unit
Partially contracted basis set               ... on
Rotationally invariant grid construction     ... off

Total number of grid points                  ...   104920
Total number of batches                      ...     1660
Average number of points per batch           ...       63
Average number of grid points per atom       ...     2690
UseSFitting                                  ... on

Time for X-Grid setup             =    2.468 sec

--------------
SCF ITERATIONS
--------------
ITER       Energy         Delta-E        Max-DP      RMS-DP      [F,P]     Damp
               ***  Starting incremental Fock matrix formation  ***
  0   -752.5044845777   0.000000000000 0.34726823  0.00234880  0.1403475 0.7000
  1   -752.6196972030  -0.115212625283 0.23362667  0.00171092  0.0827966 0.7000
                               ***Turning on DIIS***
  2   -752.6788737416  -0.059176538629 0.47205859  0.00396658  0.0452381 0.0000
  3   -752.7826730116  -0.103799269937 0.28546730  0.00143575  0.0363085 0.0000
  4   -752.7970866817  -0.014413670096 0.15970101  0.00068826  0.0115457 0.0000
  5   -752.7978803349  -0.000793653235 0.08899374  0.00035796  0.0128162 0.0000
                      *** Initiating the SOSCF procedure ***
                           *** Shutting down DIIS ***
                      *** Re-Reading the Fockian *** 
                      *** Removing any level shift *** 
ITER      Energy       Delta-E        Grad      Rot      Max-DP    RMS-DP
  6   -752.79829153  -0.0004111991  0.001005  0.001005  0.063035  0.000222
               *** Restarting incremental Fock matrix formation ***
  7   -752.79835654  -0.0000650023  0.000581  0.001405  0.054157  0.000195
  8   -752.79837245  -0.0000159156  0.000266  0.001352  0.049567  0.000160
  9   -752.79837613  -0.0000036751  0.000222  0.000253  0.009523  0.000050
 10   -752.79837738  -0.0000012539  0.000054  0.000073  0.004685  0.000018
 11   -752.79837749  -0.0000001090  0.000013  0.000029  0.001277  0.000006
 12   -752.79837753  -0.0000000357  0.000006  0.000017  0.000320  0.000003
                  ***Gradient check signals convergence***
              ***Rediagonalizing the Fockian in SOSCF/NRSCF***

               *****************************************************
               *                     SUCCESS                       *
               *           SCF CONVERGED AFTER  13 CYCLES          *
               *****************************************************


----------------
TOTAL SCF ENERGY
----------------

Total Energy       :         -752.79837752 Eh          -20484.68527 eV

Components:
Nuclear Repulsion  :         1238.11415469 Eh           33690.79896 eV
Electronic Energy  :        -1990.91253221 Eh          -54175.48423 eV
One Electron Energy:        -3485.84638091 Eh          -94854.70234 eV
Two Electron Energy:         1494.93384870 Eh           40679.21811 eV
Max COSX asymmetry :            0.00003516 Eh               0.00096 eV

Virial components:
Potential Energy   :        -1498.24635106 Eh          -40769.35589 eV
Kinetic Energy     :          745.44797353 Eh           20284.67061 eV
Virial Ratio       :            2.00986038


DFT components:
N(Alpha)           :       63.000021698809 electrons
N(Beta)            :       63.000021698809 electrons
N(Total)           :      126.000043397618 electrons
E(X)               :      -71.381332798184 Eh       
E(C)               :       -4.228601898505 Eh       
E(XC)              :      -75.609934696689 Eh       
DFET-embed. en.    :        0.000000000000 Eh       

---------------
SCF CONVERGENCE
---------------

  Last Energy change         ...    1.1978e-09  Tolerance :   1.0000e-08
  Last MAX-Density change    ...    2.3334e-04  Tolerance :   1.0000e-07
  Last RMS-Density change    ...    2.1758e-06  Tolerance :   5.0000e-09
  Last Orbital Gradient      ...    1.2864e-06  Tolerance :   1.0000e-05
  Last Orbital Rotation      ...    2.5213e-06  Tolerance :   1.0000e-05

             **** THE GBW FILE WAS UPDATED (28Oct_SVPD_LC_PBE_D1_wb97.gbw) ****
             **** DENSITY 28Oct_SVPD_LC_PBE_D1_wb97.scfp WAS UPDATED ****
             **** ENERGY FILE WAS UPDATED (28Oct_SVPD_LC_PBE_D1_wb97.en.tmp) ****
             **** THE GBW FILE WAS UPDATED (28Oct_SVPD_LC_PBE_D1_wb97.gbw) ****
             **** DENSITY 28Oct_SVPD_LC_PBE_D1_wb97.scfp WAS UPDATED ****
----------------
ORBITAL ENERGIES
----------------

  NO   OCC          E(Eh)            E(eV) 
   0   2.0000     -24.596667      -669.3093 
   1   2.0000     -19.026802      -517.7456 
   2   2.0000     -14.213709      -386.7747 
   3   2.0000     -14.186354      -386.0303 
   4   2.0000     -10.340905      -281.3903 
   5   2.0000     -10.168646      -276.7029 
   6   2.0000     -10.155230      -276.3379 
   7   2.0000     -10.148032      -276.1420 
   8   2.0000     -10.131582      -275.6944 
   9   2.0000     -10.126457      -275.5549 
  10   2.0000     -10.119997      -275.3791 
  11   2.0000     -10.111963      -275.1605 
  12   2.0000     -10.105695      -274.9899 
  13   2.0000     -10.096930      -274.7514 
  14   2.0000     -10.091703      -274.6092 
  15   2.0000     -10.024919      -272.7919 
  16   2.0000      -1.485092       -40.4114 
  17   2.0000      -1.221576       -33.2408 
  18   2.0000      -1.106783       -30.1171 
  19   2.0000      -1.012026       -27.5386 
  20   2.0000      -1.005015       -27.3479 
  21   2.0000      -0.980147       -26.6712 
  22   2.0000      -0.948602       -25.8128 
  23   2.0000      -0.915676       -24.9168 
  24   2.0000      -0.874374       -23.7929 
  25   2.0000      -0.850229       -23.1359 
  26   2.0000      -0.822155       -22.3720 
  27   2.0000      -0.796235       -21.6667 
  28   2.0000      -0.763199       -20.7677 
  29   2.0000      -0.744830       -20.2678 
  30   2.0000      -0.729093       -19.8396 
  31   2.0000      -0.715735       -19.4761 
  32   2.0000      -0.713688       -19.4204 
  33   2.0000      -0.704927       -19.1821 
  34   2.0000      -0.675809       -18.3897 
  35   2.0000      -0.663804       -18.0630 
  36   2.0000      -0.637206       -17.3392 
  37   2.0000      -0.630020       -17.1437 
  38   2.0000      -0.626018       -17.0348 
  39   2.0000      -0.606967       -16.5164 
  40   2.0000      -0.590870       -16.0784 
  41   2.0000      -0.579083       -15.7576 
  42   2.0000      -0.570873       -15.5342 
  43   2.0000      -0.560646       -15.2560 
  44   2.0000      -0.556542       -15.1443 
  45   2.0000      -0.550190       -14.9714 
  46   2.0000      -0.532893       -14.5007 
  47   2.0000      -0.528385       -14.3781 
  48   2.0000      -0.511289       -13.9129 
  49   2.0000      -0.501329       -13.6418 
  50   2.0000      -0.500047       -13.6070 
  51   2.0000      -0.495441       -13.4816 
  52   2.0000      -0.480881       -13.0854 
  53   2.0000      -0.468499       -12.7485 
  54   2.0000      -0.464988       -12.6530 
  55   2.0000      -0.454653       -12.3717 
  56   2.0000      -0.440442       -11.9850 
  57   2.0000      -0.435949       -11.8628 
  58   2.0000      -0.430088       -11.7033 
  59   2.0000      -0.424641       -11.5551 
  60   2.0000      -0.418426       -11.3859 
  61   2.0000      -0.377099       -10.2614 
  62   2.0000      -0.258831        -7.0431 
  63   0.0000       0.043172         1.1748 
  64   0.0000       0.083955         2.2845 
  65   0.0000       0.098228         2.6729 
  66   0.0000       0.100693         2.7400 
  67   0.0000       0.104939         2.8555 
  68   0.0000       0.115245         3.1360 
  69   0.0000       0.122937         3.3453 
  70   0.0000       0.126174         3.4334 
  71   0.0000       0.133955         3.6451 
  72   0.0000       0.134321         3.6551 
  73   0.0000       0.149054         4.0560 
  74   0.0000       0.154690         4.2093 
  75   0.0000       0.156013         4.2453 
  76   0.0000       0.162499         4.4218 
  77   0.0000       0.167276         4.5518 
  78   0.0000       0.177686         4.8351 
  79   0.0000       0.178961         4.8698 
  80   0.0000       0.187930         5.1138 
  81   0.0000       0.189675         5.1613 
  82   0.0000       0.193888         5.2759 
  83   0.0000       0.199533         5.4296 
  84   0.0000       0.205642         5.5958 
  85   0.0000       0.213336         5.8052 
  86   0.0000       0.216977         5.9042 
  87   0.0000       0.219701         5.9784 
  88   0.0000       0.224550         6.1103 
  89   0.0000       0.227463         6.1896 
  90   0.0000       0.231474         6.2987 
  91   0.0000       0.238569         6.4918 
  92   0.0000       0.245105         6.6697 
  93   0.0000       0.250164         6.8073 
  94   0.0000       0.252839         6.8801 
  95   0.0000       0.259576         7.0634 
  96   0.0000       0.263138         7.1603 
  97   0.0000       0.269130         7.3234 
  98   0.0000       0.270618         7.3639 
  99   0.0000       0.271311         7.3827 
 100   0.0000       0.283778         7.7220 
 101   0.0000       0.285856         7.7785 
 102   0.0000       0.292013         7.9461 
 103   0.0000       0.296620         8.0714 
 104   0.0000       0.300823         8.1858 
 105   0.0000       0.305416         8.3108 
 106   0.0000       0.311179         8.4676 
 107   0.0000       0.320066         8.7094 
 108   0.0000       0.323454         8.8016 
 109   0.0000       0.325974         8.8702 
 110   0.0000       0.329856         8.9758 
 111   0.0000       0.331429         9.0186 
 112   0.0000       0.339355         9.2343 
 113   0.0000       0.345232         9.3942 
 114   0.0000       0.350792         9.5455 
 115   0.0000       0.353579         9.6214 
 116   0.0000       0.357145         9.7184 
 117   0.0000       0.360878         9.8200 
 118   0.0000       0.364740         9.9251 
 119   0.0000       0.368562        10.0291 
 120   0.0000       0.374320        10.1858 
 121   0.0000       0.378955        10.3119 
 122   0.0000       0.385954        10.5023 
 123   0.0000       0.391602        10.6560 
 124   0.0000       0.393446        10.7062 
 125   0.0000       0.394530        10.7357 
 126   0.0000       0.400731        10.9044 
 127   0.0000       0.403389        10.9768 
 128   0.0000       0.408692        11.1211 
 129   0.0000       0.412441        11.2231 
 130   0.0000       0.414478        11.2785 
 131   0.0000       0.416524        11.3342 
 132   0.0000       0.418729        11.3942 
 133   0.0000       0.422034        11.4841 
 134   0.0000       0.422941        11.5088 
 135   0.0000       0.425826        11.5873 
 136   0.0000       0.426841        11.6149 
 137   0.0000       0.434607        11.8262 
 138   0.0000       0.438072        11.9205 
 139   0.0000       0.439768        11.9667 
 140   0.0000       0.442639        12.0448 
 141   0.0000       0.444015        12.0822 
 142   0.0000       0.448910        12.2155 
 143   0.0000       0.450423        12.2566 
 144   0.0000       0.451427        12.2840 
 145   0.0000       0.453670        12.3450 
 146   0.0000       0.456737        12.4284 
 147   0.0000       0.462634        12.5889 
 148   0.0000       0.466291        12.6884 
 149   0.0000       0.469673        12.7805 
 150   0.0000       0.475210        12.9311 
 151   0.0000       0.480127        13.0649 
 152   0.0000       0.482503        13.1296 
 153   0.0000       0.484341        13.1796 
 154   0.0000       0.488015        13.2796 
 155   0.0000       0.490380        13.3439 
 156   0.0000       0.494609        13.4590 
 157   0.0000       0.498242        13.5579 
 158   0.0000       0.502761        13.6808 
 159   0.0000       0.503778        13.7085 
 160   0.0000       0.511417        13.9164 
 161   0.0000       0.514546        14.0015 
 162   0.0000       0.519738        14.1428 
 163   0.0000       0.523253        14.2384 
 164   0.0000       0.526505        14.3269 
 165   0.0000       0.534303        14.5391 
 166   0.0000       0.536696        14.6042 
 167   0.0000       0.538773        14.6608 
 168   0.0000       0.544881        14.8270 
 169   0.0000       0.551674        15.0118 
 170   0.0000       0.552697        15.0396 
 171   0.0000       0.553468        15.0606 
 172   0.0000       0.557797        15.1784 
 173   0.0000       0.559229        15.2174 
 174   0.0000       0.564293        15.3552 
 175   0.0000       0.565436        15.3863 
 176   0.0000       0.568194        15.4614 
 177   0.0000       0.572417        15.5763 
 178   0.0000       0.575048        15.6478 
 179   0.0000       0.580376        15.7928 
 180   0.0000       0.584322        15.9002 
 181   0.0000       0.586883        15.9699 
 182   0.0000       0.587870        15.9968 
 183   0.0000       0.595276        16.1983 
 184   0.0000       0.599381        16.3100 
 185   0.0000       0.604378        16.4460 
 186   0.0000       0.610797        16.6206 
 187   0.0000       0.617711        16.8088 
 188   0.0000       0.618378        16.8269 
 189   0.0000       0.619763        16.8646 
 190   0.0000       0.629039        17.1170 
 191   0.0000       0.633419        17.2362 
 192   0.0000       0.635531        17.2937 
 193   0.0000       0.638146        17.3648 
 194   0.0000       0.644579        17.5399 
 195   0.0000       0.645446        17.5635 
 196   0.0000       0.650471        17.7002 
 197   0.0000       0.655025        17.8241 
 198   0.0000       0.658237        17.9115 
 199   0.0000       0.659202        17.9378 
 200   0.0000       0.663055        18.0426 
 201   0.0000       0.668368        18.1872 
 202   0.0000       0.671121        18.2621 
 203   0.0000       0.674771        18.3614 
 204   0.0000       0.676849        18.4180 
 205   0.0000       0.687608        18.7108 
 206   0.0000       0.689774        18.7697 
 207   0.0000       0.694004        18.8848 
 208   0.0000       0.698684        19.0122 
 209   0.0000       0.702693        19.1212 
 210   0.0000       0.704822        19.1792 
 211   0.0000       0.709354        19.3025 
 212   0.0000       0.713800        19.4235 
 213   0.0000       0.717964        19.5368 
 214   0.0000       0.722657        19.6645 
 215   0.0000       0.730254        19.8712 
 216   0.0000       0.732793        19.9403 
 217   0.0000       0.741343        20.1730 
 218   0.0000       0.746823        20.3221 
 219   0.0000       0.749367        20.3913 
 220   0.0000       0.751247        20.4425 
 221   0.0000       0.756310        20.5802 
 222   0.0000       0.760126        20.6841 
 223   0.0000       0.762989        20.7620 
 224   0.0000       0.769174        20.9303 
 225   0.0000       0.775731        21.1087 
 226   0.0000       0.776866        21.1396 
 227   0.0000       0.778471        21.1833 
 228   0.0000       0.786231        21.3944 
 229   0.0000       0.792769        21.5723 
 230   0.0000       0.797920        21.7125 
 231   0.0000       0.803182        21.8557 
 232   0.0000       0.807799        21.9813 
 233   0.0000       0.811906        22.0931 
 234   0.0000       0.816873        22.2282 
 235   0.0000       0.818644        22.2764 
 236   0.0000       0.824037        22.4232 
 237   0.0000       0.835670        22.7397 
 238   0.0000       0.840253        22.8644 
 239   0.0000       0.844481        22.9795 
 240   0.0000       0.846218        23.0268 
 241   0.0000       0.853117        23.2145 
 242   0.0000       0.858382        23.3578 
 243   0.0000       0.861598        23.4453 
 244   0.0000       0.870003        23.6740 
 245   0.0000       0.875506        23.8237 
 246   0.0000       0.878010        23.8919 
 247   0.0000       0.882533        24.0149 
 248   0.0000       0.897513        24.4226 
 249   0.0000       0.905984        24.6531 
 250   0.0000       0.915015        24.8988 
 251   0.0000       0.917170        24.9575 
 252   0.0000       0.920284        25.0422 
 253   0.0000       0.928549        25.2671 
 254   0.0000       0.934361        25.4252 
 255   0.0000       0.938415        25.5356 
 256   0.0000       0.949091        25.8261 
 257   0.0000       0.952828        25.9278 
 258   0.0000       0.957332        26.0503 
 259   0.0000       0.960825        26.1454 
 260   0.0000       0.968361        26.3504 
 261   0.0000       0.977545        26.6004 
 262   0.0000       0.981944        26.7201 
 263   0.0000       0.990781        26.9605 
 264   0.0000       0.997429        27.1414 
 265   0.0000       1.011425        27.5223 
 266   0.0000       1.022371        27.8201 
 267   0.0000       1.029683        28.0191 
 268   0.0000       1.045261        28.4430 
 269   0.0000       1.050297        28.5800 
 270   0.0000       1.065350        28.9896 
 271   0.0000       1.070327        29.1251 
 272   0.0000       1.077270        29.3140 
 273   0.0000       1.086013        29.5519 
 274   0.0000       1.099168        29.9099 
 275   0.0000       1.111148        30.2359 
 276   0.0000       1.113948        30.3121 
 277   0.0000       1.121957        30.5300 
 278   0.0000       1.124181        30.5905 
 279   0.0000       1.136839        30.9350 
 280   0.0000       1.141804        31.0701 
 281   0.0000       1.144619        31.1467 
 282   0.0000       1.154353        31.4116 
 283   0.0000       1.165395        31.7120 
 284   0.0000       1.171038        31.8656 
 285   0.0000       1.177321        32.0365 
 286   0.0000       1.180218        32.1154 
 287   0.0000       1.186116        32.2759 
 288   0.0000       1.197617        32.5888 
 289   0.0000       1.203823        32.7577 
 290   0.0000       1.211003        32.9531 
 291   0.0000       1.215071        33.0638 
 292   0.0000       1.221364        33.2350 
 293   0.0000       1.229595        33.4590 
 294   0.0000       1.235578        33.6218 
 295   0.0000       1.242175        33.8013 
 296   0.0000       1.251202        34.0469 
 297   0.0000       1.255575        34.1659 
 298   0.0000       1.263952        34.3939 
 299   0.0000       1.268181        34.5090 
 300   0.0000       1.270672        34.5768 
 301   0.0000       1.279448        34.8155 
 302   0.0000       1.289591        35.0915 
 303   0.0000       1.295119        35.2420 
 304   0.0000       1.301423        35.4135 
 305   0.0000       1.312077        35.7034 
 306   0.0000       1.320758        35.9396 
 307   0.0000       1.336177        36.3592 
 308   0.0000       1.342592        36.5338 
 309   0.0000       1.355755        36.8920 
 310   0.0000       1.366450        37.1830 
 311   0.0000       1.371688        37.3255 
 312   0.0000       1.379046        37.5258 
 313   0.0000       1.385180        37.6927 
 314   0.0000       1.393296        37.9135 
 315   0.0000       1.401523        38.1374 
 316   0.0000       1.404770        38.2257 
 317   0.0000       1.408726        38.3334 
 318   0.0000       1.413579        38.4654 
 319   0.0000       1.429185        38.8901 
 320   0.0000       1.449828        39.4518 
 321   0.0000       1.454679        39.5838 
 322   0.0000       1.459067        39.7032 
 323   0.0000       1.466858        39.9152 
 324   0.0000       1.469619        39.9904 
 325   0.0000       1.499124        40.7932 
 326   0.0000       1.501652        40.8620 
 327   0.0000       1.514332        41.2071 
 328   0.0000       1.535986        41.7963 
 329   0.0000       1.548061        42.1249 
 330   0.0000       1.562198        42.5096 
 331   0.0000       1.564322        42.5674 
 332   0.0000       1.584829        43.1254 
 333   0.0000       1.590812        43.2882 
 334   0.0000       1.605658        43.6922 
 335   0.0000       1.619532        44.0697 
 336   0.0000       1.624478        44.2043 
 337   0.0000       1.643885        44.7324 
 338   0.0000       1.672267        45.5047 
 339   0.0000       1.677104        45.6363 
 340   0.0000       1.690889        46.0114 
 341   0.0000       1.708109        46.4800 
 342   0.0000       1.716729        46.7146 
 343   0.0000       1.733741        47.1775 
 344   0.0000       1.747860        47.5617 
 345   0.0000       1.758315        47.8462 
 346   0.0000       1.766314        48.0638 
 347   0.0000       1.775083        48.3025 
 348   0.0000       1.786451        48.6118 
 349   0.0000       1.794241        48.8238 
 350   0.0000       1.795938        48.8700 
 351   0.0000       1.813955        49.3602 
 352   0.0000       1.825104        49.6636 
 353   0.0000       1.835932        49.9583 
 354   0.0000       1.859439        50.5979 
 355   0.0000       1.866109        50.7794 
 356   0.0000       1.869489        50.8714 
 357   0.0000       1.888474        51.3880 
 358   0.0000       1.893401        51.5221 
 359   0.0000       1.904914        51.8353 
 360   0.0000       1.920800        52.2676 
 361   0.0000       1.934114        52.6299 
 362   0.0000       1.954172        53.1757 
 363   0.0000       1.955254        53.2052 
 364   0.0000       1.971189        53.6388 
 365   0.0000       1.975780        53.7637 
 366   0.0000       1.985139        54.0184 
 367   0.0000       1.988656        54.1141 
 368   0.0000       2.003570        54.5199 
 369   0.0000       2.017236        54.8918 
 370   0.0000       2.022495        55.0349 
 371   0.0000       2.026712        55.1496 
 372   0.0000       2.045978        55.6739 
 373   0.0000       2.051868        55.8342 
 374   0.0000       2.058201        56.0065 
 375   0.0000       2.060574        56.0711 
 376   0.0000       2.069787        56.3218 
 377   0.0000       2.077116        56.5212 
 378   0.0000       2.085096        56.7383 
 379   0.0000       2.087843        56.8131 
 380   0.0000       2.093504        56.9671 
 381   0.0000       2.108096        57.3642 
 382   0.0000       2.112734        57.4904 
 383   0.0000       2.116470        57.5921 
 384   0.0000       2.121096        57.7180 
 385   0.0000       2.126825        57.8738 
 386   0.0000       2.132795        58.0363 
 387   0.0000       2.142095        58.2894 
 388   0.0000       2.145979        58.3951 
 389   0.0000       2.157704        58.7141 
 390   0.0000       2.165607        58.9291 
 391   0.0000       2.177738        59.2593 
 392   0.0000       2.181159        59.3524 
 393   0.0000       2.190065        59.5947 
 394   0.0000       2.203734        59.9666 
 395   0.0000       2.208952        60.1086 
 396   0.0000       2.213734        60.2388 
 397   0.0000       2.217925        60.3528 
 398   0.0000       2.221602        60.4529 
 399   0.0000       2.222080        60.4659 
 400   0.0000       2.226362        60.5824 
 401   0.0000       2.240313        60.9620 
 402   0.0000       2.253214        61.3131 
 403   0.0000       2.260294        61.5057 
 404   0.0000       2.262027        61.5529 
 405   0.0000       2.272487        61.8375 
 406   0.0000       2.279984        62.0415 
 407   0.0000       2.286580        62.2210 
 408   0.0000       2.297071        62.5065 
 409   0.0000       2.301231        62.6197 
 410   0.0000       2.316972        63.0480 
 411   0.0000       2.327325        63.3297 
 412   0.0000       2.334851        63.5345 
 413   0.0000       2.335942        63.5642 
 414   0.0000       2.353952        64.0543 
 415   0.0000       2.362931        64.2986 
 416   0.0000       2.368482        64.4497 
 417   0.0000       2.386707        64.9456 
 418   0.0000       2.393741        65.1370 
 419   0.0000       2.404653        65.4339 
 420   0.0000       2.420350        65.8611 
 421   0.0000       2.423296        65.9412 
 422   0.0000       2.432266        66.1853 
 423   0.0000       2.439691        66.3874 
 424   0.0000       2.446761        66.5798 
 425   0.0000       2.473138        67.2975 
 426   0.0000       2.482775        67.5598 
 427   0.0000       2.495081        67.8946 
 428   0.0000       2.506349        68.2012 
 429   0.0000       2.516265        68.4711 
 430   0.0000       2.529424        68.8291 
 431   0.0000       2.532678        68.9177 
 432   0.0000       2.548153        69.3388 
 433   0.0000       2.557073        69.5815 
 434   0.0000       2.576379        70.1068 
 435   0.0000       2.597494        70.6814 
 436   0.0000       2.615104        71.1606 
 437   0.0000       2.617646        71.2298 
 438   0.0000       2.627655        71.5021 
 439   0.0000       2.641732        71.8852 
 440   0.0000       2.650566        72.1256 
 441   0.0000       2.656428        72.2851 
 442   0.0000       2.667626        72.5898 
 443   0.0000       2.682194        72.9862 
 444   0.0000       2.685800        73.0843 
 445   0.0000       2.695169        73.3393 
 446   0.0000       2.710834        73.7655 
 447   0.0000       2.717933        73.9587 
 448   0.0000       2.732187        74.3466 
 449   0.0000       2.743103        74.6436 
 450   0.0000       2.755377        74.9776 
 451   0.0000       2.771626        75.4198 
 452   0.0000       2.776936        75.5643 
 453   0.0000       2.801325        76.2279 
 454   0.0000       2.810219        76.4700 
 455   0.0000       2.816360        76.6371 
 456   0.0000       2.822065        76.7923 
 457   0.0000       2.835047        77.1456 
 458   0.0000       2.857216        77.7488 
 459   0.0000       2.864142        77.9373 
 460   0.0000       2.871794        78.1455 
 461   0.0000       2.881960        78.4221 
 462   0.0000       2.888503        78.6002 
 463   0.0000       2.908000        79.1307 
 464   0.0000       2.924390        79.5767 
 465   0.0000       2.947952        80.2178 
 466   0.0000       2.952574        80.3436 
 467   0.0000       2.990871        81.3857 
 468   0.0000       3.008083        81.8541 
 469   0.0000       3.012347        81.9701 
 470   0.0000       3.037620        82.6578 
 471   0.0000       3.080773        83.8321 
 472   0.0000       3.095009        84.2195 
 473   0.0000       3.105738        84.5114 
 474   0.0000       3.137172        85.3668 
 475   0.0000       3.153212        85.8033 
 476   0.0000       3.174642        86.3864 
 477   0.0000       3.192015        86.8591 
 478   0.0000       3.218552        87.5813 
 479   0.0000       3.226875        87.8077 
 480   0.0000       3.240735        88.1849 
 481   0.0000       3.257840        88.6503 
 482   0.0000       3.265090        88.8476 
 483   0.0000       3.285964        89.4156 
 484   0.0000       3.299361        89.7802 
 485   0.0000       3.300757        89.8182 
 486   0.0000       3.318072        90.2893 
 487   0.0000       3.335993        90.7770 
 488   0.0000       3.339904        90.8834 
 489   0.0000       3.350046        91.1594 
 490   0.0000       3.363762        91.5326 
 491   0.0000       3.390377        92.2569 
 492   0.0000       3.402027        92.5739 
 493   0.0000       3.427049        93.2547 
 494   0.0000       3.440203        93.6127 
 495   0.0000       3.450544        93.8941 
 496   0.0000       3.464683        94.2788 
 497   0.0000       3.475007        94.5597 
 498   0.0000       3.517793        95.7240 
 499   0.0000       3.524242        95.8995 
 500   0.0000       3.594343        97.8071 
 501   0.0000       3.622909        98.5844 
 502   0.0000       3.684597       100.2630 
 503   0.0000       3.712911       101.0334 
 504   0.0000       3.737797       101.7106 
 505   0.0000       3.764313       102.4322 
 506   0.0000       3.909517       106.3834 
 507   0.0000       3.953399       107.5774 
 508   0.0000       3.996712       108.7561 
 509   0.0000       4.273025       116.2749 

                    ********************************
                    * MULLIKEN POPULATION ANALYSIS *
                    ********************************

-----------------------
MULLIKEN ATOMIC CHARGES
-----------------------
   0 C :    0.388762
   1 C :    0.244744
   2 C :    0.238914
   3 C :    0.076557
   4 H :    0.015488
   5 H :    0.239023
   6 C :    0.386669
   7 C :    0.640080
   8 N :   -0.095910
   9 N :    0.238900
  10 H :   -0.121241
  11 H :   -0.349045
  12 H :   -0.742134
  13 H :    0.015442
  14 H :   -0.213642
  15 F :   -0.414407
  16 O :   -0.365506
  17 C :    0.256130
  18 H :    0.109626
  19 H :   -0.149173
  20 C :   -0.242999
  21 C :   -0.237846
  22 H :    0.019943
  23 H :   -0.064874
  24 H :    0.100221
  25 H :   -0.011913
  26 C :    0.438646
  27 H :   -0.009163
  28 H :    0.017093
  29 C :   -0.165320
  30 H :    0.124379
  31 H :   -0.886237
  32 C :    0.508012
  33 H :   -0.284484
  34 H :    0.199375
  35 H :   -0.291609
  36 H :    0.215782
  37 H :    0.091940
  38 H :    0.079775
Sum of atomic charges:   -0.0000000

--------------------------------
MULLIKEN REDUCED ORBITAL CHARGES
--------------------------------
  0 C s       :     2.645896  s :     2.645896
      pz      :     0.993441  p :     2.739049
      px      :     0.891956
      py      :     0.853652
      dz2     :     0.063671  d :     0.226294
      dxz     :     0.039612
      dyz     :     0.013059
      dx2y2   :     0.031355
      dxy     :     0.078596
  1 C s       :     2.311677  s :     2.311677
      pz      :     1.136649  p :     2.818417
      px      :     0.920131
      py      :     0.761637
      dz2     :     0.043981  d :     0.625162
      dxz     :     0.080430
      dyz     :     0.168702
      dx2y2   :     0.242629
      dxy     :     0.089419
  2 C s       :     2.717083  s :     2.717083
      pz      :     0.923766  p :     2.730462
      px      :     0.855225
      py      :     0.951472
      dz2     :     0.006175  d :     0.313540
      dxz     :     0.038668
      dyz     :     0.148169
      dx2y2   :     0.085792
      dxy     :     0.034735
  3 C s       :     2.711845  s :     2.711845
      pz      :     1.017691  p :     2.935677
      px      :     0.890537
      py      :     1.027449
      dz2     :     0.123171  d :     0.275921
      dxz     :     0.041139
      dyz     :     0.016354
      dx2y2   :     0.019237
      dxy     :     0.076020
  4 H s       :     0.971515  s :     0.971515
      pz      :    -0.023230  p :     0.012997
      px      :     0.001300
      py      :     0.034927
  5 H s       :     0.752949  s :     0.752949
      pz      :     0.000116  p :     0.008028
      px      :     0.009339
      py      :    -0.001427
  6 C s       :     3.044170  s :     3.044170
      pz      :     0.651650  p :     2.149227
      px      :     0.790400
      py      :     0.707177
      dz2     :     0.045867  d :     0.419933
      dxz     :     0.066607
      dyz     :     0.131549
      dx2y2   :     0.117494
      dxy     :     0.058416
  7 C s       :     2.931347  s :     2.931347
      pz      :     0.856571  p :     2.480387
      px      :     0.814219
      py      :     0.809597
      dz2     :    -0.006384  d :    -0.051814
      dxz     :     0.058418
      dyz     :    -0.058814
      dx2y2   :    -0.108136
      dxy     :     0.063102
  8 N s       :     3.365011  s :     3.365011
      pz      :     1.442849  p :     3.736585
      px      :     1.088386
      py      :     1.205351
      dz2     :    -0.002016  d :    -0.005686
      dxz     :    -0.002245
      dyz     :     0.000375
      dx2y2   :    -0.012334
      dxy     :     0.010533
  9 N s       :     3.065454  s :     3.065454
      pz      :     1.408326  p :     3.690076
      px      :     1.065676
      py      :     1.216074
      dz2     :     0.014098  d :     0.005571
      dxz     :     0.004986
      dyz     :    -0.011808
      dx2y2   :     0.004100
      dxy     :    -0.005805
 10 H s       :     1.098967  s :     1.098967
      pz      :     0.040792  p :     0.022274
      px      :    -0.001867
      py      :    -0.016650
 11 H s       :     1.254628  s :     1.254628
      pz      :     0.050725  p :     0.094417
      px      :    -0.109063
      py      :     0.152755
 12 H s       :     1.588719  s :     1.588719
      pz      :     0.026298  p :     0.153414
      px      :    -0.093216
      py      :     0.220332
 13 H s       :     0.971423  s :     0.971423
      pz      :    -0.002985  p :     0.013135
      px      :    -0.003677
      py      :     0.019796
 14 H s       :     1.162573  s :     1.162573
      pz      :     0.039829  p :     0.051069
      px      :    -0.003230
      py      :     0.014470
 15 F s       :     4.064911  s :     4.064911
      pz      :     1.580071  p :     5.310029
      px      :     1.831004
      py      :     1.898954
      dz2     :     0.012032  d :     0.039466
      dxz     :     0.003820
      dyz     :     0.012742
      dx2y2   :     0.002481
      dxy     :     0.008391
 16 O s       :     3.784028  s :     3.784028
      pz      :     1.719496  p :     4.562860
      px      :     1.302910
      py      :     1.540454
      dz2     :     0.005031  d :     0.018617
      dxz     :     0.006625
      dyz     :    -0.007516
      dx2y2   :     0.008341
      dxy     :     0.006137
 17 C s       :     2.780725  s :     2.780725
      pz      :     0.948791  p :     2.747744
      px      :     0.848599
      py      :     0.950355
      dz2     :     0.207319  d :     0.215401
      dxz     :    -0.051462
      dyz     :     0.027288
      dx2y2   :    -0.007147
      dxy     :     0.039402
 18 H s       :     0.917757  s :     0.917757
      pz      :    -0.003316  p :    -0.027383
      px      :    -0.026656
      py      :     0.002589
 19 H s       :     1.133790  s :     1.133790
      pz      :     0.010040  p :     0.015383
      px      :     0.016733
      py      :    -0.011391
 20 C s       :     2.899079  s :     2.899079
      pz      :     0.935713  p :     2.816485
      px      :     0.961261
      py      :     0.919512
      dz2     :     0.029030  d :     0.527434
      dxz     :     0.072801
      dyz     :     0.178449
      dx2y2   :     0.013980
      dxy     :     0.233175
 21 C s       :     2.914359  s :     2.914359
      pz      :     0.941224  p :     2.830914
      px      :     0.977732
      py      :     0.911958
      dz2     :     0.055159  d :     0.492573
      dxz     :     0.041719
      dyz     :     0.106456
      dx2y2   :     0.088878
      dxy     :     0.200360
 22 H s       :     0.944064  s :     0.944064
      pz      :     0.012526  p :     0.035992
      px      :     0.013551
      py      :     0.009915
 23 H s       :     1.049634  s :     1.049634
      pz      :     0.025371  p :     0.015240
      px      :    -0.005597
      py      :    -0.004534
 24 H s       :     0.935040  s :     0.935040
      pz      :    -0.002269  p :    -0.035261
      px      :    -0.001418
      py      :    -0.031575
 25 H s       :     1.013814  s :     1.013814
      pz      :     0.009780  p :    -0.001901
      px      :    -0.013543
      py      :     0.001863
 26 C s       :     2.163186  s :     2.163186
      pz      :     0.907610  p :     2.792765
      px      :     0.991010
      py      :     0.894144
      dz2     :     0.019520  d :     0.605403
      dxz     :     0.143506
      dyz     :     0.214770
      dx2y2   :     0.108091
      dxy     :     0.119516
 27 H s       :     1.015568  s :     1.015568
      pz      :    -0.009950  p :    -0.006405
      px      :    -0.009481
      py      :     0.013026
 28 H s       :     0.942725  s :     0.942725
      pz      :     0.035129  p :     0.040181
      px      :    -0.009429
      py      :     0.014481
 29 C s       :     2.916019  s :     2.916019
      pz      :     0.955534  p :     2.746340
      px      :     0.947533
      py      :     0.843273
      dz2     :     0.155190  d :     0.502960
      dxz     :     0.118774
      dyz     :     0.065756
      dx2y2   :     0.027320
      dxy     :     0.135919
 30 H s       :     0.852910  s :     0.852910
      pz      :     0.012828  p :     0.022711
      px      :     0.025231
      py      :    -0.015348
 31 H s       :     1.589922  s :     1.589922
      pz      :    -0.036814  p :     0.296315
      px      :     0.257127
      py      :     0.076001
 32 C s       :     2.543886  s :     2.543886
      pz      :     0.849954  p :     2.734490
      px      :     0.983055
      py      :     0.901481
      dz2     :     0.035071  d :     0.213612
      dxz     :    -0.010663
      dyz     :     0.097464
      dx2y2   :     0.086923
      dxy     :     0.004816
 33 H s       :     1.277542  s :     1.277542
      pz      :    -0.015311  p :     0.006941
      px      :    -0.014055
      py      :     0.036308
 34 H s       :     0.793157  s :     0.793157
      pz      :     0.000276  p :     0.007469
      px      :     0.027276
      py      :    -0.020084
 35 H s       :     1.256103  s :     1.256103
      pz      :     0.006160  p :     0.035506
      px      :     0.018562
      py      :     0.010784
 36 H s       :     0.776629  s :     0.776629
      pz      :     0.029504  p :     0.007588
      px      :    -0.025746
      py      :     0.003830
 37 H s       :     0.930892  s :     0.930892
      pz      :    -0.030107  p :    -0.022831
      px      :     0.035421
      py      :    -0.028145
 38 H s       :     0.928690  s :     0.928690
      pz      :     0.025448  p :    -0.008465
      px      :    -0.027127
      py      :    -0.006786


                     *******************************
                     * LOEWDIN POPULATION ANALYSIS *
                     *******************************

----------------------
LOEWDIN ATOMIC CHARGES
----------------------
   0 C :   -0.071899
   1 C :   -0.040472
   2 C :   -0.034095
   3 C :    0.036685
   4 H :    0.056536
   5 H :    0.036726
   6 C :    0.042778
   7 C :   -0.201456
   8 N :    0.184115
   9 N :    0.189116
  10 H :    0.003437
  11 H :   -0.118585
  12 H :   -0.103835
  13 H :   -0.010323
  14 H :   -0.004746
  15 F :   -0.019491
  16 O :   -0.093879
  17 C :   -0.049240
  18 H :    0.031261
  19 H :    0.011862
  20 C :   -0.059444
  21 C :   -0.049016
  22 H :    0.027025
  23 H :    0.045094
  24 H :    0.041227
  25 H :    0.042062
  26 C :   -0.054904
  27 H :    0.029321
  28 H :    0.032066
  29 C :   -0.062246
  30 H :    0.046854
  31 H :   -0.014083
  32 C :   -0.054916
  33 H :    0.036843
  34 H :    0.030061
  35 H :    0.036861
  36 H :    0.014485
  37 H :    0.034871
  38 H :    0.033341

-------------------------------
LOEWDIN REDUCED ORBITAL CHARGES
-------------------------------
  0 C s       :     2.664789  s :     2.664789
      pz      :     0.901382  p :     2.714479
      px      :     0.907577
      py      :     0.905520
      dz2     :     0.113185  d :     0.692631
      dxz     :     0.152928
      dyz     :     0.165015
      dx2y2   :     0.098160
      dxy     :     0.163344
  1 C s       :     2.661147  s :     2.661147
      pz      :     0.926396  p :     2.748683
      px      :     0.904318
      py      :     0.917970
      dz2     :     0.065211  d :     0.630642
      dxz     :     0.147794
      dyz     :     0.086938
      dx2y2   :     0.177105
      dxy     :     0.153594
  2 C s       :     2.671604  s :     2.671604
      pz      :     0.876788  p :     2.708686
      px      :     0.924915
      py      :     0.906984
      dz2     :     0.100272  d :     0.653804
      dxz     :     0.123179
      dyz     :     0.183992
      dx2y2   :     0.132802
      dxy     :     0.113559
  3 C s       :     2.670937  s :     2.670937
      pz      :     0.891094  p :     2.715365
      px      :     0.916029
      py      :     0.908242
      dz2     :     0.148500  d :     0.577013
      dxz     :     0.131626
      dyz     :     0.118219
      dx2y2   :     0.071826
      dxy     :     0.106842
  4 H s       :     0.699869  s :     0.699869
      pz      :     0.061335  p :     0.243594
      px      :     0.084704
      py      :     0.097555
  5 H s       :     0.704395  s :     0.704395
      pz      :     0.067894  p :     0.258879
      px      :     0.116739
      py      :     0.074246
  6 C s       :     2.634614  s :     2.634614
      pz      :     0.747042  p :     2.259918
      px      :     0.846001
      py      :     0.666875
      dz2     :     0.221366  d :     1.062691
      dxz     :     0.291054
      dyz     :     0.169052
      dx2y2   :     0.190149
      dxy     :     0.191070
  7 C s       :     2.625348  s :     2.625348
      pz      :     0.755878  p :     2.504253
      px      :     0.914249
      py      :     0.834126
      dz2     :     0.170979  d :     1.071855
      dxz     :     0.197698
      dyz     :     0.189065
      dx2y2   :     0.255397
      dxy     :     0.258715
  8 N s       :     2.920773  s :     2.920773
      pz      :     1.289441  p :     3.559597
      px      :     1.107138
      py      :     1.163019
      dz2     :     0.042974  d :     0.335515
      dxz     :     0.030551
      dyz     :     0.081229
      dx2y2   :     0.084136
      dxy     :     0.096625
  9 N s       :     2.900238  s :     2.900238
      pz      :     1.279421  p :     3.551595
      px      :     1.109698
      py      :     1.162476
      dz2     :     0.056916  d :     0.359051
      dxz     :     0.070711
      dyz     :     0.065549
      dx2y2   :     0.094332
      dxy     :     0.071543
 10 H s       :     0.658879  s :     0.658879
      pz      :     0.108842  p :     0.337683
      px      :     0.129746
      py      :     0.099096
 11 H s       :     0.593098  s :     0.593098
      pz      :     0.183115  p :     0.525487
      px      :     0.120437
      py      :     0.221934
 12 H s       :     0.683893  s :     0.683893
      pz      :     0.138488  p :     0.419942
      px      :     0.096242
      py      :     0.185211
 13 H s       :     0.637854  s :     0.637854
      pz      :     0.146784  p :     0.372469
      px      :     0.129673
      py      :     0.096011
 14 H s       :     0.659799  s :     0.659799
      pz      :     0.107653  p :     0.344947
      px      :     0.148169
      py      :     0.089125
 15 F s       :     3.564161  s :     3.564161
      pz      :     1.628176  p :     5.184184
      px      :     1.764131
      py      :     1.791877
      dz2     :     0.066680  d :     0.271146
      dxz     :     0.062767
      dyz     :     0.073961
      dx2y2   :     0.038447
      dxy     :     0.029292
 16 O s       :     3.397376  s :     3.397376
      pz      :     1.609677  p :     4.443268
      px      :     1.398429
      py      :     1.435161
      dz2     :     0.031058  d :     0.253235
      dxz     :     0.061478
      dyz     :     0.033402
      dx2y2   :     0.056625
      dxy     :     0.070672
 17 C s       :     2.680275  s :     2.680275
      pz      :     0.896434  p :     2.705498
      px      :     0.903150
      py      :     0.905914
      dz2     :     0.133552  d :     0.663467
      dxz     :     0.133681
      dyz     :     0.149953
      dx2y2   :     0.084993
      dxy     :     0.161287
 18 H s       :     0.714610  s :     0.714610
      pz      :     0.073795  p :     0.254130
      px      :     0.090896
      py      :     0.089439
 19 H s       :     0.717026  s :     0.717026
      pz      :     0.088320  p :     0.271111
      px      :     0.088761
      py      :     0.094030
 20 C s       :     2.670723  s :     2.670723
      pz      :     0.911268  p :     2.706976
      px      :     0.894082
      py      :     0.901627
      dz2     :     0.096044  d :     0.681744
      dxz     :     0.123462
      dyz     :     0.144340
      dx2y2   :     0.142365
      dxy     :     0.175533
 21 C s       :     2.669665  s :     2.669665
      pz      :     0.914806  p :     2.706826
      px      :     0.901436
      py      :     0.890584
      dz2     :     0.094466  d :     0.672525
      dxz     :     0.117771
      dyz     :     0.134761
      dx2y2   :     0.152636
      dxy     :     0.172890
 22 H s       :     0.693383  s :     0.693383
      pz      :     0.102724  p :     0.279592
      px      :     0.085070
      py      :     0.091797
 23 H s       :     0.714152  s :     0.714152
      pz      :     0.107935  p :     0.240753
      px      :     0.061440
      py      :     0.071378
 24 H s       :     0.707281  s :     0.707281
      pz      :     0.073120  p :     0.251492
      px      :     0.116017
      py      :     0.062355
 25 H s       :     0.714674  s :     0.714674
      pz      :     0.080012  p :     0.243264
      px      :     0.086610
      py      :     0.076641
 26 C s       :     2.665787  s :     2.665787
      pz      :     0.884904  p :     2.694106
      px      :     0.905713
      py      :     0.903488
      dz2     :     0.158777  d :     0.695012
      dxz     :     0.151089
      dyz     :     0.161877
      dx2y2   :     0.088335
      dxy     :     0.134935
 27 H s       :     0.726609  s :     0.726609
      pz      :     0.070309  p :     0.244070
      px      :     0.089415
      py      :     0.084345
 28 H s       :     0.709140  s :     0.709140
      pz      :     0.084432  p :     0.258794
      px      :     0.098471
      py      :     0.075891
 29 C s       :     2.674881  s :     2.674881
      pz      :     0.895052  p :     2.713249
      px      :     0.914455
      py      :     0.903743
      dz2     :     0.168564  d :     0.674115
      dxz     :     0.150888
      dyz     :     0.134504
      dx2y2   :     0.086995
      dxy     :     0.133165
 30 H s       :     0.713954  s :     0.713954
      pz      :     0.069867  p :     0.239193
      px      :     0.102450
      py      :     0.066876
 31 H s       :     0.688161  s :     0.688161
      pz      :     0.083101  p :     0.325922
      px      :     0.118308
      py      :     0.124514
 32 C s       :     2.676317  s :     2.676317
      pz      :     0.910827  p :     2.717600
      px      :     0.911307
      py      :     0.895466
      dz2     :     0.121022  d :     0.660999
      dxz     :     0.077441
      dyz     :     0.157984
      dx2y2   :     0.177666
      dxy     :     0.126886
 33 H s       :     0.720368  s :     0.720368
      pz      :     0.060906  p :     0.242789
      px      :     0.082311
      py      :     0.099571
 34 H s       :     0.708130  s :     0.708130
      pz      :     0.073726  p :     0.261809
      px      :     0.111791
      py      :     0.076293
 35 H s       :     0.718817  s :     0.718817
      pz      :     0.086948  p :     0.244322
      px      :     0.076319
      py      :     0.081056
 36 H s       :     0.700943  s :     0.700943
      pz      :     0.123155  p :     0.284572
      px      :     0.072820
      py      :     0.088596
 37 H s       :     0.717981  s :     0.717981
      pz      :     0.078213  p :     0.247148
      px      :     0.107621
      py      :     0.061314
 38 H s       :     0.719265  s :     0.719265
      pz      :     0.112078  p :     0.247394
      px      :     0.067270
      py      :     0.068046


                      *****************************
                      * MAYER POPULATION ANALYSIS *
                      *****************************

  NA   - Mulliken gross atomic population
  ZA   - Total nuclear charge
  QA   - Mulliken gross atomic charge
  VA   - Mayer's total valence
  BVA  - Mayer's bonded valence
  FA   - Mayer's free valence

  ATOM       NA         ZA         QA         VA         BVA        FA
  0 C      5.6112     6.0000     0.3888     4.5331     4.5331    -0.0000
  1 C      5.7553     6.0000     0.2447     3.5410     3.5410    -0.0000
  2 C      5.7611     6.0000     0.2389     4.4684     4.4684     0.0000
  3 C      5.9234     6.0000     0.0766     4.3413     4.3413    -0.0000
  4 H      0.9845     1.0000     0.0155     1.1094     1.1094     0.0000
  5 H      0.7610     1.0000     0.2390     0.9996     0.9996    -0.0000
  6 C      5.6133     6.0000     0.3867     4.4003     4.4003    -0.0000
  7 C      5.3599     6.0000     0.6401     3.6407     3.6407     0.0000
  8 N      7.0959     7.0000    -0.0959     3.4650     3.4650     0.0000
  9 N      6.7611     7.0000     0.2389     3.5430     3.5430    -0.0000
 10 H      1.1212     1.0000    -0.1212     0.8540     0.8540    -0.0000
 11 H      1.3490     1.0000    -0.3490     0.9003     0.9003    -0.0000
 12 H      1.7421     1.0000    -0.7421     1.0771     1.0771     0.0000
 13 H      0.9846     1.0000     0.0154     0.8680     0.8680    -0.0000
 14 H      1.2136     1.0000    -0.2136     0.9661     0.9661     0.0000
 15 F      9.4144     9.0000    -0.4144     1.1814     1.1814     0.0000
 16 O      8.3655     8.0000    -0.3655     1.9311     1.9311    -0.0000
 17 C      5.7439     6.0000     0.2561     4.3514     4.3514     0.0000
 18 H      0.8904     1.0000     0.1096     0.8958     0.8958     0.0000
 19 H      1.1492     1.0000    -0.1492     1.0371     1.0371     0.0000
 20 C      6.2430     6.0000    -0.2430     5.0780     5.0780     0.0000
 21 C      6.2378     6.0000    -0.2378     5.0025     5.0025    -0.0000
 22 H      0.9801     1.0000     0.0199     1.2167     1.2167    -0.0000
 23 H      1.0649     1.0000    -0.0649     1.0844     1.0844    -0.0000
 24 H      0.8998     1.0000     0.1002     0.9516     0.9516     0.0000
 25 H      1.0119     1.0000    -0.0119     1.0291     1.0291    -0.0000
 26 C      5.5614     6.0000     0.4386     4.1790     4.1790     0.0000
 27 H      1.0092     1.0000    -0.0092     0.9786     0.9786     0.0000
 28 H      0.9829     1.0000     0.0171     1.0503     1.0503     0.0000
 29 C      6.1653     6.0000    -0.1653     5.0345     5.0345    -0.0000
 30 H      0.8756     1.0000     0.1244     1.0256     1.0256     0.0000
 31 H      1.8862     1.0000    -0.8862     1.1195     1.1195     0.0000
 32 C      5.4920     6.0000     0.5080     3.8598     3.8598    -0.0000
 33 H      1.2845     1.0000    -0.2845     1.0990     1.0990    -0.0000
 34 H      0.8006     1.0000     0.1994     0.9938     0.9938    -0.0000
 35 H      1.2916     1.0000    -0.2916     1.1898     1.1898     0.0000
 36 H      0.7842     1.0000     0.2158     1.0278     1.0278    -0.0000
 37 H      0.9081     1.0000     0.0919     0.9394     0.9394    -0.0000
 38 H      0.9202     1.0000     0.0798     0.9954     0.9954    -0.0000

  Mayer bond orders larger than 0.100000
B(  0-C ,  1-C ) :   0.9566 B(  0-C , 12-H ) :   0.6558 B(  0-C , 17-C ) :   1.0572 
B(  0-C , 18-H ) :   0.7419 B(  0-C , 19-H ) :   0.7147 B(  1-C ,  7-C ) :   1.8883 
B(  1-C ,  8-N ) :   0.2373 B(  1-C ,  9-N ) :   0.2234 B(  1-C , 12-H ) :  -0.1227 
B(  1-C , 18-H ) :   0.2555 B(  1-C , 19-H ) :   0.2605 B(  2-C ,  3-C ) :   1.1777 
B(  2-C ,  4-H ) :   0.1371 B(  2-C , 21-C ) :   1.2634 B(  2-C , 24-H ) :   0.7424 
B(  2-C , 25-H ) :   0.8679 B(  3-C ,  4-H ) :   0.7114 B(  3-C ,  5-H ) :   0.7831 
B(  3-C ,  6-C ) :   1.2944 B(  3-C , 25-H ) :   0.1226 B(  4-H ,  6-C ) :   0.2442 
B(  5-H ,  6-C ) :   0.1637 B(  6-C , 15-F ) :   0.8017 B(  6-C , 16-O ) :   1.7346 
B(  7-C ,  8-N ) :   0.8260 B(  7-C ,  9-N ) :   0.7983 B(  7-C , 11-H ) :  -0.2535 
B(  7-C , 12-H ) :   0.4138 B(  7-C , 14-H ) :  -0.1461 B(  8-N , 13-H ) :   1.0140 
B(  8-N , 14-H ) :   1.2802 B(  9-N , 10-H ) :   1.1410 B(  9-N , 11-H ) :   1.2435 
B( 10-H , 11-H ) :  -0.1901 B( 12-H , 15-F ) :   0.2013 B( 13-H , 14-H ) :  -0.1763 
B( 15-F , 31-H ) :   0.1084 B( 17-C , 26-C ) :   1.1623 B( 17-C , 27-H ) :   0.8796 
B( 17-C , 28-H ) :   0.9271 B( 17-C , 30-H ) :   0.1442 B( 20-C , 21-C ) :   1.2245 
B( 20-C , 23-H ) :   0.1375 B( 20-C , 32-C ) :   1.1693 B( 20-C , 35-H ) :   1.1030 
B( 20-C , 36-H ) :   0.8341 B( 20-C , 37-H ) :   0.2284 B( 20-C , 38-H ) :   0.1131 
B( 21-C , 22-H ) :   0.9718 B( 21-C , 23-H ) :   0.9175 B( 21-C , 24-H ) :   0.2041 
B( 21-C , 25-H ) :   0.1502 B( 21-C , 35-H ) :   0.1069 B( 26-C , 27-H ) :   0.1594 
B( 26-C , 28-H ) :   0.1054 B( 26-C , 29-C ) :   1.2653 B( 26-C , 30-H ) :   0.6661 
B( 26-C , 31-H ) :   0.3540 B( 26-C , 33-H ) :   0.1298 B( 26-C , 34-H ) :   0.1021 
B( 29-C , 31-H ) :   0.1237 B( 29-C , 32-C ) :   1.1271 B( 29-C , 33-H ) :   1.0881 
B( 29-C , 34-H ) :   0.8501 B( 29-C , 38-H ) :   0.2013 B( 30-H , 31-H ) :   0.2579 
B( 32-C , 37-H ) :   0.7267 B( 32-C , 38-H ) :   0.7295 

-------
TIMINGS
-------

Total SCF time: 0 days 0 hours 5 min 9 sec 

Total time                  ....     309.276 sec
Sum of individual times     ....     306.728 sec  ( 99.2%)

Fock matrix formation       ....     299.010 sec  ( 96.7%)
  Split-RI-J                ....      15.727 sec  (  5.3% of F)
  Chain of spheres X        ....     253.937 sec  ( 84.9% of F)
  XC integration            ....      28.898 sec  (  9.7% of F)
    Basis function eval.    ....       8.043 sec  ( 27.8% of XC)
    Density eval.           ....      10.039 sec  ( 34.7% of XC)
    XC-Functional eval.     ....       0.978 sec  (  3.4% of XC)
    XC-Potential eval.      ....       8.993 sec  ( 31.1% of XC)
Diagonalization             ....       0.680 sec  (  0.2%)
Density matrix formation    ....       0.047 sec  (  0.0%)
Population analysis         ....       0.118 sec  (  0.0%)
Initial guess               ....       1.333 sec  (  0.4%)
Orbital Transformation      ....       0.000 sec  (  0.0%)
Orbital Orthonormalization  ....       0.000 sec  (  0.0%)
DIIS solution               ....       0.366 sec  (  0.1%)
SOSCF solution              ....       0.509 sec  (  0.2%)
Grid generation             ....       4.665 sec  (  1.5%)

Maximum memory used throughout the entire SCF-calculation: 98.2 MB

-------------------------   --------------------
FINAL SINGLE POINT ENERGY      -752.798377524501
-------------------------   --------------------


                            ***************************************
                            *     ORCA property calculations      *
                            ***************************************

                                    ---------------------
                                    Active property flags
                                    ---------------------
   (+) Dipole Moment


------------------------------------------------------------------------------
                       ORCA ELECTRIC PROPERTIES CALCULATION
------------------------------------------------------------------------------

Dipole Moment Calculation                       ... on
Quadrupole Moment Calculation                   ... off
Polarizability Calculation                      ... off
GBWName                                         ... 28Oct_SVPD_LC_PBE_D1_wb97.gbw
Electron density file                           ... 28Oct_SVPD_LC_PBE_D1_wb97.scfp
The origin for moment calculation is the CENTER OF MASS  = ( 7.973141, -0.506753  1.000356)

-------------
DIPOLE MOMENT
-------------
                                X             Y             Z
Electronic contribution:     11.23363       8.97379       5.88987
Nuclear contribution   :    -11.48003      -8.36271      -6.78621
                        -----------------------------------------
Total Dipole Moment    :     -0.24640       0.61108      -0.89634
                        -----------------------------------------
Magnitude (a.u.)       :      1.11246
Magnitude (Debye)      :      2.82764



--------------------
Rotational spectrum 
--------------------
 
Rotational constants in cm-1:     0.020055     0.013548     0.009477 
Rotational constants in MHz :   601.234832   406.162779   284.104317 

 Dipole components along the rotational axes: 
x,y,z [a.u.] :     1.060848     0.292623    -0.162905 
x,y,z [Debye]:     2.696460     0.743788    -0.414072 

 

Timings for individual modules:

Sum of individual times         ...      310.582 sec (=   5.176 min)
GTO integral calculation        ...        0.943 sec (=   0.016 min)   0.3 %
SCF iterations                  ...      309.639 sec (=   5.161 min)  99.7 %
                             ****ORCA TERMINATED NORMALLY****
TOTAL RUN TIME: 0 days 0 hours 5 minutes 11 seconds 575 msec
