
                                        *****************
                                        * O   R   C   A *
                                        *****************

                                            #,                                       
                                            ###                                      
                                            ####                                     
                                            #####                                    
                                            ######                                   
                                           ########,                                 
                                     ,,################,,,,,                         
                               ,,#################################,,                 
                          ,,##########################################,,             
                       ,#########################################, ''#####,          
                    ,#############################################,,   '####,        
                  ,##################################################,,,,####,       
                ,###########''''           ''''###############################       
              ,#####''   ,,,,##########,,,,          '''####'''          '####       
            ,##' ,,,,###########################,,,                        '##       
           ' ,,###''''                  '''############,,,                           
         ,,##''                                '''############,,,,        ,,,,,,###''
      ,#''                                            '''#######################'''  
     '                                                          ''''####''''         
             ,#######,   #######,   ,#######,      ##                                
            ,#'     '#,  ##    ##  ,#'     '#,    #''#        ######   ,####,        
            ##       ##  ##   ,#'  ##            #'  '#       #        #'  '#        
            ##       ##  #######   ##           ,######,      #####,   #    #        
            '#,     ,#'  ##    ##  '#,     ,#' ,#      #,         ##   #,  ,#        
             '#######'   ##     ##  '#######'  #'      '#     #####' # '####'        



                  #######################################################
                  #                        -***-                        #
                  #          Department of theory and spectroscopy      #
                  #    Directorship and core code : Frank Neese         #
                  #        Max Planck Institute fuer Kohlenforschung    #
                  #                Kaiser Wilhelm Platz 1               #
                  #                 D-45470 Muelheim/Ruhr               #
                  #                      Germany                        #
                  #                                                     #
                  #                  All rights reserved                #
                  #                        -***-                        #
                  #######################################################


                         Program Version 5.0.0 -  RELEASE  -
                                (SVN: $Rev: 19529$)
                ($Date: 2021-06-28 11:36:33 +0200 (Mo, 28 Jun 2021) $)


 With contributions from (in alphabetic order):
   Daniel Aravena         : Magnetic Suceptibility
   Michael Atanasov       : Ab Initio Ligand Field Theory (pilot matlab implementation)
   Alexander A. Auer      : GIAO ZORA, VPT2 properties, NMR spectrum
   Ute Becker             : Parallelization
   Giovanni Bistoni       : ED, misc. LED, open-shell LED, HFLD
   Martin Brehm           : Molecular dynamics
   Dmytro Bykov           : SCF Hessian
   Vijay G. Chilkuri      : MRCI spin determinant printing, contributions to CSF-ICE
   Dipayan Datta          : RHF DLPNO-CCSD density
   Achintya Kumar Dutta   : EOM-CC, STEOM-CC
   Dmitry Ganyushin       : Spin-Orbit,Spin-Spin,Magnetic field MRCI
   Miquel Garcia          : C-PCM Hessian, Gaussian charge scheme
   Yang Guo               : DLPNO-NEVPT2, F12-NEVPT2, CIM, IAO-localization
   Andreas Hansen         : Spin unrestricted coupled pair/coupled cluster methods
   Benjamin Helmich-Paris : MC-RPA, TRAH-SCF, COSX integrals
   Lee Huntington         : MR-EOM, pCC
   Robert Izsak           : Overlap fitted RIJCOSX, COSX-SCS-MP3, EOM
   Marcus Kettner         : VPT2
   Christian Kollmar      : KDIIS, OOCD, Brueckner-CCSD(T), CCSD density, CASPT2, CASPT2-K
   Simone Kossmann        : Meta GGA functionals, TD-DFT gradient, OOMP2, MP2 Hessian
   Martin Krupicka        : Initial AUTO-CI
   Lucas Lang             : DCDCAS
   Marvin Lechner         : AUTO-CI (C++ implementation), FIC-MRCC
   Dagmar Lenk            : GEPOL surface, SMD
   Dimitrios Liakos       : Extrapolation schemes; Compound Job, initial MDCI parallelization
   Dimitrios Manganas     : Further ROCIS development; embedding schemes
   Dimitrios Pantazis     : SARC Basis sets
   Anastasios Papadopoulos: AUTO-CI, single reference methods and gradients
   Taras Petrenko         : DFT Hessian,TD-DFT gradient, ASA, ECA, R-Raman, ABS, FL, XAS/XES, NRVS
   Peter Pinski           : DLPNO-MP2, DLPNO-MP2 Gradient
   Christoph Reimann      : Effective Core Potentials
   Marius Retegan         : Local ZFS, SOC
   Christoph Riplinger    : Optimizer, TS searches, QM/MM, DLPNO-CCSD(T), (RO)-DLPNO pert. Triples
   Tobias Risthaus        : Range-separated hybrids, TD-DFT gradient, RPA, STAB
   Michael Roemelt        : Original ROCIS implementation
   Masaaki Saitow         : Open-shell DLPNO-CCSD energy and density
   Barbara Sandhoefer     : DKH picture change effects
   Avijit Sen             : IP-ROCIS
   Kantharuban Sivalingam : CASSCF convergence, NEVPT2, FIC-MRCI
   Bernardo de Souza      : ESD, SOC TD-DFT
   Georgi Stoychev        : AutoAux, RI-MP2 NMR
   Willem Van den Heuvel  : Paramagnetic NMR
   Boris Wezisla          : Elementary symmetry handling
   Frank Wennmohs         : Technical directorship


 We gratefully acknowledge several colleagues who have allowed us to
 interface, adapt or use parts of their codes:
   Stefan Grimme, W. Hujo, H. Kruse, P. Pracht,  : VdW corrections, initial TS optimization,
                  C. Bannwarth, S. Ehlert          DFT functionals, gCP, sTDA/sTD-DF
   Ed Valeev, F. Pavosevic, A. Kumar             : LibInt (2-el integral package), F12 methods
   Garnet Chan, S. Sharma, J. Yang, R. Olivares  : DMRG
   Ulf Ekstrom                                   : XCFun DFT Library
   Mihaly Kallay                                 : mrcc  (arbitrary order and MRCC methods)
   Jiri Pittner, Ondrej Demel                    : Mk-CCSD
   Frank Weinhold                                : gennbo (NPA and NBO analysis)
   Christopher J. Cramer and Donald G. Truhlar   : smd solvation model
   Lars Goerigk                                  : TD-DFT with DH, B97 family of functionals
   V. Asgeirsson, H. Jonsson                     : NEB implementation
   FAccTs GmbH                                   : IRC, NEB, NEB-TS, DLPNO-Multilevel, CI-OPT
                                                   MM, QMMM, 2- and 3-layer-ONIOM, Crystal-QMMM,
                                                   LR-CPCM, SF, NACMEs, symmetry and pop. for TD-DFT,
                                                   nearIR, NL-DFT gradient (VV10), updates on ESD,
                                                   ML-optimized integration grids
   S Lehtola, MJT Oliveira, MAL Marques          : LibXC Library
   Liviu Ungur et al                             : ANISO software


 Your calculation uses the libint2 library for the computation of 2-el integrals
 For citations please refer to: http://libint.valeyev.net

 Your ORCA version has been built with support for libXC version: 5.1.0
 For citations please refer to: https://tddft.org/programs/libxc/

 This ORCA versions uses:
   CBLAS   interface :  Fast vector & matrix operations
   LAPACKE interface :  Fast linear algebra routines
   SCALAPACK package :  Parallel linear algebra routines
   Shared memory     :  Shared parallel matrices
   BLAS/LAPACK       :  OpenBLAS 0.3.15  USE64BITINT DYNAMIC_ARCH NO_AFFINITY Haswell SINGLE_THREADED
        Core in use  :  Haswell
   Copyright (c) 2011-2014, The OpenBLAS Project


Your calculation utilizes the atom-pairwise dispersion correction
with the Becke-Johnson damping scheme (D3BJ)
Cite in your paper:
S.Grimme, S.Ehrlich, L.Goerigk, J Comput Chem, (2011), 32, 1456–1465 
S.Grimme, J.Antony, S.Ehrlich and H.Krieg, J.Chem.Phys., 132, (2010), 154104 
   

================================================================================

----- Orbital basis set information -----
Your calculation utilizes the basis: def2-SVPD
   F. Weigend and R. Ahlrichs, Phys. Chem. Chem. Phys. 7, 3297 (2005).
   D. Rappoport and F. Furche, J. Chem. Phys. 133 134105 (2010).

----- AuxJ basis set information -----
Your calculation utilizes the auxiliary basis: def2/J
   F. Weigend, Phys. Chem. Chem. Phys. 8, 1057 (2006).

================================================================================
                                        WARNINGS
                       Please study these warnings very carefully!
================================================================================


INFO   : the flag for use of the SHARK integral package has been found!

================================================================================
                                       INPUT FILE
================================================================================
NAME = 14Feb_SVPD_PBE0_C3_wt_wb97_typ1_neg.com
|  1> !PBE0 D3BJ RIJCOSX def2-SVPD def2/J TightSCF 
|  2> *xyz 0 1 
|  3> C         -5.57236       -5.80780       -0.81644
|  4> S         -6.90318       -4.61903       -0.52846
|  5> O         -8.11485       -5.25093       -0.95701
|  6> O         -6.53271       -3.42684       -1.31485
|  7> F         -6.86563       -4.29496        0.91412
|  8> C         -3.82708       -4.66110        0.78617
|  9> C         -4.45780       -5.94187        0.22919
| 10> H         -5.17735       -5.54257       -1.79771
| 11> H         -6.07420       -6.76889       -0.92127
| 12> H         -3.68106       -6.56224       -0.22988
| 13> H         -4.84394       -6.51273        1.07581
| 14> H         -3.43706       -4.07576       -0.02016
| 15> H         -3.03403       -4.91680        1.45744
| 16> H         -4.56975       -4.09647        1.31013
| 17> *
| 18> %MaxCore 64000
| 19> 
| 20> %pal nprocs 4
| 21> end  
| 22> 
| 23> %scf
| 24>   MaxIter 150
| 25> end
| 26> 
| 27>                          ****END OF INPUT****
================================================================================

                       ****************************
                       * Single Point Calculation *
                       ****************************

---------------------------------
CARTESIAN COORDINATES (ANGSTROEM)
---------------------------------
  C     -5.572360   -5.807800   -0.816440
  S     -6.903180   -4.619030   -0.528460
  O     -8.114850   -5.250930   -0.957010
  O     -6.532710   -3.426840   -1.314850
  F     -6.865630   -4.294960    0.914120
  C     -3.827080   -4.661100    0.786170
  C     -4.457800   -5.941870    0.229190
  H     -5.177350   -5.542570   -1.797710
  H     -6.074200   -6.768890   -0.921270
  H     -3.681060   -6.562240   -0.229880
  H     -4.843940   -6.512730    1.075810
  H     -3.437060   -4.075760   -0.020160
  H     -3.034030   -4.916800    1.457440
  H     -4.569750   -4.096470    1.310130

----------------------------
CARTESIAN COORDINATES (A.U.)
----------------------------
  NO LB      ZA    FRAG     MASS         X           Y           Z
   0 C     6.0000    0    12.011  -10.530234  -10.975151   -1.542848
   1 S    16.0000    0    32.060  -13.045120   -8.728702   -0.998645
   2 O     8.0000    0    15.999  -15.334844   -9.922820   -1.808487
   3 O     8.0000    0    15.999  -12.345033   -6.475789   -2.484706
   4 F     9.0000    0    18.998  -12.974160   -8.116298    1.727436
   5 C     6.0000    0    12.011   -7.232133   -8.808202    1.485646
   6 C     6.0000    0    12.011   -8.424021  -11.228507    0.433106
   7 H     1.0000    0     1.008   -9.783774  -10.473939   -3.397180
   8 H     1.0000    0     1.008  -11.478574  -12.791348   -1.740948
   9 H     1.0000    0     1.008   -6.956195  -12.400836   -0.434410
  10 H     1.0000    0     1.008   -9.153720  -12.307276    2.032986
  11 H     1.0000    0     1.008   -6.495102   -7.702070   -0.038097
  12 H     1.0000    0     1.008   -5.733486   -9.291405    2.754162
  13 H     1.0000    0     1.008   -8.635576   -7.741206    2.475787

--------------------------------
INTERNAL COORDINATES (ANGSTROEM)
--------------------------------
 C      0   0   0     0.000000000000     0.00000000     0.00000000
 S      1   0   0     1.807536573821     0.00000000     0.00000000
 O      2   1   0     1.432165109685   106.56208582     0.00000000
 O      2   1   3     1.475457301686   105.16666730   238.45210070
 F      2   1   3     1.479009271032   106.30854122   122.18883319
 C      1   2   3     2.632352936158    96.00747268   198.21487669
 C      6   1   2     1.532451053607    30.88143637   140.58651855
 H      1   2   3     1.090536870491   104.48290251    94.52506513
 H      1   2   3     1.089278064867   104.85705990   341.96808105
 H      7   6   1     1.094956268259   109.50803404   121.78951800
 H      7   6   1     1.091673331908   107.50268017   236.81120509
 H      6   1   2     1.070003077052    91.21391708   268.47640176
 H      6   1   2     1.070006638017   140.28565014   145.29438000
 H      6   1   2     1.069999928692    93.88826818    18.08681420

---------------------------
INTERNAL COORDINATES (A.U.)
---------------------------
 C      0   0   0     0.000000000000     0.00000000     0.00000000
 S      1   0   0     3.415749101568     0.00000000     0.00000000
 O      2   1   0     2.706399835863   106.56208582     0.00000000
 O      2   1   3     2.788210222482   105.16666730   238.45210070
 F      2   1   3     2.794922471782   106.30854122   122.18883319
 C      1   2   3     4.974426137162    96.00747268   198.21487669
 C      6   1   2     2.895912804956    30.88143637   140.58651855
 H      1   2   3     2.060816024171   104.48290251    94.52506513
 H      1   2   3     2.058437226286   104.85705990   341.96808105
 H      7   6   1     2.069167475630   109.50803404   121.78951800
 H      7   6   1     2.062963625012   107.50268017   236.81120509
 H      6   1   2     2.022012778081    91.21391708   268.47640176
 H      6   1   2     2.022019507330   140.28565014   145.29438000
 H      6   1   2     2.022006828542    93.88826818    18.08681420

---------------------
BASIS SET INFORMATION
---------------------
There are 5 groups of distinct atoms

 Group   1 Type C   : 8s4p2d contracted to 4s2p2d pattern {5111/31/11}
 Group   2 Type S   : 11s8p2d contracted to 5s4p2d pattern {53111/5111/11}
 Group   3 Type O   : 8s5p2d contracted to 4s3p2d pattern {5111/311/11}
 Group   4 Type F   : 8s5p2d contracted to 4s3p2d pattern {5111/311/11}
 Group   5 Type H   : 4s2p contracted to 2s2p pattern {31/11}

Atom   0C    basis set group =>   1
Atom   1S    basis set group =>   2
Atom   2O    basis set group =>   3
Atom   3O    basis set group =>   3
Atom   4F    basis set group =>   4
Atom   5C    basis set group =>   1
Atom   6C    basis set group =>   1
Atom   7H    basis set group =>   5
Atom   8H    basis set group =>   5
Atom   9H    basis set group =>   5
Atom  10H    basis set group =>   5
Atom  11H    basis set group =>   5
Atom  12H    basis set group =>   5
Atom  13H    basis set group =>   5
---------------------------------
AUXILIARY/J BASIS SET INFORMATION
---------------------------------
There are 5 groups of distinct atoms

 Group   1 Type C   : 12s5p4d2f1g contracted to 6s4p3d1f1g pattern {711111/2111/211/2/1}
 Group   2 Type S   : 14s5p5d2f1g contracted to 8s4p3d1f1g pattern {71111111/2111/311/2/1}
 Group   3 Type O   : 12s5p4d2f1g contracted to 6s4p3d1f1g pattern {711111/2111/211/2/1}
 Group   4 Type F   : 12s5p4d2f1g contracted to 6s4p3d1f1g pattern {711111/2111/211/2/1}
 Group   5 Type H   : 5s2p1d contracted to 3s1p1d pattern {311/2/1}

Atom   0C    basis set group =>   1
Atom   1S    basis set group =>   2
Atom   2O    basis set group =>   3
Atom   3O    basis set group =>   3
Atom   4F    basis set group =>   4
Atom   5C    basis set group =>   1
Atom   6C    basis set group =>   1
Atom   7H    basis set group =>   5
Atom   8H    basis set group =>   5
Atom   9H    basis set group =>   5
Atom  10H    basis set group =>   5
Atom  11H    basis set group =>   5
Atom  12H    basis set group =>   5
Atom  13H    basis set group =>   5


           ************************************************************
           *        Program running with 4 parallel MPI-processes     *
           *              working on a common directory               *
           ************************************************************
------------------------------------------------------------------------------
                           ORCA GTO INTEGRAL CALCULATION
                           -- RI-GTO INTEGRALS CHOSEN --
------------------------------------------------------------------------------
------------------------------------------------------------------------------
                   ___                                                        
                  /   \      - P O W E R E D   B Y -                         
                 /     \                                                     
                 |  |  |   _    _      __       _____    __    __             
                 |  |  |  | |  | |    /  \     |  _  \  |  |  /  |          
                  \  \/   | |  | |   /    \    | | | |  |  | /  /          
                 / \  \   | |__| |  /  /\  \   | |_| |  |  |/  /          
                |  |  |   |  __  | /  /__\  \  |    /   |      \           
                |  |  |   | |  | | |   __   |  |    \   |  |\   \          
                \     /   | |  | | |  |  |  |  | |\  \  |  | \   \       
                 \___/    |_|  |_| |__|  |__|  |_| \__\ |__|  \__/        
                                                                              
                      - O R C A' S   B I G   F R I E N D -                    
                                      &                                       
                       - I N T E G R A L  F E E D E R -                       
                                                                              
 v1 FN, 2020, v2 2021                                                         
------------------------------------------------------------------------------


Reading SHARK input file 14Feb_SVPD_PBE0_C3_wt_wb97_typ1_neg.SHARKINP.tmp ... ok
----------------------
SHARK INTEGRAL PACKAGE
----------------------

Number of atoms                             ...     14
Number of basis functions                   ...    212
Number of shells                            ...     90
Maximum angular momentum                    ...      2
Integral batch strategy                     ... SHARK/LIBINT Hybrid
RI-J (if used) integral strategy            ... SPLIT-RIJ (Revised 2003 algorithm where possible)
Printlevel                                  ...      1
Contraction scheme used                     ... SEGMENTED contraction
Coulomb Range Separation                    ... NOT USED
Exchange Range Separation                   ... NOT USED
Finite Nucleus Model                        ... NOT USED
Auxiliary Coulomb fitting basis             ... AVAILABLE
   # of basis functions in Aux-J            ...    422
   # of shells in Aux-J                     ...    142
   Maximum angular momentum in Aux-J        ...      4
Auxiliary J/K fitting basis                 ... NOT available
Auxiliary Correlation fitting basis         ... NOT available
Auxiliary 'external' fitting basis          ... NOT available
Integral threshold                          ...     2.500000e-11
Primitive cut-off                           ...     2.500000e-12
Primitive pair pre-selection threshold      ...     2.500000e-12

Calculating pre-screening integrals         ... done (  0.0 sec) Dimension = 90
Organizing shell pair data                  ... done (  0.0 sec)
Shell pair information
Total number of shell pairs                 ...      4095
Shell pairs after pre-screening             ...      3991
Total number of primitive shell pairs       ...     11447
Primitive shell pairs kept                  ...      9068
          la=0 lb=0:    909 shell pairs
          la=1 lb=0:   1381 shell pairs
          la=1 lb=1:    553 shell pairs
          la=2 lb=0:    589 shell pairs
          la=2 lb=1:    455 shell pairs
          la=2 lb=2:    104 shell pairs

Calculating one electron integrals          ... done (  0.0 sec)
Calculating RI/J V-Matrix + Cholesky decomp.... done (  0.0 sec)
Calculating Nuclear repulsion               ... done (  0.0 sec) ENN=    446.735091734023 Eh

SHARK setup successfully completed in   0.2 seconds

Maximum memory used throughout the entire GTOINT-calculation: 8.9 MB


           ************************************************************
           *        Program running with 4 parallel MPI-processes     *
           *              working on a common directory               *
           ************************************************************
-------------------------------------------------------------------------------
                                 ORCA SCF
-------------------------------------------------------------------------------

------------
SCF SETTINGS
------------
Hamiltonian:
 Density Functional     Method          .... DFT(GTOs)
 Exchange Functional    Exchange        .... PBE
   PBE kappa parameter   XKappa         ....  0.804000
   PBE mue parameter    XMuePBE         ....  0.219520
 Correlation Functional Correlation     .... PBE
   PBE beta parameter  CBetaPBE         ....  0.066725
 LDA part of GGA corr.  LDAOpt          .... PW91-LDA
 Gradients option       PostSCFGGA      .... off
 Hybrid DFT is turned on
   Fraction HF Exchange ScalHFX         ....  0.250000
   Scaling of DF-GGA-X  ScalDFX         ....  0.750000
   Scaling of DF-GGA-C  ScalDFC         ....  1.000000
   Scaling of DF-LDA-C  ScalLDAC        ....  1.000000
   Perturbative correction              ....  0.000000
   Density functional embedding theory  .... OFF
   NL short-range parameter             ....  6.900000
 RI-approximation to the Coulomb term is turned on
   Number of AuxJ basis functions       .... 422
   RIJ-COSX (HFX calculated with COS-X)).... on


General Settings:
 Integral files         IntName         .... 14Feb_SVPD_PBE0_C3_wt_wb97_typ1_neg
 Hartree-Fock type      HFTyp           .... RHF
 Total Charge           Charge          ....    0
 Multiplicity           Mult            ....    1
 Number of Electrons    NEL             ....   66
 Basis Dimension        Dim             ....  212
 Nuclear Repulsion      ENuc            ....    446.7350917340 Eh

Convergence Acceleration:
 DIIS                   CNVDIIS         .... on
   Start iteration      DIISMaxIt       ....    12
   Startup error        DIISStart       ....  0.200000
   # of expansion vecs  DIISMaxEq       ....     5
   Bias factor          DIISBfac        ....   1.050
   Max. coefficient     DIISMaxC        ....  10.000
 Trust-Rad. Augm. Hess. CNVTRAH         .... auto
   Auto Start mean grad. ratio tolernc. ....  1.125000
   Auto Start start iteration           ....    20
   Auto Start num. interpolation iter.  ....    10
   Max. Number of Micro iterations      ....    16
   Max. Number of Macro iterations      .... Maxiter - #DIIS iter
   Number of Davidson start vectors     ....     2
   Converg. threshold I  (grad. norm)   ....   1.000e-05
   Converg. threshold II (energy diff.) ....   1.000e-08
   Grad. Scal. Fac. for Micro threshold ....   0.100
   Minimum threshold for Micro iter.    ....   0.010
   NR start threshold (gradient norm)   ....   0.001
   Initial trust radius                 ....   0.400
   Minimum AH scaling param. (alpha)    ....   1.000
   Maximum AH scaling param. (alpha)    .... 1000.000
   Orbital update algorithm             .... Taylor
   White noise on init. David. guess    .... on
   Maximum white noise                  ....   0.010
   Quad. conv. algorithm                .... NR
 SOSCF                  CNVSOSCF        .... on
   Start iteration      SOSCFMaxIt      ....   150
   Startup grad/error   SOSCFStart      ....  0.003300
 Level Shifting         CNVShift        .... on
   Level shift para.    LevelShift      ....    0.2500
   Turn off err/grad.   ShiftErr        ....    0.0010
 Zerner damping         CNVZerner       .... off
 Static damping         CNVDamp         .... on
   Fraction old density DampFac         ....    0.7000
   Max. Damping (<1)    DampMax         ....    0.9800
   Min. Damping (>=0)   DampMin         ....    0.0000
   Turn off err/grad.   DampErr         ....    0.1000
 Fernandez-Rico         CNVRico         .... off

SCF Procedure:
 Maximum # iterations   MaxIter         ....   150
 SCF integral mode      SCFMode         .... Direct
   Integral package                     .... SHARK and LIBINT hybrid scheme
 Reset frequency        DirectResetFreq ....    20
 Integral Threshold     Thresh          ....  2.500e-11 Eh
 Primitive CutOff       TCut            ....  2.500e-12 Eh

Convergence Tolerance:
 Convergence Check Mode ConvCheckMode   .... Total+1el-Energy
 Convergence forced     ConvForced      .... 0
 Energy Change          TolE            ....  1.000e-08 Eh
 1-El. energy change                    ....  1.000e-05 Eh
 Orbital Gradient       TolG            ....  1.000e-05
 Orbital Rotation angle TolX            ....  1.000e-05
 DIIS Error             TolErr          ....  5.000e-07


Diagonalization of the overlap matrix:
Smallest eigenvalue                        ... 1.816e-04
Time for diagonalization                   ...    0.012 sec
Threshold for overlap eigenvalues          ... 1.000e-08
Number of eigenvalues below threshold      ... 0
Time for construction of square roots      ...    0.007 sec
Total time needed                          ...    0.020 sec

Time for model grid setup =    0.103 sec

------------------------------
INITIAL GUESS: MODEL POTENTIAL
------------------------------
Loading Hartree-Fock densities                     ... done
Calculating cut-offs                               ... done
Initializing the effective Hamiltonian             ... done
Setting up the integral package (SHARK)            ... done
Starting the Coulomb interaction                   ... done (   0.1 sec)
Reading the grid                                   ... done
Mapping shells                                     ... done
Starting the XC term evaluation                    ... done (   0.1 sec)
  promolecular density results
     # of electrons  =     65.998597641
     EX              =    -68.753300395
     EC              =     -2.325168861
     EX+EC           =    -71.078469256
Transforming the Hamiltonian                       ... done (   0.0 sec)
Diagonalizing the Hamiltonian                      ... done (   0.0 sec)
Back transforming the eigenvectors                 ... done (   0.0 sec)
Now organizing SCF variables                       ... done
                      ------------------
                      INITIAL GUESS DONE (   0.3 sec)
                      ------------------
-------------------
DFT GRID GENERATION
-------------------

General Integration Accuracy     IntAcc      ... 4.388
Radial Grid Type                 RadialGrid  ... OptM3 with GC (2021)
Angular Grid (max. ang.)         AngularGrid ... 4 (Lebedev-302)
Angular grid pruning method      GridPruning ... 4 (adaptive)
Weight generation scheme         WeightScheme... Becke
Basis function cutoff            BFCut       ... 1.0000e-11
Integration weight cutoff        WCut        ... 1.0000e-14
Angular grids for H and He will be reduced by one unit
Partially contracted basis set               ... off
Rotationally invariant grid construction     ... off

Total number of grid points                  ...    68690
Total number of batches                      ...     1079
Average number of points per batch           ...       63
Average number of grid points per atom       ...     4906
Time for grid setup =    0.467 sec

--------------------
COSX GRID GENERATION
--------------------

GRIDX 1
-------
General Integration Accuracy     IntAcc      ... 3.816
Radial Grid Type                 RadialGrid  ... OptM3 with GC (2021)
Angular Grid (max. ang.)         AngularGrid ... 1 (Lebedev-50)
Angular grid pruning method      GridPruning ... 4 (adaptive)
Weight generation scheme         WeightScheme... Becke
Basis function cutoff            BFCut       ... 1.0000e-11
Integration weight cutoff        WCut        ... 1.0000e-14
Angular grids for H and He will be reduced by one unit
Partially contracted basis set               ... on
Rotationally invariant grid construction     ... off

Total number of grid points                  ...     8512
Total number of batches                      ...      142
Average number of points per batch           ...       59
Average number of grid points per atom       ...      608
UseSFitting                                  ... on

GRIDX 2
-------
General Integration Accuracy     IntAcc      ... 4.020
Radial Grid Type                 RadialGrid  ... OptM3 with GC (2021)
Angular Grid (max. ang.)         AngularGrid ... 2 (Lebedev-110)
Angular grid pruning method      GridPruning ... 4 (adaptive)
Weight generation scheme         WeightScheme... Becke
Basis function cutoff            BFCut       ... 1.0000e-11
Integration weight cutoff        WCut        ... 1.0000e-14
Angular grids for H and He will be reduced by one unit
Partially contracted basis set               ... on
Rotationally invariant grid construction     ... off

Total number of grid points                  ...    20044
Total number of batches                      ...      320
Average number of points per batch           ...       62
Average number of grid points per atom       ...     1432
UseSFitting                                  ... on

GRIDX 3
-------
General Integration Accuracy     IntAcc      ... 4.338
Radial Grid Type                 RadialGrid  ... OptM3 with GC (2021)
Angular Grid (max. ang.)         AngularGrid ... 3 (Lebedev-194)
Angular grid pruning method      GridPruning ... 4 (adaptive)
Weight generation scheme         WeightScheme... Becke
Basis function cutoff            BFCut       ... 1.0000e-11
Integration weight cutoff        WCut        ... 1.0000e-14
Angular grids for H and He will be reduced by one unit
Partially contracted basis set               ... on
Rotationally invariant grid construction     ... off

Total number of grid points                  ...    45620
Total number of batches                      ...      721
Average number of points per batch           ...       63
Average number of grid points per atom       ...     3259
UseSFitting                                  ... on

Time for X-Grid setup             =    0.426 sec

--------------
SCF ITERATIONS
--------------
ITER       Energy         Delta-E        Max-DP      RMS-DP      [F,P]     Damp
               ***  Starting incremental Fock matrix formation  ***
  0   -765.6816102363   0.000000000000 0.20902923  0.00332530  0.2832768 0.7000
  1   -765.8542958027  -0.172685566485 0.09058177  0.00190969  0.0996771 0.7000
                               ***Turning on DIIS***
  2   -765.9090189462  -0.054723143440 0.14079629  0.00278167  0.0365582 0.0000
  3   -766.0134592569  -0.104440310755 0.07075236  0.00119250  0.0484897 0.0000
  4   -766.0299701152  -0.016510858235 0.01290378  0.00031775  0.0153694 0.0000
                      *** Initiating the SOSCF procedure ***
                           *** Shutting down DIIS ***
                      *** Re-Reading the Fockian *** 
                      *** Removing any level shift *** 
ITER      Energy       Delta-E        Grad      Rot      Max-DP    RMS-DP
  5   -766.03146860  -0.0014984857  0.000560  0.000560  0.002530  0.000097
               *** Restarting incremental Fock matrix formation ***
  6   -766.03154578  -0.0000771786  0.000252  0.000516  0.001900  0.000063
  7   -766.03154400   0.0000017778  0.000426  0.000428  0.001059  0.000025
  8   -766.03155252  -0.0000085210  0.000071  0.000153  0.000869  0.000014
  9   -766.03155219   0.0000003337  0.000091  0.000079  0.000486  0.000008
 10   -766.03155289  -0.0000007002  0.000010  0.000022  0.000088  0.000002
 11   -766.03155288   0.0000000122  0.000018  0.000015  0.000055  0.000001
                  ***Gradient check signals convergence***
              ***Rediagonalizing the Fockian in SOSCF/NRSCF***

               *****************************************************
               *                     SUCCESS                       *
               *           SCF CONVERGED AFTER  12 CYCLES          *
               *****************************************************

Old exchange energy                            =    -17.397661622 Eh
New exchange energy                            =    -17.397691234 Eh
Exchange energy change after final integration =     -0.000029611 Eh
Total energy after final integration           =   -766.031582508 Eh
Final COS-X integration done in                =     3.269 sec

----------------
TOTAL SCF ENERGY
----------------

Total Energy       :         -766.03158251 Eh          -20844.77909 eV

Components:
Nuclear Repulsion  :          446.73509173 Eh           12156.27986 eV
Electronic Energy  :        -1212.76667424 Eh          -33001.05895 eV
One Electron Energy:        -1939.61168959 Eh          -52779.51733 eV
Two Electron Energy:          726.84501535 Eh           19778.45839 eV
Max COSX asymmetry :            0.00000781 Eh               0.00021 eV

Virial components:
Potential Energy   :        -1528.15195735 Eh          -41583.12880 eV
Kinetic Energy     :          762.12037484 Eh           20738.34972 eV
Virial Ratio       :            2.00513201


DFT components:
N(Alpha)           :       33.000135826569 electrons
N(Beta)            :       33.000135826569 electrons
N(Total)           :       66.000271653139 electrons
E(X)               :      -52.051897329312 Eh       
E(C)               :       -2.330890898499 Eh       
E(XC)              :      -54.382788227811 Eh       
DFET-embed. en.    :        0.000000000000 Eh       

---------------
SCF CONVERGENCE
---------------

  Last Energy change         ...   -1.9101e-08  Tolerance :   1.0000e-08
  Last MAX-Density change    ...    2.1624e-15  Tolerance :   1.0000e-07
  Last RMS-Density change    ...    3.7634e-17  Tolerance :   5.0000e-09
  Last Orbital Gradient      ...    1.6548e-06  Tolerance :   1.0000e-05
  Last Orbital Rotation      ...    1.9873e-06  Tolerance :   1.0000e-05

             **** THE GBW FILE WAS UPDATED (14Feb_SVPD_PBE0_C3_wt_wb97_typ1_neg.gbw) ****
             **** DENSITY 14Feb_SVPD_PBE0_C3_wt_wb97_typ1_neg.scfp WAS UPDATED ****
             **** ENERGY FILE WAS UPDATED (14Feb_SVPD_PBE0_C3_wt_wb97_typ1_neg.en.tmp) ****
             **** THE GBW FILE WAS UPDATED (14Feb_SVPD_PBE0_C3_wt_wb97_typ1_neg.gbw) ****
             **** DENSITY 14Feb_SVPD_PBE0_C3_wt_wb97_typ1_neg.scfp WAS UPDATED ****
----------------
ORBITAL ENERGIES
----------------

  NO   OCC          E(Eh)            E(eV) 
   0   2.0000     -89.294768     -2429.8342 
   1   2.0000     -24.886574      -677.1981 
   2   2.0000     -19.236046      -523.4394 
   3   2.0000     -19.220985      -523.0296 
   4   2.0000     -10.297403      -280.2066 
   5   2.0000     -10.271514      -279.5021 
   6   2.0000     -10.239275      -278.6248 
   7   2.0000      -8.254924      -224.6279 
   8   2.0000      -6.201092      -168.7403 
   9   2.0000      -6.194954      -168.5733 
  10   2.0000      -6.193671      -168.5384 
  11   2.0000      -1.379474       -37.5374 
  12   2.0000      -1.142508       -31.0892 
  13   2.0000      -1.038292       -28.2534 
  14   2.0000      -0.854431       -23.2502 
  15   2.0000      -0.773704       -21.0535 
  16   2.0000      -0.724075       -19.7031 
  17   2.0000      -0.660255       -17.9664 
  18   2.0000      -0.597441       -16.2572 
  19   2.0000      -0.588770       -16.0212 
  20   2.0000      -0.561081       -15.2678 
  21   2.0000      -0.514074       -13.9887 
  22   2.0000      -0.492123       -13.3914 
  23   2.0000      -0.487740       -13.2721 
  24   2.0000      -0.467980       -12.7344 
  25   2.0000      -0.450023       -12.2458 
  26   2.0000      -0.411968       -11.2102 
  27   2.0000      -0.402099       -10.9417 
  28   2.0000      -0.396420       -10.7871 
  29   2.0000      -0.378615       -10.3026 
  30   2.0000      -0.350180        -9.5289 
  31   2.0000      -0.337978        -9.1969 
  32   2.0000      -0.327247        -8.9048 
  33   0.0000      -0.002922        -0.0795 
  34   0.0000       0.031051         0.8449 
  35   0.0000       0.037429         1.0185 
  36   0.0000       0.041019         1.1162 
  37   0.0000       0.047116         1.2821 
  38   0.0000       0.060127         1.6361 
  39   0.0000       0.075340         2.0501 
  40   0.0000       0.078829         2.1450 
  41   0.0000       0.082751         2.2518 
  42   0.0000       0.092703         2.5226 
  43   0.0000       0.105105         2.8601 
  44   0.0000       0.111537         3.0351 
  45   0.0000       0.121164         3.2970 
  46   0.0000       0.129924         3.5354 
  47   0.0000       0.131061         3.5663 
  48   0.0000       0.142309         3.8724 
  49   0.0000       0.154403         4.2015 
  50   0.0000       0.161939         4.4066 
  51   0.0000       0.165199         4.4953 
  52   0.0000       0.177606         4.8329 
  53   0.0000       0.185985         5.0609 
  54   0.0000       0.195003         5.3063 
  55   0.0000       0.203635         5.5412 
  56   0.0000       0.208211         5.6657 
  57   0.0000       0.224575         6.1110 
  58   0.0000       0.230076         6.2607 
  59   0.0000       0.244197         6.6449 
  60   0.0000       0.254263         6.9188 
  61   0.0000       0.264369         7.1939 
  62   0.0000       0.264935         7.2092 
  63   0.0000       0.276395         7.5211 
  64   0.0000       0.284523         7.7423 
  65   0.0000       0.294614         8.0169 
  66   0.0000       0.300764         8.1842 
  67   0.0000       0.304482         8.2854 
  68   0.0000       0.308799         8.4029 
  69   0.0000       0.314536         8.5590 
  70   0.0000       0.326173         8.8756 
  71   0.0000       0.336582         9.1589 
  72   0.0000       0.346755         9.4357 
  73   0.0000       0.353336         9.6147 
  74   0.0000       0.358663         9.7597 
  75   0.0000       0.369700        10.0601 
  76   0.0000       0.373621        10.1668 
  77   0.0000       0.380143        10.3442 
  78   0.0000       0.385329        10.4853 
  79   0.0000       0.391015        10.6401 
  80   0.0000       0.396532        10.7902 
  81   0.0000       0.416678        11.3384 
  82   0.0000       0.419597        11.4178 
  83   0.0000       0.426841        11.6149 
  84   0.0000       0.435151        11.8411 
  85   0.0000       0.437718        11.9109 
  86   0.0000       0.450220        12.2511 
  87   0.0000       0.466884        12.7046 
  88   0.0000       0.471154        12.8207 
  89   0.0000       0.489626        13.3234 
  90   0.0000       0.490903        13.3582 
  91   0.0000       0.493737        13.4353 
  92   0.0000       0.505761        13.7624 
  93   0.0000       0.514383        13.9971 
  94   0.0000       0.519190        14.1279 
  95   0.0000       0.525151        14.2901 
  96   0.0000       0.531811        14.4713 
  97   0.0000       0.536403        14.5963 
  98   0.0000       0.548003        14.9119 
  99   0.0000       0.554947        15.1009 
 100   0.0000       0.558955        15.2099 
 101   0.0000       0.568511        15.4700 
 102   0.0000       0.590590        16.0708 
 103   0.0000       0.604822        16.4580 
 104   0.0000       0.618500        16.8302 
 105   0.0000       0.631743        17.1906 
 106   0.0000       0.637242        17.3402 
 107   0.0000       0.655379        17.8338 
 108   0.0000       0.668118        18.1804 
 109   0.0000       0.685702        18.6589 
 110   0.0000       0.701982        19.1019 
 111   0.0000       0.708430        19.2773 
 112   0.0000       0.716137        19.4871 
 113   0.0000       0.745964        20.2987 
 114   0.0000       0.751936        20.4612 
 115   0.0000       0.755596        20.5608 
 116   0.0000       0.786430        21.3999 
 117   0.0000       0.795813        21.6552 
 118   0.0000       0.804328        21.8869 
 119   0.0000       0.838084        22.8054 
 120   0.0000       0.877631        23.8816 
 121   0.0000       0.881953        23.9992 
 122   0.0000       0.930284        25.3143 
 123   0.0000       0.939901        25.5760 
 124   0.0000       0.973578        26.4924 
 125   0.0000       0.977847        26.6086 
 126   0.0000       0.987350        26.8672 
 127   0.0000       0.992901        27.0182 
 128   0.0000       1.007133        27.4055 
 129   0.0000       1.026736        27.9389 
 130   0.0000       1.034022        28.1372 
 131   0.0000       1.040645        28.3174 
 132   0.0000       1.047413        28.5016 
 133   0.0000       1.067268        29.0418 
 134   0.0000       1.080194        29.3936 
 135   0.0000       1.086937        29.5770 
 136   0.0000       1.123184        30.5634 
 137   0.0000       1.142277        31.0830 
 138   0.0000       1.156831        31.4790 
 139   0.0000       1.184701        32.2374 
 140   0.0000       1.189392        32.3650 
 141   0.0000       1.245518        33.8923 
 142   0.0000       1.255174        34.1550 
 143   0.0000       1.293156        35.1886 
 144   0.0000       1.305541        35.5256 
 145   0.0000       1.329439        36.1759 
 146   0.0000       1.368050        37.2265 
 147   0.0000       1.428773        38.8789 
 148   0.0000       1.447661        39.3929 
 149   0.0000       1.456520        39.6339 
 150   0.0000       1.513996        41.1979 
 151   0.0000       1.543873        42.0109 
 152   0.0000       1.564317        42.5672 
 153   0.0000       1.599877        43.5349 
 154   0.0000       1.621263        44.1168 
 155   0.0000       1.643356        44.7180 
 156   0.0000       1.650822        44.9211 
 157   0.0000       1.687613        45.9223 
 158   0.0000       1.696851        46.1737 
 159   0.0000       1.715480        46.6806 
 160   0.0000       1.728059        47.0229 
 161   0.0000       1.761191        47.9244 
 162   0.0000       1.774286        48.2808 
 163   0.0000       1.794230        48.8235 
 164   0.0000       1.863752        50.7153 
 165   0.0000       1.869654        50.8759 
 166   0.0000       1.897074        51.6220 
 167   0.0000       1.913415        52.0667 
 168   0.0000       1.946710        52.9727 
 169   0.0000       1.977207        53.8025 
 170   0.0000       1.987169        54.0736 
 171   0.0000       2.041333        55.5475 
 172   0.0000       2.057819        55.9961 
 173   0.0000       2.074686        56.4551 
 174   0.0000       2.087145        56.7941 
 175   0.0000       2.099806        57.1386 
 176   0.0000       2.145281        58.3761 
 177   0.0000       2.217790        60.3491 
 178   0.0000       2.223548        60.5058 
 179   0.0000       2.287995        62.2595 
 180   0.0000       2.295294        62.4581 
 181   0.0000       2.342101        63.7318 
 182   0.0000       2.413284        65.6688 
 183   0.0000       2.466570        67.1188 
 184   0.0000       2.483087        67.5682 
 185   0.0000       2.568665        69.8969 
 186   0.0000       2.583429        70.2987 
 187   0.0000       2.643280        71.9273 
 188   0.0000       2.699191        73.4487 
 189   0.0000       2.726353        74.1878 
 190   0.0000       2.840589        77.2964 
 191   0.0000       2.857244        77.7496 
 192   0.0000       2.869726        78.0892 
 193   0.0000       2.873677        78.1967 
 194   0.0000       2.901981        78.9669 
 195   0.0000       2.911186        79.2174 
 196   0.0000       2.918545        79.4176 
 197   0.0000       2.962504        80.6138 
 198   0.0000       2.998338        81.5889 
 199   0.0000       3.052694        83.0680 
 200   0.0000       3.081422        83.8498 
 201   0.0000       3.106589        84.5346 
 202   0.0000       3.155220        85.8579 
 203   0.0000       3.173448        86.3539 
 204   0.0000       3.211302        87.3840 
 205   0.0000       3.317120        90.2634 
 206   0.0000       3.330748        90.6343 
 207   0.0000       3.342735        90.9604 
 208   0.0000       3.384365        92.0932 
 209   0.0000       3.408920        92.7614 
 210   0.0000       3.580012        97.4171 
 211   0.0000       3.730710       101.5178 

                    ********************************
                    * MULLIKEN POPULATION ANALYSIS *
                    ********************************

-----------------------
MULLIKEN ATOMIC CHARGES
-----------------------
   0 C :   -0.080135
   1 S :    1.536117
   2 O :   -0.705759
   3 O :   -0.710729
   4 F :   -0.437736
   5 C :    0.623644
   6 C :   -0.405462
   7 H :    0.136403
   8 H :    0.094625
   9 H :   -0.007171
  10 H :    0.028811
  11 H :    0.006961
  12 H :    0.023625
  13 H :   -0.103195
Sum of atomic charges:   -0.0000000

--------------------------------
MULLIKEN REDUCED ORBITAL CHARGES
--------------------------------
  0 C s       :     2.812915  s :     2.812915
      pz      :     1.107035  p :     3.027871
      px      :     0.968887
      py      :     0.951950
      dz2     :     0.094126  d :     0.239349
      dxz     :     0.019124
      dyz     :     0.052681
      dx2y2   :     0.016772
      dxy     :     0.056647
  1 S s       :     5.006478  s :     5.006478
      pz      :     2.734156  p :     8.727224
      px      :     3.017003
      py      :     2.976066
      dz2     :     0.168470  d :     0.730180
      dxz     :     0.122148
      dyz     :     0.110225
      dx2y2   :     0.139280
      dxy     :     0.190058
  2 O s       :     3.953923  s :     3.953923
      pz      :     1.658066  p :     4.722833
      px      :     1.396828
      py      :     1.667940
      dz2     :     0.003364  d :     0.029003
      dxz     :     0.011177
      dyz     :     0.004753
      dx2y2   :     0.001819
      dxy     :     0.007891
  3 O s       :     3.944887  s :     3.944887
      pz      :     1.562824  p :     4.742115
      px      :     1.754411
      py      :     1.424880
      dz2     :     0.003792  d :     0.023728
      dxz     :     0.007478
      dyz     :     0.006541
      dx2y2   :     0.001408
      dxy     :     0.004508
  4 F s       :     3.957896  s :     3.957896
      pz      :     1.571012  p :     5.458895
      px      :     1.952372
      py      :     1.935510
      dz2     :     0.007638  d :     0.020945
      dxz     :     0.004555
      dyz     :     0.002197
      dx2y2   :     0.005242
      dxy     :     0.001313
  5 C s       :     2.449397  s :     2.449397
      pz      :     0.922341  p :     2.823214
      px      :     0.939399
      py      :     0.961474
      dz2     :     0.003138  d :     0.103745
      dxz     :    -0.011721
      dyz     :     0.032919
      dx2y2   :     0.052894
      dxy     :     0.026515
  6 C s       :     2.874936  s :     2.874936
      pz      :     0.969104  p :     3.010448
      px      :     0.947564
      py      :     1.093780
      dz2     :     0.083678  d :     0.520078
      dxz     :     0.093578
      dyz     :     0.123662
      dx2y2   :     0.081412
      dxy     :     0.137749
  7 H s       :     0.824002  s :     0.824002
      pz      :     0.052352  p :     0.039595
      px      :     0.001666
      py      :    -0.014423
  8 H s       :     0.866667  s :     0.866667
      pz      :    -0.011983  p :     0.038708
      px      :     0.000880
      py      :     0.049810
  9 H s       :     0.979529  s :     0.979529
      pz      :    -0.006015  p :     0.027642
      px      :     0.015132
      py      :     0.018525
 10 H s       :     0.932006  s :     0.932006
      pz      :     0.021871  p :     0.039183
      px      :     0.006449
      py      :     0.010864
 11 H s       :     0.951661  s :     0.951661
      pz      :     0.044405  p :     0.041378
      px      :    -0.009004
      py      :     0.005978
 12 H s       :     0.955710  s :     0.955710
      pz      :    -0.005175  p :     0.020665
      px      :     0.017490
      py      :     0.008350
 13 H s       :     0.990347  s :     0.990347
      pz      :     0.009997  p :     0.112847
      px      :     0.101016
      py      :     0.001834


                     *******************************
                     * LOEWDIN POPULATION ANALYSIS *
                     *******************************

----------------------
LOEWDIN ATOMIC CHARGES
----------------------
   0 C :   -0.038065
   1 S :    1.135268
   2 O :   -0.460114
   3 O :   -0.486243
   4 F :   -0.276897
   5 C :    0.134958
   6 C :   -0.078922
   7 H :    0.032846
   8 H :    0.020471
   9 H :    0.032285
  10 H :    0.027586
  11 H :   -0.003431
  12 H :   -0.008568
  13 H :   -0.031176

-------------------------------
LOEWDIN REDUCED ORBITAL CHARGES
-------------------------------
  0 C s       :     2.717759  s :     2.717759
      pz      :     0.948251  p :     2.727020
      px      :     0.884461
      py      :     0.894308
      dz2     :     0.143781  d :     0.593285
      dxz     :     0.107146
      dyz     :     0.079759
      dx2y2   :     0.115349
      dxy     :     0.147251
  1 S s       :     4.667488  s :     4.667488
      pz      :     2.711532  p :     8.381254
      px      :     2.840520
      py      :     2.829201
      dz2     :     0.418159  d :     1.815990
      dxz     :     0.295012
      dyz     :     0.329891
      dx2y2   :     0.342683
      dxy     :     0.430245
  2 O s       :     3.563319  s :     3.563319
      pz      :     1.559186  p :     4.651803
      px      :     1.495978
      py      :     1.596639
      dz2     :     0.035954  d :     0.244992
      dxz     :     0.048796
      dyz     :     0.022752
      dx2y2   :     0.065018
      dxy     :     0.072472
  3 O s       :     3.584276  s :     3.584276
      pz      :     1.525484  p :     4.668875
      px      :     1.638811
      py      :     1.504580
      dz2     :     0.046761  d :     0.233093
      dxz     :     0.020259
      dyz     :     0.060188
      dx2y2   :     0.047571
      dxy     :     0.058314
  4 F s       :     3.709312  s :     3.709312
      pz      :     1.628905  p :     5.332936
      px      :     1.858019
      py      :     1.846012
      dz2     :     0.084675  d :     0.234649
      dxz     :     0.057981
      dyz     :     0.069217
      dx2y2   :     0.010786
      dxy     :     0.011990
  5 C s       :     2.694601  s :     2.694601
      pz      :     0.933520  p :     2.769587
      px      :     0.927022
      py      :     0.909045
      dz2     :     0.035999  d :     0.400854
      dxz     :     0.081026
      dyz     :     0.104985
      dx2y2   :     0.082164
      dxy     :     0.096681
  6 C s       :     2.684550  s :     2.684550
      pz      :     0.905335  p :     2.717518
      px      :     0.894895
      py      :     0.917288
      dz2     :     0.112647  d :     0.676855
      dxz     :     0.141785
      dyz     :     0.153074
      dx2y2   :     0.111577
      dxy     :     0.157773
  7 H s       :     0.706486  s :     0.706486
      pz      :     0.113211  p :     0.260668
      px      :     0.071594
      py      :     0.075864
  8 H s       :     0.711296  s :     0.711296
      pz      :     0.067748  p :     0.268233
      px      :     0.083142
      py      :     0.117343
  9 H s       :     0.718302  s :     0.718302
      pz      :     0.075964  p :     0.249413
      px      :     0.093387
      py      :     0.080062
 10 H s       :     0.721361  s :     0.721361
      pz      :     0.100173  p :     0.251053
      px      :     0.072296
      py      :     0.078584
 11 H s       :     0.733270  s :     0.733270
      pz      :     0.109295  p :     0.270160
      px      :     0.077912
      py      :     0.082954
 12 H s       :     0.737419  s :     0.737419
      pz      :     0.096237  p :     0.271149
      px      :     0.103562
      py      :     0.071350
 13 H s       :     0.725034  s :     0.725034
      pz      :     0.088978  p :     0.306142
      px      :     0.133209
      py      :     0.083955


                      *****************************
                      * MAYER POPULATION ANALYSIS *
                      *****************************

  NA   - Mulliken gross atomic population
  ZA   - Total nuclear charge
  QA   - Mulliken gross atomic charge
  VA   - Mayer's total valence
  BVA  - Mayer's bonded valence
  FA   - Mayer's free valence

  ATOM       NA         ZA         QA         VA         BVA        FA
  0 C      6.0801     6.0000    -0.0801     4.4326     4.4326    -0.0000
  1 S     14.4639    16.0000     1.5361     4.6409     4.6409     0.0000
  2 O      8.7058     8.0000    -0.7058     1.6882     1.6882    -0.0000
  3 O      8.7107     8.0000    -0.7107     1.5913     1.5913     0.0000
  4 F      9.4377     9.0000    -0.4377     0.7562     0.7562     0.0000
  5 C      5.3764     6.0000     0.6236     3.8860     3.8860    -0.0000
  6 C      6.4055     6.0000    -0.4055     5.2200     5.2200     0.0000
  7 H      0.8636     1.0000     0.1364     1.0852     1.0852    -0.0000
  8 H      0.9054     1.0000     0.0946     1.1209     1.1209    -0.0000
  9 H      1.0072     1.0000    -0.0072     1.1192     1.1192     0.0000
 10 H      0.9712     1.0000     0.0288     1.1118     1.1118     0.0000
 11 H      0.9930     1.0000     0.0070     1.0668     1.0668     0.0000
 12 H      0.9764     1.0000     0.0236     1.0096     1.0096     0.0000
 13 H      1.1032     1.0000    -0.1032     1.2409     1.2409     0.0000

  Mayer bond orders larger than 0.100000
B(  0-C ,  1-S ) :   0.9600 B(  0-C ,  6-C ) :   1.3109 B(  0-C ,  7-H ) :   0.8978 
B(  0-C ,  8-H ) :   0.8956 B(  0-C ,  9-H ) :   0.1328 B(  0-C , 10-H ) :   0.1186 
B(  1-S ,  2-O ) :   1.5166 B(  1-S ,  3-O ) :   1.4572 B(  1-S ,  4-F ) :   0.6027 
B(  5-C ,  6-C ) :   1.3071 B(  5-C , 11-H ) :   0.8063 B(  5-C , 12-H ) :   0.7599 
B(  5-C , 13-H ) :   0.8760 B(  6-C ,  7-H ) :   0.1189 B(  6-C ,  8-H ) :   0.1293 
B(  6-C ,  9-H ) :   0.8787 B(  6-C , 10-H ) :   0.9335 B(  6-C , 11-H ) :   0.1914 
B(  6-C , 12-H ) :   0.1866 B(  6-C , 13-H ) :   0.1753 

-------
TIMINGS
-------

Total SCF time: 0 days 0 hours 0 min 22 sec 

Total time                  ....      22.444 sec
Sum of individual times     ....      22.235 sec  ( 99.1%)

Fock matrix formation       ....      20.902 sec  ( 93.1%)
  Split-RI-J                ....       1.383 sec  (  6.6% of F)
  Chain of spheres X        ....      15.672 sec  ( 75.0% of F)
  XC integration            ....       3.805 sec  ( 18.2% of F)
    Basis function eval.    ....       1.210 sec  ( 31.8% of XC)
    Density eval.           ....       0.952 sec  ( 25.0% of XC)
    XC-Functional eval.     ....       0.186 sec  (  4.9% of XC)
    XC-Potential eval.      ....       1.255 sec  ( 33.0% of XC)
Diagonalization             ....       0.058 sec  (  0.3%)
Density matrix formation    ....       0.006 sec  (  0.0%)
Population analysis         ....       0.015 sec  (  0.1%)
Initial guess               ....       0.177 sec  (  0.8%)
Orbital Transformation      ....       0.000 sec  (  0.0%)
Orbital Orthonormalization  ....       0.000 sec  (  0.0%)
DIIS solution               ....       0.033 sec  (  0.1%)
SOSCF solution              ....       0.048 sec  (  0.2%)
Grid generation             ....       0.995 sec  (  4.4%)

Maximum memory used throughout the entire SCF-calculation: 55.9 MB


-------------------------------------------------------------------------------
                          DFT DISPERSION CORRECTION                            
                                                                               
                              DFTD3 V3.1  Rev 1                                
                          USING Becke-Johnson damping                          
-------------------------------------------------------------------------------
The PBE0 functional is recognized
Active option DFTDOPT                   ...         4   

molecular C6(AA) [au] = 2097.412848 


            DFT-D V3
 parameters
 s6 scaling factor         :     1.0000 
 a1 scaling factor         :     0.4145 
 s8 scaling factor         :     1.2177 
 a2 scaling factor         :     4.8593 
 ad hoc parameters k1-k3   :    16.0000     1.3333    -4.0000 

 Edisp/kcal,au: -6.844735541881  -0.010907779236 
 E6   /kcal   :  -4.279570336 
 E8   /kcal   :  -2.565165206 
 % E8         :  37.476469182 

-------------------------   ----------------
Dispersion correction           -0.010907779
-------------------------   ----------------


-------------------------   --------------------
FINAL SINGLE POINT ENERGY      -766.042490286767
-------------------------   --------------------


                            ***************************************
                            *     ORCA property calculations      *
                            ***************************************

                                    ---------------------
                                    Active property flags
                                    ---------------------
   (+) Dipole Moment


------------------------------------------------------------------------------
                       ORCA ELECTRIC PROPERTIES CALCULATION
------------------------------------------------------------------------------

Dipole Moment Calculation                       ... on
Quadrupole Moment Calculation                   ... off
Polarizability Calculation                      ... off
GBWName                                         ... 14Feb_SVPD_PBE0_C3_wt_wb97_typ1_neg.gbw
Electron density file                           ... 14Feb_SVPD_PBE0_C3_wt_wb97_typ1_neg.scfp
The origin for moment calculation is the CENTER OF MASS  = (-11.738769, -9.054423 -0.489159)

-------------
DIPOLE MOMENT
-------------
                                X             Y             Z
Electronic contribution:    -11.14204       4.03670      -0.68161
Nuclear contribution   :     12.47562      -5.08213       1.41531
                        -----------------------------------------
Total Dipole Moment    :      1.33358      -1.04543       0.73370
                        -----------------------------------------
Magnitude (a.u.)       :      1.84653
Magnitude (Debye)      :      4.69350



--------------------
Rotational spectrum 
--------------------
 
Rotational constants in cm-1:     0.128398     0.054249     0.051014 
Rotational constants in MHz :  3849.278549  1626.338413  1529.351405 

 Dipole components along the rotational axes: 
x,y,z [a.u.] :    -1.685762     0.548341     0.516907 
x,y,z [Debye]:    -4.284866     1.393772     1.313874 

 

Timings for individual modules:

Sum of individual times         ...       23.023 sec (=   0.384 min)
GTO integral calculation        ...        0.373 sec (=   0.006 min)   1.6 %
SCF iterations                  ...       22.649 sec (=   0.377 min)  98.4 %
                             ****ORCA TERMINATED NORMALLY****
TOTAL RUN TIME: 0 days 0 hours 0 minutes 23 seconds 414 msec
