
                                        *****************
                                        * O   R   C   A *
                                        *****************

                                            #,                                       
                                            ###                                      
                                            ####                                     
                                            #####                                    
                                            ######                                   
                                           ########,                                 
                                     ,,################,,,,,                         
                               ,,#################################,,                 
                          ,,##########################################,,             
                       ,#########################################, ''#####,          
                    ,#############################################,,   '####,        
                  ,##################################################,,,,####,       
                ,###########''''           ''''###############################       
              ,#####''   ,,,,##########,,,,          '''####'''          '####       
            ,##' ,,,,###########################,,,                        '##       
           ' ,,###''''                  '''############,,,                           
         ,,##''                                '''############,,,,        ,,,,,,###''
      ,#''                                            '''#######################'''  
     '                                                          ''''####''''         
             ,#######,   #######,   ,#######,      ##                                
            ,#'     '#,  ##    ##  ,#'     '#,    #''#        ######   ,####,        
            ##       ##  ##   ,#'  ##            #'  '#       #        #'  '#        
            ##       ##  #######   ##           ,######,      #####,   #    #        
            '#,     ,#'  ##    ##  '#,     ,#' ,#      #,         ##   #,  ,#        
             '#######'   ##     ##  '#######'  #'      '#     #####' # '####'        



                  #######################################################
                  #                        -***-                        #
                  #          Department of theory and spectroscopy      #
                  #    Directorship and core code : Frank Neese         #
                  #        Max Planck Institute fuer Kohlenforschung    #
                  #                Kaiser Wilhelm Platz 1               #
                  #                 D-45470 Muelheim/Ruhr               #
                  #                      Germany                        #
                  #                                                     #
                  #                  All rights reserved                #
                  #                        -***-                        #
                  #######################################################


                         Program Version 5.0.0 -  RELEASE  -
                                (SVN: $Rev: 19529$)
                ($Date: 2021-06-28 11:36:33 +0200 (Mo, 28 Jun 2021) $)


 With contributions from (in alphabetic order):
   Daniel Aravena         : Magnetic Suceptibility
   Michael Atanasov       : Ab Initio Ligand Field Theory (pilot matlab implementation)
   Alexander A. Auer      : GIAO ZORA, VPT2 properties, NMR spectrum
   Ute Becker             : Parallelization
   Giovanni Bistoni       : ED, misc. LED, open-shell LED, HFLD
   Martin Brehm           : Molecular dynamics
   Dmytro Bykov           : SCF Hessian
   Vijay G. Chilkuri      : MRCI spin determinant printing, contributions to CSF-ICE
   Dipayan Datta          : RHF DLPNO-CCSD density
   Achintya Kumar Dutta   : EOM-CC, STEOM-CC
   Dmitry Ganyushin       : Spin-Orbit,Spin-Spin,Magnetic field MRCI
   Miquel Garcia          : C-PCM Hessian, Gaussian charge scheme
   Yang Guo               : DLPNO-NEVPT2, F12-NEVPT2, CIM, IAO-localization
   Andreas Hansen         : Spin unrestricted coupled pair/coupled cluster methods
   Benjamin Helmich-Paris : MC-RPA, TRAH-SCF, COSX integrals
   Lee Huntington         : MR-EOM, pCC
   Robert Izsak           : Overlap fitted RIJCOSX, COSX-SCS-MP3, EOM
   Marcus Kettner         : VPT2
   Christian Kollmar      : KDIIS, OOCD, Brueckner-CCSD(T), CCSD density, CASPT2, CASPT2-K
   Simone Kossmann        : Meta GGA functionals, TD-DFT gradient, OOMP2, MP2 Hessian
   Martin Krupicka        : Initial AUTO-CI
   Lucas Lang             : DCDCAS
   Marvin Lechner         : AUTO-CI (C++ implementation), FIC-MRCC
   Dagmar Lenk            : GEPOL surface, SMD
   Dimitrios Liakos       : Extrapolation schemes; Compound Job, initial MDCI parallelization
   Dimitrios Manganas     : Further ROCIS development; embedding schemes
   Dimitrios Pantazis     : SARC Basis sets
   Anastasios Papadopoulos: AUTO-CI, single reference methods and gradients
   Taras Petrenko         : DFT Hessian,TD-DFT gradient, ASA, ECA, R-Raman, ABS, FL, XAS/XES, NRVS
   Peter Pinski           : DLPNO-MP2, DLPNO-MP2 Gradient
   Christoph Reimann      : Effective Core Potentials
   Marius Retegan         : Local ZFS, SOC
   Christoph Riplinger    : Optimizer, TS searches, QM/MM, DLPNO-CCSD(T), (RO)-DLPNO pert. Triples
   Tobias Risthaus        : Range-separated hybrids, TD-DFT gradient, RPA, STAB
   Michael Roemelt        : Original ROCIS implementation
   Masaaki Saitow         : Open-shell DLPNO-CCSD energy and density
   Barbara Sandhoefer     : DKH picture change effects
   Avijit Sen             : IP-ROCIS
   Kantharuban Sivalingam : CASSCF convergence, NEVPT2, FIC-MRCI
   Bernardo de Souza      : ESD, SOC TD-DFT
   Georgi Stoychev        : AutoAux, RI-MP2 NMR
   Willem Van den Heuvel  : Paramagnetic NMR
   Boris Wezisla          : Elementary symmetry handling
   Frank Wennmohs         : Technical directorship


 We gratefully acknowledge several colleagues who have allowed us to
 interface, adapt or use parts of their codes:
   Stefan Grimme, W. Hujo, H. Kruse, P. Pracht,  : VdW corrections, initial TS optimization,
                  C. Bannwarth, S. Ehlert          DFT functionals, gCP, sTDA/sTD-DF
   Ed Valeev, F. Pavosevic, A. Kumar             : LibInt (2-el integral package), F12 methods
   Garnet Chan, S. Sharma, J. Yang, R. Olivares  : DMRG
   Ulf Ekstrom                                   : XCFun DFT Library
   Mihaly Kallay                                 : mrcc  (arbitrary order and MRCC methods)
   Jiri Pittner, Ondrej Demel                    : Mk-CCSD
   Frank Weinhold                                : gennbo (NPA and NBO analysis)
   Christopher J. Cramer and Donald G. Truhlar   : smd solvation model
   Lars Goerigk                                  : TD-DFT with DH, B97 family of functionals
   V. Asgeirsson, H. Jonsson                     : NEB implementation
   FAccTs GmbH                                   : IRC, NEB, NEB-TS, DLPNO-Multilevel, CI-OPT
                                                   MM, QMMM, 2- and 3-layer-ONIOM, Crystal-QMMM,
                                                   LR-CPCM, SF, NACMEs, symmetry and pop. for TD-DFT,
                                                   nearIR, NL-DFT gradient (VV10), updates on ESD,
                                                   ML-optimized integration grids
   S Lehtola, MJT Oliveira, MAL Marques          : LibXC Library
   Liviu Ungur et al                             : ANISO software


 Your calculation uses the libint2 library for the computation of 2-el integrals
 For citations please refer to: http://libint.valeyev.net

 Your ORCA version has been built with support for libXC version: 5.1.0
 For citations please refer to: https://tddft.org/programs/libxc/

 This ORCA versions uses:
   CBLAS   interface :  Fast vector & matrix operations
   LAPACKE interface :  Fast linear algebra routines
   SCALAPACK package :  Parallel linear algebra routines
   Shared memory     :  Shared parallel matrices
   BLAS/LAPACK       :  OpenBLAS 0.3.15  USE64BITINT DYNAMIC_ARCH NO_AFFINITY Haswell SINGLE_THREADED
        Core in use  :  Haswell
   Copyright (c) 2011-2014, The OpenBLAS Project


Your calculation utilizes the atom-pairwise dispersion correction
with the zero-damping scheme (D30)
Cite in your paper:
S.Grimme, J.Antony, S.Ehrlich and H.Krieg, J.Chem.Phys., 132, (2010), 154104 
   

XCFun DFT library Copyright 2009-2010 Ulf Ekstrom and contributors.
See http://admol.org/xcfun for more information.
This is free software; see the source code for copying conditions.
There is ABSOLUTELY NO WARRANTY; not even for MERCHANTABILITY or FITNESS FOR A PARTICULAR PURPOSE.
For details see the documentation.
Scientific users of this library should cite U. Ekstrom, L. Visscher, R. Bast, A. J. Thorvaldsen and K. Ruud;
J.Chem.Theor.Comp. 2010, DOI: 10.1021/ct100117s
XCFun Version 0.99 

================================================================================

----- Orbital basis set information -----
Your calculation utilizes the basis: def2-TZVPD
   F. Weigend and R. Ahlrichs, Phys. Chem. Chem. Phys. 7, 3297 (2005).
   D. Rappoport and F. Furche, J. Chem. Phys. 133 134105 (2010).

----- AuxJ basis set information -----
Your calculation utilizes the auxiliary basis: def2/J
   F. Weigend, Phys. Chem. Chem. Phys. 8, 1057 (2006).

================================================================================
                                        WARNINGS
                       Please study these warnings very carefully!
================================================================================


WARNING: Minnesota functionals are quite sensitive to the integration grid.
         see SE Wheeler, KN Houk, JCTC 2010, 6, 395,
             N Mardirossian, M Head-Gordon, JCTC 2016, 12, 4303.
         DEFGRID3 seems to be a minimum grid for reliable results with these functionals!
  ===> : Please increase the integration grid!


INFO   : the flag for use of the SHARK integral package has been found!

================================================================================
                                       INPUT FILE
================================================================================
NAME = TZVPD_M062X_A_wt_dlpno_neg.com
|  1> !M062X D3Zero RIJCOSX def2-TZVPD def2/J TightSCF 
|  2> *xyz -1 1 
|  3> C         -0.77894        0.17197        1.80496
|  4> C         -0.60249       -0.63071        0.49224
|  5> H          0.31389       -1.24035        0.60350
|  6> H         -0.36383        0.11332       -0.30117
|  7> O         -1.71206       -1.37684        0.20253
|  8> H         -1.65864        0.77733        1.73736
|  9> H          0.07466        0.79896        1.95712
| 10> H         -0.87474       -0.50584        2.62734
| 11> *
| 12> %MaxCore 64000
| 13> 
| 14> %pal nprocs 4 
| 15> end  
| 16> 
| 17> %scf
| 18>   MaxIter 150
| 19> end
| 20> 
| 21> 
| 22>                          ****END OF INPUT****
================================================================================

                       ****************************
                       * Single Point Calculation *
                       ****************************

---------------------------------
CARTESIAN COORDINATES (ANGSTROEM)
---------------------------------
  C     -0.778940    0.171970    1.804960
  C     -0.602490   -0.630710    0.492240
  H      0.313890   -1.240350    0.603500
  H     -0.363830    0.113320   -0.301170
  O     -1.712060   -1.376840    0.202530
  H     -1.658640    0.777330    1.737360
  H      0.074660    0.798960    1.957120
  H     -0.874740   -0.505840    2.627340

----------------------------
CARTESIAN COORDINATES (A.U.)
----------------------------
  NO LB      ZA    FRAG     MASS         X           Y           Z
   0 C     6.0000    0    12.011   -1.471983    0.324976    3.410880
   1 C     6.0000    0    12.011   -1.138541   -1.191869    0.930199
   2 H     1.0000    0     1.008    0.593166   -2.343922    1.140450
   3 H     1.0000    0     1.008   -0.687539    0.214144   -0.569129
   4 O     8.0000    0    15.999   -3.235325   -2.601851    0.382726
   5 H     1.0000    0     1.008   -3.134375    1.468941    3.283135
   6 H     1.0000    0     1.008    0.141087    1.509816    3.698421
   7 H     1.0000    0     1.008   -1.653019   -0.955899    4.964953

--------------------------------
INTERNAL COORDINATES (ANGSTROEM)
--------------------------------
 C      0   0   0     0.000000000000     0.00000000     0.00000000
 C      1   0   0     1.548761951786     0.00000000     0.00000000
 H      2   1   0     1.106251337446   107.14208476     0.00000000
 H      2   1   3     1.113570233349   106.38189140   247.86336931
 O      2   1   3     1.368132831965   111.69904673   124.39446908
 H      1   2   3     1.070001205420   109.47126364   180.00070714
 H      1   2   3     1.070000974626   109.47143415    59.99995464
 H      1   2   3     1.070006028254   109.47119049   300.00076547

---------------------------
INTERNAL COORDINATES (A.U.)
---------------------------
 C      0   0   0     0.000000000000     0.00000000     0.00000000
 C      1   0   0     2.926735935513     0.00000000     0.00000000
 H      2   1   0     2.090512063056   107.14208476     0.00000000
 H      2   1   3     2.104342771916   106.38189140   247.86336931
 O      2   1   3     2.585396367240   111.69904673   124.39446908
 H      1   2   3     2.022009241209   109.47126364   180.00070714
 H      1   2   3     2.022008805071   109.47143415    59.99995464
 H      1   2   3     2.022018355045   109.47119049   300.00076547

---------------------
BASIS SET INFORMATION
---------------------
There are 3 groups of distinct atoms

 Group   1 Type C   : 12s6p3d1f contracted to 6s3p3d1f pattern {621111/411/111/1}
 Group   2 Type H   : 5s2p contracted to 3s2p pattern {311/11}
 Group   3 Type O   : 12s7p3d1f contracted to 6s4p3d1f pattern {621111/4111/111/1}

Atom   0C    basis set group =>   1
Atom   1C    basis set group =>   1
Atom   2H    basis set group =>   2
Atom   3H    basis set group =>   2
Atom   4O    basis set group =>   3
Atom   5H    basis set group =>   2
Atom   6H    basis set group =>   2
Atom   7H    basis set group =>   2
---------------------------------
AUXILIARY/J BASIS SET INFORMATION
---------------------------------
There are 3 groups of distinct atoms

 Group   1 Type C   : 12s5p4d2f1g contracted to 6s4p3d1f1g pattern {711111/2111/211/2/1}
 Group   2 Type H   : 5s2p1d contracted to 3s1p1d pattern {311/2/1}
 Group   3 Type O   : 12s5p4d2f1g contracted to 6s4p3d1f1g pattern {711111/2111/211/2/1}

Atom   0C    basis set group =>   1
Atom   1C    basis set group =>   1
Atom   2H    basis set group =>   2
Atom   3H    basis set group =>   2
Atom   4O    basis set group =>   3
Atom   5H    basis set group =>   2
Atom   6H    basis set group =>   2
Atom   7H    basis set group =>   2


           ************************************************************
           *        Program running with 4 parallel MPI-processes     *
           *              working on a common directory               *
           ************************************************************
------------------------------------------------------------------------------
                           ORCA GTO INTEGRAL CALCULATION
                           -- RI-GTO INTEGRALS CHOSEN --
------------------------------------------------------------------------------
------------------------------------------------------------------------------
                   ___                                                        
                  /   \      - P O W E R E D   B Y -                         
                 /     \                                                     
                 |  |  |   _    _      __       _____    __    __             
                 |  |  |  | |  | |    /  \     |  _  \  |  |  /  |          
                  \  \/   | |  | |   /    \    | | | |  |  | /  /          
                 / \  \   | |__| |  /  /\  \   | |_| |  |  |/  /          
                |  |  |   |  __  | /  /__\  \  |    /   |      \           
                |  |  |   | |  | | |   __   |  |    \   |  |\   \          
                \     /   | |  | | |  |  |  |  | |\  \  |  | \   \       
                 \___/    |_|  |_| |__|  |__|  |_| \__\ |__|  \__/        
                                                                              
                      - O R C A' S   B I G   F R I E N D -                    
                                      &                                       
                       - I N T E G R A L  F E E D E R -                       
                                                                              
 v1 FN, 2020, v2 2021                                                         
------------------------------------------------------------------------------


Reading SHARK input file TZVPD_M062X_A_wt_dlpno_neg.SHARKINP.tmp ... ok
----------------------
SHARK INTEGRAL PACKAGE
----------------------

Number of atoms                             ...      8
Number of basis functions                   ...    159
Number of shells                            ...     65
Maximum angular momentum                    ...      3
Integral batch strategy                     ... SHARK/LIBINT Hybrid
RI-J (if used) integral strategy            ... SPLIT-RIJ (Revised 2003 algorithm where possible)
Printlevel                                  ...      1
Contraction scheme used                     ... SEGMENTED contraction
Coulomb Range Separation                    ... NOT USED
Exchange Range Separation                   ... NOT USED
Finite Nucleus Model                        ... NOT USED
Auxiliary Coulomb fitting basis             ... AVAILABLE
   # of basis functions in Aux-J            ...    202
   # of shells in Aux-J                     ...     70
   Maximum angular momentum in Aux-J        ...      4
Auxiliary J/K fitting basis                 ... NOT available
Auxiliary Correlation fitting basis         ... NOT available
Auxiliary 'external' fitting basis          ... NOT available
Integral threshold                          ...     2.500000e-11
Primitive cut-off                           ...     2.500000e-12
Primitive pair pre-selection threshold      ...     2.500000e-12

Calculating pre-screening integrals         ... done (  0.1 sec) Dimension = 65
Organizing shell pair data                  ... done (  0.0 sec)
Shell pair information
Total number of shell pairs                 ...      2145
Shell pairs after pre-screening             ...      2131
Total number of primitive shell pairs       ...      5334
Primitive shell pairs kept                  ...      4682
          la=0 lb=0:    551 shell pairs
          la=1 lb=0:    658 shell pairs
          la=1 lb=1:    210 shell pairs
          la=2 lb=0:    295 shell pairs
          la=2 lb=1:    180 shell pairs
          la=2 lb=2:     45 shell pairs
          la=3 lb=0:     99 shell pairs
          la=3 lb=1:     60 shell pairs
          la=3 lb=2:     27 shell pairs
          la=3 lb=3:      6 shell pairs

Calculating one electron integrals          ... done (  0.0 sec)
Calculating RI/J V-Matrix + Cholesky decomp.... done (  0.0 sec)
Calculating Nuclear repulsion               ... done (  0.0 sec) ENN=     74.321268556699 Eh

SHARK setup successfully completed in   0.2 seconds

Maximum memory used throughout the entire GTOINT-calculation: 13.8 MB


           ************************************************************
           *        Program running with 4 parallel MPI-processes     *
           *              working on a common directory               *
           ************************************************************
-------------------------------------------------------------------------------
                                 ORCA SCF
-------------------------------------------------------------------------------

------------
SCF SETTINGS
------------
Hamiltonian:
 Density Functional     Method          .... DFT(GTOs)
 Exchange Functional    Exchange        .... M062X
 Correlation Functional Correlation     .... M062X
 Gradients option       PostSCFGGA      .... off
 Hybrid DFT is turned on
   Fraction HF Exchange ScalHFX         ....  0.540000
   Scaling of DF-GGA-X  ScalDFX         ....  0.460000
   Scaling of DF-GGA-C  ScalDFC         ....  1.000000
   Scaling of DF-LDA-C  ScalLDAC        ....  1.000000
   Perturbative correction              ....  0.000000
   Density functional embedding theory  .... OFF
 RI-approximation to the Coulomb term is turned on
   Number of AuxJ basis functions       .... 202
   RIJ-COSX (HFX calculated with COS-X)).... on


General Settings:
 Integral files         IntName         .... TZVPD_M062X_A_wt_dlpno_neg
 Hartree-Fock type      HFTyp           .... RHF
 Total Charge           Charge          ....   -1
 Multiplicity           Mult            ....    1
 Number of Electrons    NEL             ....   26
 Basis Dimension        Dim             ....  159
 Nuclear Repulsion      ENuc            ....     74.3212685567 Eh

Convergence Acceleration:
 DIIS                   CNVDIIS         .... on
   Start iteration      DIISMaxIt       ....    12
   Startup error        DIISStart       ....  0.200000
   # of expansion vecs  DIISMaxEq       ....     5
   Bias factor          DIISBfac        ....   1.050
   Max. coefficient     DIISMaxC        ....  10.000
 Trust-Rad. Augm. Hess. CNVTRAH         .... auto
   Auto Start mean grad. ratio tolernc. ....  1.125000
   Auto Start start iteration           ....    20
   Auto Start num. interpolation iter.  ....    10
   Max. Number of Micro iterations      ....    16
   Max. Number of Macro iterations      .... Maxiter - #DIIS iter
   Number of Davidson start vectors     ....     2
   Converg. threshold I  (grad. norm)   ....   1.000e-05
   Converg. threshold II (energy diff.) ....   1.000e-08
   Grad. Scal. Fac. for Micro threshold ....   0.100
   Minimum threshold for Micro iter.    ....   0.010
   NR start threshold (gradient norm)   ....   0.001
   Initial trust radius                 ....   0.400
   Minimum AH scaling param. (alpha)    ....   1.000
   Maximum AH scaling param. (alpha)    .... 1000.000
   Orbital update algorithm             .... Taylor
   White noise on init. David. guess    .... on
   Maximum white noise                  ....   0.010
   Quad. conv. algorithm                .... NR
 SOSCF                  CNVSOSCF        .... on
   Start iteration      SOSCFMaxIt      ....   150
   Startup grad/error   SOSCFStart      ....  0.003300
 Level Shifting         CNVShift        .... on
   Level shift para.    LevelShift      ....    0.2500
   Turn off err/grad.   ShiftErr        ....    0.0010
 Zerner damping         CNVZerner       .... off
 Static damping         CNVDamp         .... on
   Fraction old density DampFac         ....    0.7000
   Max. Damping (<1)    DampMax         ....    0.9800
   Min. Damping (>=0)   DampMin         ....    0.0000
   Turn off err/grad.   DampErr         ....    0.1000
 Fernandez-Rico         CNVRico         .... off

SCF Procedure:
 Maximum # iterations   MaxIter         ....   150
 SCF integral mode      SCFMode         .... Direct
   Integral package                     .... SHARK and LIBINT hybrid scheme
 Reset frequency        DirectResetFreq ....    20
 Integral Threshold     Thresh          ....  2.500e-11 Eh
 Primitive CutOff       TCut            ....  2.500e-12 Eh

Convergence Tolerance:
 Convergence Check Mode ConvCheckMode   .... Total+1el-Energy
 Convergence forced     ConvForced      .... 0
 Energy Change          TolE            ....  1.000e-08 Eh
 1-El. energy change                    ....  1.000e-05 Eh
 Orbital Gradient       TolG            ....  1.000e-05
 Orbital Rotation angle TolX            ....  1.000e-05
 DIIS Error             TolErr          ....  5.000e-07


Diagonalization of the overlap matrix:
Smallest eigenvalue                        ... 1.786e-05
Time for diagonalization                   ...    0.005 sec
Threshold for overlap eigenvalues          ... 1.000e-08
Number of eigenvalues below threshold      ... 0
Time for construction of square roots      ...    0.004 sec
Total time needed                          ...    0.010 sec

Time for model grid setup =    0.046 sec

------------------------------
INITIAL GUESS: MODEL POTENTIAL
------------------------------
Loading Hartree-Fock densities                     ... done
Calculating cut-offs                               ... done
Initializing the effective Hamiltonian             ... done
Setting up the integral package (SHARK)            ... done
Starting the Coulomb interaction                   ... done (   0.0 sec)
Reading the grid                                   ... done
Mapping shells                                     ... done
Starting the XC term evaluation                    ... done (   0.1 sec)
  promolecular density results
     # of electrons  =     24.997194081
     EX              =    -19.791923216
     EC              =     -0.801021425
     EX+EC           =    -20.592944640
Transforming the Hamiltonian                       ... done (   0.0 sec)
Diagonalizing the Hamiltonian                      ... done (   0.0 sec)
Back transforming the eigenvectors                 ... done (   0.0 sec)
Now organizing SCF variables                       ... done
                      ------------------
                      INITIAL GUESS DONE (   0.1 sec)
                      ------------------
-------------------
DFT GRID GENERATION
-------------------

General Integration Accuracy     IntAcc      ... 4.388
Radial Grid Type                 RadialGrid  ... OptM3 with GC (2021)
Angular Grid (max. ang.)         AngularGrid ... 4 (Lebedev-302)
Angular grid pruning method      GridPruning ... 4 (adaptive)
Weight generation scheme         WeightScheme... Becke
Basis function cutoff            BFCut       ... 1.0000e-11
Integration weight cutoff        WCut        ... 1.0000e-14
Angular grids for H and He will be reduced by one unit
Partially contracted basis set               ... off
Rotationally invariant grid construction     ... off

Total number of grid points                  ...    36477
Total number of batches                      ...      575
Average number of points per batch           ...       63
Average number of grid points per atom       ...     4560
Time for grid setup =    0.228 sec

--------------------
COSX GRID GENERATION
--------------------

GRIDX 1
-------
General Integration Accuracy     IntAcc      ... 3.816
Radial Grid Type                 RadialGrid  ... OptM3 with GC (2021)
Angular Grid (max. ang.)         AngularGrid ... 1 (Lebedev-50)
Angular grid pruning method      GridPruning ... 4 (adaptive)
Weight generation scheme         WeightScheme... Becke
Basis function cutoff            BFCut       ... 1.0000e-11
Integration weight cutoff        WCut        ... 1.0000e-14
Angular grids for H and He will be reduced by one unit
Partially contracted basis set               ... on
Rotationally invariant grid construction     ... off

Total number of grid points                  ...     4586
Total number of batches                      ...       75
Average number of points per batch           ...       61
Average number of grid points per atom       ...      573
UseSFitting                                  ... on

GRIDX 2
-------
General Integration Accuracy     IntAcc      ... 4.020
Radial Grid Type                 RadialGrid  ... OptM3 with GC (2021)
Angular Grid (max. ang.)         AngularGrid ... 2 (Lebedev-110)
Angular grid pruning method      GridPruning ... 4 (adaptive)
Weight generation scheme         WeightScheme... Becke
Basis function cutoff            BFCut       ... 1.0000e-11
Integration weight cutoff        WCut        ... 1.0000e-14
Angular grids for H and He will be reduced by one unit
Partially contracted basis set               ... on
Rotationally invariant grid construction     ... off

Total number of grid points                  ...    11083
Total number of batches                      ...      177
Average number of points per batch           ...       62
Average number of grid points per atom       ...     1385
UseSFitting                                  ... on

GRIDX 3
-------
General Integration Accuracy     IntAcc      ... 4.338
Radial Grid Type                 RadialGrid  ... OptM3 with GC (2021)
Angular Grid (max. ang.)         AngularGrid ... 3 (Lebedev-194)
Angular grid pruning method      GridPruning ... 4 (adaptive)
Weight generation scheme         WeightScheme... Becke
Basis function cutoff            BFCut       ... 1.0000e-11
Integration weight cutoff        WCut        ... 1.0000e-14
Angular grids for H and He will be reduced by one unit
Partially contracted basis set               ... on
Rotationally invariant grid construction     ... off

Total number of grid points                  ...    25019
Total number of batches                      ...      395
Average number of points per batch           ...       63
Average number of grid points per atom       ...     3127
UseSFitting                                  ... on

Time for X-Grid setup             =    0.225 sec

--------------
SCF ITERATIONS
--------------
ITER       Energy         Delta-E        Max-DP      RMS-DP      [F,P]     Damp
               ***  Starting incremental Fock matrix formation  ***
  0   -154.1099905843   0.000000000000 0.20283740  0.00443969  0.4019278 0.7000
  1   -154.2499137202  -0.139923135921 0.53508464  0.00663474  0.1688484 0.7000
                               ***Turning on DIIS***
  2   -154.3024281006  -0.052514380394 1.19583473  0.01333329  0.0594485 0.0000
  3   -154.3872700965  -0.084841995881 0.18760314  0.00201308  0.1038597 0.7000
  4   -154.3959445510  -0.008674454510 0.77067395  0.00820996  0.0678304 0.0000
  5   -154.4087795671  -0.012835016170 0.13613476  0.00146291  0.0216200 0.0000
                      *** Initiating the SOSCF procedure ***
                           *** Shutting down DIIS ***
                      *** Re-Reading the Fockian *** 
                      *** Removing any level shift *** 
ITER      Energy       Delta-E        Grad      Rot      Max-DP    RMS-DP
  6   -154.40935398  -0.0005744100  0.000998  0.000998  0.080580  0.000867
               *** Restarting incremental Fock matrix formation ***
  7   -154.40941026  -0.0000562852  0.000615  0.002700  0.096060  0.001053
  8   -154.40942518  -0.0000149198  0.000559  0.002572  0.067278  0.000734
  9   -154.40943217  -0.0000069877  0.000194  0.000793  0.027251  0.000305
 10   -154.40943341  -0.0000012450  0.000064  0.000117  0.004900  0.000055
 11   -154.40943352  -0.0000001010  0.000029  0.000124  0.003593  0.000039
 12   -154.40943355  -0.0000000354  0.000004  0.000008  0.000078  0.000002
                  ***Gradient check signals convergence***
              ***Rediagonalizing the Fockian in SOSCF/NRSCF***

               *****************************************************
               *                     SUCCESS                       *
               *           SCF CONVERGED AFTER  13 CYCLES          *
               *****************************************************

Old exchange energy                            =    -11.096610346 Eh
New exchange energy                            =    -11.096636969 Eh
Exchange energy change after final integration =     -0.000026623 Eh
Total energy after final integration           =   -154.409460176 Eh
Final COS-X integration done in                =     1.174 sec

----------------
TOTAL SCF ENERGY
----------------

Total Energy       :         -154.40946018 Eh           -4201.69502 eV

Components:
Nuclear Repulsion  :           74.32126856 Eh            2022.38453 eV
Electronic Energy  :         -228.73072873 Eh           -6224.07955 eV
One Electron Energy:         -362.66858630 Eh           -9868.71395 eV
Two Electron Energy:          133.93785757 Eh            3644.63439 eV
Max COSX asymmetry :            0.00000311 Eh               0.00008 eV

Virial components:
Potential Energy   :         -308.17648117 Eh           -8385.90838 eV
Kinetic Energy     :          153.76702099 Eh            4184.21336 eV
Virial Ratio       :            2.00417800


DFT components:
N(Alpha)           :       12.999805428509 electrons
N(Beta)            :       12.999805428509 electrons
N(Total)           :       25.999610857019 electrons
E(XC)              :      -10.364533384073 Eh       
DFET-embed. en.    :        0.000000000000 Eh       

---------------
SCF CONVERGENCE
---------------

  Last Energy change         ...   -1.6951e-09  Tolerance :   1.0000e-08
  Last MAX-Density change    ...    8.8818e-16  Tolerance :   1.0000e-07
  Last RMS-Density change    ...    1.5191e-17  Tolerance :   5.0000e-09
  Last Orbital Gradient      ...    1.3971e-06  Tolerance :   1.0000e-05
  Last Orbital Rotation      ...    3.3892e-06  Tolerance :   1.0000e-05

             **** THE GBW FILE WAS UPDATED (TZVPD_M062X_A_wt_dlpno_neg.gbw) ****
             **** DENSITY TZVPD_M062X_A_wt_dlpno_neg.scfp WAS UPDATED ****
             **** ENERGY FILE WAS UPDATED (TZVPD_M062X_A_wt_dlpno_neg.en.tmp) ****
             **** THE GBW FILE WAS UPDATED (TZVPD_M062X_A_wt_dlpno_neg.gbw) ****
             **** DENSITY TZVPD_M062X_A_wt_dlpno_neg.scfp WAS UPDATED ****
----------------
ORBITAL ENERGIES
----------------

  NO   OCC          E(Eh)            E(eV) 
   0   2.0000     -19.288410      -524.8643 
   1   2.0000     -10.346522      -281.5432 
   2   2.0000     -10.321053      -280.8501 
   3   2.0000      -0.792897       -21.5758 
   4   2.0000      -0.617133       -16.7930 
   5   2.0000      -0.455502       -12.3948 
   6   2.0000      -0.316802        -8.6206 
   7   2.0000      -0.292315        -7.9543 
   8   2.0000      -0.233062        -6.3420 
   9   2.0000      -0.220225        -5.9926 
  10   2.0000      -0.178336        -4.8528 
  11   2.0000      -0.034393        -0.9359 
  12   2.0000      -0.033842        -0.9209 
  13   0.0000       0.168536         4.5861 
  14   0.0000       0.187498         5.1021 
  15   0.0000       0.218546         5.9469 
  16   0.0000       0.219051         5.9607 
  17   0.0000       0.240715         6.5502 
  18   0.0000       0.256312         6.9746 
  19   0.0000       0.265450         7.2233 
  20   0.0000       0.279529         7.6064 
  21   0.0000       0.295080         8.0295 
  22   0.0000       0.318614         8.6699 
  23   0.0000       0.323683         8.8078 
  24   0.0000       0.332074         9.0362 
  25   0.0000       0.362169         9.8551 
  26   0.0000       0.383146        10.4259 
  27   0.0000       0.388256        10.5650 
  28   0.0000       0.404154        10.9976 
  29   0.0000       0.424295        11.5457 
  30   0.0000       0.432064        11.7571 
  31   0.0000       0.437594        11.9075 
  32   0.0000       0.456140        12.4122 
  33   0.0000       0.465958        12.6794 
  34   0.0000       0.474893        12.9225 
  35   0.0000       0.482339        13.1251 
  36   0.0000       0.486729        13.2446 
  37   0.0000       0.506535        13.7835 
  38   0.0000       0.509542        13.8653 
  39   0.0000       0.513803        13.9813 
  40   0.0000       0.533788        14.5251 
  41   0.0000       0.547779        14.9058 
  42   0.0000       0.550142        14.9701 
  43   0.0000       0.554331        15.0841 
  44   0.0000       0.564957        15.3733 
  45   0.0000       0.589715        16.0470 
  46   0.0000       0.595268        16.1981 
  47   0.0000       0.598289        16.2803 
  48   0.0000       0.617549        16.8044 
  49   0.0000       0.629306        17.1243 
  50   0.0000       0.658523        17.9193 
  51   0.0000       0.674474        18.3534 
  52   0.0000       0.733004        19.9461 
  53   0.0000       0.758871        20.6499 
  54   0.0000       0.775553        21.1039 
  55   0.0000       0.789167        21.4743 
  56   0.0000       0.808658        22.0047 
  57   0.0000       0.832251        22.6467 
  58   0.0000       0.846449        23.0331 
  59   0.0000       0.857909        23.3449 
  60   0.0000       0.889178        24.1958 
  61   0.0000       0.898246        24.4425 
  62   0.0000       0.905651        24.6440 
  63   0.0000       0.909064        24.7369 
  64   0.0000       0.919748        25.0276 
  65   0.0000       0.928990        25.2791 
  66   0.0000       0.947016        25.7696 
  67   0.0000       0.970980        26.4217 
  68   0.0000       0.983084        26.7511 
  69   0.0000       1.114643        30.3310 
  70   0.0000       1.147677        31.2299 
  71   0.0000       1.187557        32.3151 
  72   0.0000       1.209513        32.9125 
  73   0.0000       1.233087        33.5540 
  74   0.0000       1.298233        35.3267 
  75   0.0000       1.325930        36.0804 
  76   0.0000       1.378042        37.4984 
  77   0.0000       1.389072        37.7986 
  78   0.0000       1.435801        39.0701 
  79   0.0000       1.448463        39.4147 
  80   0.0000       1.469594        39.9897 
  81   0.0000       1.522720        41.4353 
  82   0.0000       1.605319        43.6830 
  83   0.0000       1.858507        50.5725 
  84   0.0000       1.961924        53.3867 
  85   0.0000       1.989007        54.1236 
  86   0.0000       1.994002        54.2596 
  87   0.0000       2.011757        54.7427 
  88   0.0000       2.022582        55.0373 
  89   0.0000       2.032595        55.3097 
  90   0.0000       2.081391        56.6375 
  91   0.0000       2.096860        57.0585 
  92   0.0000       2.113765        57.5185 
  93   0.0000       2.185022        59.4575 
  94   0.0000       2.211817        60.1866 
  95   0.0000       2.233604        60.7795 
  96   0.0000       2.251179        61.2577 
  97   0.0000       2.353545        64.0432 
  98   0.0000       2.357350        64.1467 
  99   0.0000       2.467560        67.1457 
 100   0.0000       2.530012        68.8451 
 101   0.0000       2.595061        70.6152 
 102   0.0000       2.665456        72.5307 
 103   0.0000       2.683791        73.0297 
 104   0.0000       2.702176        73.5300 
 105   0.0000       2.709554        73.7307 
 106   0.0000       2.764029        75.2131 
 107   0.0000       2.790998        75.9469 
 108   0.0000       2.843265        77.3692 
 109   0.0000       2.855770        77.7095 
 110   0.0000       2.897695        78.8503 
 111   0.0000       2.945198        80.1429 
 112   0.0000       2.948826        80.2416 
 113   0.0000       2.964218        80.6605 
 114   0.0000       3.054652        83.1213 
 115   0.0000       3.164756        86.1174 
 116   0.0000       3.288611        89.4876 
 117   0.0000       3.313988        90.1782 
 118   0.0000       3.360171        91.4349 
 119   0.0000       3.395645        92.4002 
 120   0.0000       3.441521        93.6485 
 121   0.0000       3.468784        94.3904 
 122   0.0000       3.511939        95.5647 
 123   0.0000       3.522546        95.8533 
 124   0.0000       3.539006        96.3012 
 125   0.0000       3.624403        98.6250 
 126   0.0000       3.628929        98.7482 
 127   0.0000       3.643653        99.1488 
 128   0.0000       3.730052       101.4999 
 129   0.0000       3.772895       102.6657 
 130   0.0000       3.847987       104.7090 
 131   0.0000       3.886651       105.7611 
 132   0.0000       4.022162       109.4486 
 133   0.0000       4.058966       110.4501 
 134   0.0000       4.151093       112.9570 
 135   0.0000       4.183031       113.8261 
 136   0.0000       4.237188       115.2997 
 137   0.0000       4.491954       122.2323 
 138   0.0000       4.527245       123.1926 
 139   0.0000       4.677654       127.2854 
 140   0.0000       4.712931       128.2454 
 141   0.0000       4.848952       131.9467 
 142   0.0000       5.015942       136.4907 
 143   0.0000       5.036738       137.0566 
 144   0.0000       5.541386       150.7888 
 145   0.0000       5.551504       151.0641 
 146   0.0000       5.750261       156.4725 
 147   0.0000       5.752803       156.5417 
 148   0.0000       6.167915       167.8375 
 149   0.0000       6.211625       169.0269 
 150   0.0000       6.380136       173.6123 
 151   0.0000       6.811418       185.3481 
 152   0.0000       6.830511       185.8677 
 153   0.0000       7.103017       193.2829 
 154   0.0000       7.168733       195.0711 
 155   0.0000       7.452283       202.7869 
 156   0.0000      22.834515       621.3587 
 157   0.0000      22.954596       624.6263 
 158   0.0000      44.507857      1211.1204 

                    ********************************
                    * MULLIKEN POPULATION ANALYSIS *
                    ********************************

-----------------------
MULLIKEN ATOMIC CHARGES
-----------------------
   0 C :   -0.999296
   1 C :   -0.259345
   2 H :    0.214044
   3 H :    0.212552
   4 O :   -0.975987
   5 H :    0.248324
   6 H :    0.308667
   7 H :    0.251040
Sum of atomic charges:   -1.0000000

--------------------------------
MULLIKEN REDUCED ORBITAL CHARGES
--------------------------------
  0 C s       :     3.460630  s :     3.460630
      pz      :     1.078064  p :     3.424083
      px      :     1.190836
      py      :     1.155183
      dz2     :     0.009019  d :     0.111356
      dxz     :    -0.002778
      dyz     :     0.024000
      dx2y2   :     0.021127
      dxy     :     0.059987
      f0      :     0.000550  f :     0.003227
      f+1     :     0.000444
      f-1     :     0.000843
      f+2     :     0.000370
      f-2     :     0.000420
      f+3     :     0.000087
      f-3     :     0.000514
  1 C s       :     3.367038  s :     3.367038
      pz      :     0.883226  p :     2.651424
      px      :     0.850765
      py      :     0.917433
      dz2     :     0.003920  d :     0.229750
      dxz     :     0.039942
      dyz     :     0.048504
      dx2y2   :     0.089596
      dxy     :     0.047788
      f0      :     0.001471  f :     0.011133
      f+1     :     0.001455
      f-1     :     0.001085
      f+2     :     0.001075
      f-2     :     0.001866
      f+3     :     0.002769
      f-3     :     0.001412
  2 H s       :     0.706974  s :     0.706974
      pz      :     0.008666  p :     0.078982
      px      :     0.063669
      py      :     0.006648
  3 H s       :     0.708496  s :     0.708496
      pz      :     0.025196  p :     0.078952
      px      :     0.009963
      py      :     0.043793
  4 O s       :     4.053016  s :     4.053016
      pz      :     1.826441  p :     4.918412
      px      :     1.421293
      py      :     1.670678
      dz2     :     0.001875  d :     0.003142
      dxz     :     0.000238
      dyz     :    -0.001432
      dx2y2   :    -0.000402
      dxy     :     0.002863
      f0      :     0.000137  f :     0.001416
      f+1     :     0.000184
      f-1     :     0.000089
      f+2     :     0.000064
      f-2     :     0.000234
      f+3     :     0.000282
      f-3     :     0.000427
  5 H s       :     0.691070  s :     0.691070
      pz      :     0.008808  p :     0.060606
      px      :     0.026345
      py      :     0.025453
  6 H s       :     0.643531  s :     0.643531
      pz      :     0.010768  p :     0.047802
      px      :     0.016308
      py      :     0.020725
  7 H s       :     0.689602  s :     0.689602
      pz      :     0.029545  p :     0.059358
      px      :     0.020759
      py      :     0.009053


                     *******************************
                     * LOEWDIN POPULATION ANALYSIS *
                     *******************************

----------------------
LOEWDIN ATOMIC CHARGES
----------------------
   0 C :   -0.173184
   1 C :   -0.619001
   2 H :    0.059030
   3 H :    0.060605
   4 O :   -0.433745
   5 H :    0.040177
   6 H :    0.027332
   7 H :    0.038786

-------------------------------
LOEWDIN REDUCED ORBITAL CHARGES
-------------------------------
  0 C s       :     2.767707  s :     2.767707
      pz      :     0.973519  p :     2.896189
      px      :     0.958812
      py      :     0.963859
      dz2     :     0.142922  d :     0.483465
      dxz     :     0.061151
      dyz     :     0.121617
      dx2y2   :     0.028028
      dxy     :     0.129748
      f0      :     0.003864  f :     0.025823
      f+1     :     0.004906
      f-1     :     0.005080
      f+2     :     0.004665
      f-2     :     0.002309
      f+3     :     0.000830
      f-3     :     0.004169
  1 C s       :     2.725704  s :     2.725704
      pz      :     0.897559  p :     2.678146
      px      :     0.884248
      py      :     0.896339
      dz2     :     0.189983  d :     1.134375
      dxz     :     0.192880
      dyz     :     0.247971
      dx2y2   :     0.247660
      dxy     :     0.255881
      f0      :     0.010091  f :     0.080776
      f+1     :     0.012148
      f-1     :     0.007468
      f+2     :     0.009206
      f-2     :     0.011600
      f+3     :     0.016580
      f-3     :     0.013683
  2 H s       :     0.720946  s :     0.720946
      pz      :     0.055099  p :     0.220023
      px      :     0.097368
      py      :     0.067556
  3 H s       :     0.720209  s :     0.720209
      pz      :     0.079290  p :     0.219186
      px      :     0.053204
      py      :     0.086691
  4 O s       :     3.450890  s :     3.450890
      pz      :     1.639519  p :     4.698033
      px      :     1.472399
      py      :     1.586115
      dz2     :     0.031189  d :     0.280705
      dxz     :     0.054345
      dyz     :     0.042249
      dx2y2   :     0.080942
      dxy     :     0.071979
      f0      :     0.000403  f :     0.004118
      f+1     :     0.000527
      f-1     :     0.000270
      f+2     :     0.000190
      f-2     :     0.000704
      f+3     :     0.000952
      f-3     :     0.001072
  5 H s       :     0.721278  s :     0.721278
      pz      :     0.061476  p :     0.238545
      px      :     0.099097
      py      :     0.077973
  6 H s       :     0.729108  s :     0.729108
      pz      :     0.064908  p :     0.243560
      px      :     0.096068
      py      :     0.082584
  7 H s       :     0.723083  s :     0.723083
      pz      :     0.089629  p :     0.238131
      px      :     0.064402
      py      :     0.084100


                      *****************************
                      * MAYER POPULATION ANALYSIS *
                      *****************************

  NA   - Mulliken gross atomic population
  ZA   - Total nuclear charge
  QA   - Mulliken gross atomic charge
  VA   - Mayer's total valence
  BVA  - Mayer's bonded valence
  FA   - Mayer's free valence

  ATOM       NA         ZA         QA         VA         BVA        FA
  0 C      6.9993     6.0000    -0.9993     4.0436     4.0436    -0.0000
  1 C      6.2593     6.0000    -0.2593     3.5261     3.5261    -0.0000
  2 H      0.7860     1.0000     0.2140     1.1234     1.1234    -0.0000
  3 H      0.7874     1.0000     0.2126     1.1202     1.1202    -0.0000
  4 O      8.9760     8.0000    -0.9760     1.0085     1.0085    -0.0000
  5 H      0.7517     1.0000     0.2483     1.0047     1.0047    -0.0000
  6 H      0.6913     1.0000     0.3087     0.9066     0.9066    -0.0000
  7 H      0.7490     1.0000     0.2510     0.9908     0.9908    -0.0000

  Mayer bond orders larger than 0.100000
B(  0-C ,  1-C ) :   0.7039 B(  0-C ,  4-O ) :   0.3539 B(  0-C ,  5-H ) :   1.0089 
B(  0-C ,  6-H ) :   0.9778 B(  0-C ,  7-H ) :   1.0047 B(  1-C ,  2-H ) :   1.0497 
B(  1-C ,  3-H ) :   1.0495 B(  1-C ,  4-O ) :   0.7959 

-------
TIMINGS
-------

Total SCF time: 0 days 0 hours 0 min 12 sec 

Total time                  ....      12.859 sec
Sum of individual times     ....      12.713 sec  ( 98.9%)

Fock matrix formation       ....      12.007 sec  ( 93.4%)
  Split-RI-J                ....       0.667 sec  (  5.6% of F)
  Chain of spheres X        ....       6.947 sec  ( 57.9% of F)
  XC integration            ....       4.357 sec  ( 36.3% of F)
    Basis function eval.    ....       0.655 sec  ( 15.0% of XC)
    Density eval.           ....       1.298 sec  ( 29.8% of XC)
    XC-Functional eval.     ....       0.284 sec  (  6.5% of XC)
    XC-Potential eval.      ....       2.008 sec  ( 46.1% of XC)
Diagonalization             ....       0.048 sec  (  0.4%)
Density matrix formation    ....       0.004 sec  (  0.0%)
Population analysis         ....       0.006 sec  (  0.0%)
Initial guess               ....       0.087 sec  (  0.7%)
Orbital Transformation      ....       0.000 sec  (  0.0%)
Orbital Orthonormalization  ....       0.000 sec  (  0.0%)
DIIS solution               ....       0.029 sec  (  0.2%)
SOSCF solution              ....       0.032 sec  (  0.2%)
Grid generation             ....       0.500 sec  (  3.9%)

Maximum memory used throughout the entire SCF-calculation: 64.0 MB


-------------------------------------------------------------------------------
                          DFT DISPERSION CORRECTION                            
                                                                               
                              DFTD3 V3.1  Rev 1                                
                              USING zero damping                               
-------------------------------------------------------------------------------
The M062X functional is recognized
Active option DFTDOPT                   ...         3   

molecular C6(AA) [au] = 434.704067 


            DFT-D V3
 parameters
 s6 scaling factor         :     1.0000 
 rs6 scaling factor        :     1.6190 
 s8 scaling factor         :     0.0000 
 rs8 scaling factor        :     1.0000 
 Damping factor alpha6     :    14.0000 
 Damping factor alpha8     :    16.0000 
 ad hoc parameters k1-k3   :    16.0000     1.3333    -4.0000 

 Edisp/kcal,au: -0.009297552658  -0.000014816592 
 E6   /kcal   :  -0.009297553 
 E8   /kcal   :  -0.000000000 
 % E8         :   0.000000000 

-------------------------   ----------------
Dispersion correction           -0.000014817
-------------------------   ----------------


-------------------------   --------------------
FINAL SINGLE POINT ENERGY      -154.409474992140
-------------------------   --------------------


                            ***************************************
                            *     ORCA property calculations      *
                            ***************************************

                                    ---------------------
                                    Active property flags
                                    ---------------------
   (+) Dipole Moment


------------------------------------------------------------------------------
                       ORCA ELECTRIC PROPERTIES CALCULATION
------------------------------------------------------------------------------

Dipole Moment Calculation                       ... on
Quadrupole Moment Calculation                   ... off
Polarizability Calculation                      ... off
GBWName                                         ... TZVPD_M062X_A_wt_dlpno_neg.gbw
Electron density file                           ... TZVPD_M062X_A_wt_dlpno_neg.scfp
The origin for moment calculation is the CENTER OF MASS  = (-1.950591, -1.157254  1.573021)

-------------
DIPOLE MOMENT
-------------
                                X             Y             Z
Electronic contribution:     -1.57247      -1.81617      -1.49284
Nuclear contribution   :      2.47835       2.80827       2.30058
                        -----------------------------------------
Total Dipole Moment    :      0.90588       0.99210       0.80774
                        -----------------------------------------
Magnitude (a.u.)       :      1.56759
Magnitude (Debye)      :      3.98449



--------------------
Rotational spectrum 
--------------------
 
Rotational constants in cm-1:     1.255775     0.327783     0.287473 
Rotational constants in MHz : 37647.186859  9826.677683  8618.224821 

 Dipole components along the rotational axes: 
x,y,z [a.u.] :     1.511309    -0.416237     0.004169 
x,y,z [Debye]:     3.841443    -1.057991     0.010597 

 

Timings for individual modules:

Sum of individual times         ...       17.435 sec (=   0.291 min)
GTO integral calculation        ...        2.709 sec (=   0.045 min)  15.5 %
SCF iterations                  ...       14.726 sec (=   0.245 min)  84.5 %
                             ****ORCA TERMINATED NORMALLY****
TOTAL RUN TIME: 0 days 0 hours 0 minutes 17 seconds 952 msec
