
                                        *****************
                                        * O   R   C   A *
                                        *****************

                                            #,                                       
                                            ###                                      
                                            ####                                     
                                            #####                                    
                                            ######                                   
                                           ########,                                 
                                     ,,################,,,,,                         
                               ,,#################################,,                 
                          ,,##########################################,,             
                       ,#########################################, ''#####,          
                    ,#############################################,,   '####,        
                  ,##################################################,,,,####,       
                ,###########''''           ''''###############################       
              ,#####''   ,,,,##########,,,,          '''####'''          '####       
            ,##' ,,,,###########################,,,                        '##       
           ' ,,###''''                  '''############,,,                           
         ,,##''                                '''############,,,,        ,,,,,,###''
      ,#''                                            '''#######################'''  
     '                                                          ''''####''''         
             ,#######,   #######,   ,#######,      ##                                
            ,#'     '#,  ##    ##  ,#'     '#,    #''#        ######   ,####,        
            ##       ##  ##   ,#'  ##            #'  '#       #        #'  '#        
            ##       ##  #######   ##           ,######,      #####,   #    #        
            '#,     ,#'  ##    ##  '#,     ,#' ,#      #,         ##   #,  ,#        
             '#######'   ##     ##  '#######'  #'      '#     #####' # '####'        



                  #######################################################
                  #                        -***-                        #
                  #          Department of theory and spectroscopy      #
                  #    Directorship and core code : Frank Neese         #
                  #        Max Planck Institute fuer Kohlenforschung    #
                  #                Kaiser Wilhelm Platz 1               #
                  #                 D-45470 Muelheim/Ruhr               #
                  #                      Germany                        #
                  #                                                     #
                  #                  All rights reserved                #
                  #                        -***-                        #
                  #######################################################


                         Program Version 5.0.0 -  RELEASE  -
                                (SVN: $Rev: 19529$)
                ($Date: 2021-06-28 11:36:33 +0200 (Mo, 28 Jun 2021) $)


 With contributions from (in alphabetic order):
   Daniel Aravena         : Magnetic Suceptibility
   Michael Atanasov       : Ab Initio Ligand Field Theory (pilot matlab implementation)
   Alexander A. Auer      : GIAO ZORA, VPT2 properties, NMR spectrum
   Ute Becker             : Parallelization
   Giovanni Bistoni       : ED, misc. LED, open-shell LED, HFLD
   Martin Brehm           : Molecular dynamics
   Dmytro Bykov           : SCF Hessian
   Vijay G. Chilkuri      : MRCI spin determinant printing, contributions to CSF-ICE
   Dipayan Datta          : RHF DLPNO-CCSD density
   Achintya Kumar Dutta   : EOM-CC, STEOM-CC
   Dmitry Ganyushin       : Spin-Orbit,Spin-Spin,Magnetic field MRCI
   Miquel Garcia          : C-PCM Hessian, Gaussian charge scheme
   Yang Guo               : DLPNO-NEVPT2, F12-NEVPT2, CIM, IAO-localization
   Andreas Hansen         : Spin unrestricted coupled pair/coupled cluster methods
   Benjamin Helmich-Paris : MC-RPA, TRAH-SCF, COSX integrals
   Lee Huntington         : MR-EOM, pCC
   Robert Izsak           : Overlap fitted RIJCOSX, COSX-SCS-MP3, EOM
   Marcus Kettner         : VPT2
   Christian Kollmar      : KDIIS, OOCD, Brueckner-CCSD(T), CCSD density, CASPT2, CASPT2-K
   Simone Kossmann        : Meta GGA functionals, TD-DFT gradient, OOMP2, MP2 Hessian
   Martin Krupicka        : Initial AUTO-CI
   Lucas Lang             : DCDCAS
   Marvin Lechner         : AUTO-CI (C++ implementation), FIC-MRCC
   Dagmar Lenk            : GEPOL surface, SMD
   Dimitrios Liakos       : Extrapolation schemes; Compound Job, initial MDCI parallelization
   Dimitrios Manganas     : Further ROCIS development; embedding schemes
   Dimitrios Pantazis     : SARC Basis sets
   Anastasios Papadopoulos: AUTO-CI, single reference methods and gradients
   Taras Petrenko         : DFT Hessian,TD-DFT gradient, ASA, ECA, R-Raman, ABS, FL, XAS/XES, NRVS
   Peter Pinski           : DLPNO-MP2, DLPNO-MP2 Gradient
   Christoph Reimann      : Effective Core Potentials
   Marius Retegan         : Local ZFS, SOC
   Christoph Riplinger    : Optimizer, TS searches, QM/MM, DLPNO-CCSD(T), (RO)-DLPNO pert. Triples
   Tobias Risthaus        : Range-separated hybrids, TD-DFT gradient, RPA, STAB
   Michael Roemelt        : Original ROCIS implementation
   Masaaki Saitow         : Open-shell DLPNO-CCSD energy and density
   Barbara Sandhoefer     : DKH picture change effects
   Avijit Sen             : IP-ROCIS
   Kantharuban Sivalingam : CASSCF convergence, NEVPT2, FIC-MRCI
   Bernardo de Souza      : ESD, SOC TD-DFT
   Georgi Stoychev        : AutoAux, RI-MP2 NMR
   Willem Van den Heuvel  : Paramagnetic NMR
   Boris Wezisla          : Elementary symmetry handling
   Frank Wennmohs         : Technical directorship


 We gratefully acknowledge several colleagues who have allowed us to
 interface, adapt or use parts of their codes:
   Stefan Grimme, W. Hujo, H. Kruse, P. Pracht,  : VdW corrections, initial TS optimization,
                  C. Bannwarth, S. Ehlert          DFT functionals, gCP, sTDA/sTD-DF
   Ed Valeev, F. Pavosevic, A. Kumar             : LibInt (2-el integral package), F12 methods
   Garnet Chan, S. Sharma, J. Yang, R. Olivares  : DMRG
   Ulf Ekstrom                                   : XCFun DFT Library
   Mihaly Kallay                                 : mrcc  (arbitrary order and MRCC methods)
   Jiri Pittner, Ondrej Demel                    : Mk-CCSD
   Frank Weinhold                                : gennbo (NPA and NBO analysis)
   Christopher J. Cramer and Donald G. Truhlar   : smd solvation model
   Lars Goerigk                                  : TD-DFT with DH, B97 family of functionals
   V. Asgeirsson, H. Jonsson                     : NEB implementation
   FAccTs GmbH                                   : IRC, NEB, NEB-TS, DLPNO-Multilevel, CI-OPT
                                                   MM, QMMM, 2- and 3-layer-ONIOM, Crystal-QMMM,
                                                   LR-CPCM, SF, NACMEs, symmetry and pop. for TD-DFT,
                                                   nearIR, NL-DFT gradient (VV10), updates on ESD,
                                                   ML-optimized integration grids
   S Lehtola, MJT Oliveira, MAL Marques          : LibXC Library
   Liviu Ungur et al                             : ANISO software


 Your calculation uses the libint2 library for the computation of 2-el integrals
 For citations please refer to: http://libint.valeyev.net

 Your ORCA version has been built with support for libXC version: 5.1.0
 For citations please refer to: https://tddft.org/programs/libxc/

 This ORCA versions uses:
   CBLAS   interface :  Fast vector & matrix operations
   LAPACKE interface :  Fast linear algebra routines
   SCALAPACK package :  Parallel linear algebra routines
   Shared memory     :  Shared parallel matrices
   BLAS/LAPACK       :  OpenBLAS 0.3.15  USE64BITINT DYNAMIC_ARCH NO_AFFINITY Haswell SINGLE_THREADED
        Core in use  :  Haswell
   Copyright (c) 2011-2014, The OpenBLAS Project


XCFun DFT library Copyright 2009-2010 Ulf Ekstrom and contributors.
See http://admol.org/xcfun for more information.
This is free software; see the source code for copying conditions.
There is ABSOLUTELY NO WARRANTY; not even for MERCHANTABILITY or FITNESS FOR A PARTICULAR PURPOSE.
For details see the documentation.
Scientific users of this library should cite U. Ekstrom, L. Visscher, R. Bast, A. J. Thorvaldsen and K. Ruud;
J.Chem.Theor.Comp. 2010, DOI: 10.1021/ct100117s
XCFun Version 0.99 

================================================================================

----- Orbital basis set information -----
Your calculation utilizes the basis: def2-SVPD
   F. Weigend and R. Ahlrichs, Phys. Chem. Chem. Phys. 7, 3297 (2005).
   D. Rappoport and F. Furche, J. Chem. Phys. 133 134105 (2010).

----- AuxJ basis set information -----
Your calculation utilizes the auxiliary basis: def2/J
   F. Weigend, Phys. Chem. Chem. Phys. 8, 1057 (2006).

================================================================================
                                        WARNINGS
                       Please study these warnings very carefully!
================================================================================


INFO   : the flag for use of the SHARK integral package has been found!

================================================================================
                                       INPUT FILE
================================================================================
NAME = 18Feb_SVPD_CAMB3LYP_C1_wb97_typm1_new_pos.com
|  1> !CAM-B3LYP RIJCOSX def2-SVPD def2/J TightSCF  
|  2> *xyz 0 1 
|  3> C          3.91385       -1.65829        3.01513
|  4> C          5.03927       -0.90115        2.49282
|  5> C          6.21038       -1.41726        2.17824
|  6> N          6.53591       -2.67712        2.55608
|  7> N          7.07675       -0.70082        1.47891
|  8> H          7.95464       -1.12155        1.20755
|  9> H          6.75616        0.10664        0.96028
| 10> H          4.84217        0.01761        2.11519
| 11> H          5.99388       -3.12692        3.28278
| 12> H          7.49844       -2.97548        2.46878
| 13> H          3.08844       -0.99893        3.18495
| 14> H          4.19412       -2.12366        3.93697
| 15> H          3.63051       -2.40965        2.30798
| 16> *
| 17> %MaxCore 64000
| 18> %pal nprocs 8
| 19> end  
| 20> %scf
| 21>   MaxIter 150
| 22> end
| 23> 
| 24> 
| 25>                          ****END OF INPUT****
================================================================================

                       ****************************
                       * Single Point Calculation *
                       ****************************

---------------------------------
CARTESIAN COORDINATES (ANGSTROEM)
---------------------------------
  C      3.913850   -1.658290    3.015130
  C      5.039270   -0.901150    2.492820
  C      6.210380   -1.417260    2.178240
  N      6.535910   -2.677120    2.556080
  N      7.076750   -0.700820    1.478910
  H      7.954640   -1.121550    1.207550
  H      6.756160    0.106640    0.960280
  H      4.842170    0.017610    2.115190
  H      5.993880   -3.126920    3.282780
  H      7.498440   -2.975480    2.468780
  H      3.088440   -0.998930    3.184950
  H      4.194120   -2.123660    3.936970
  H      3.630510   -2.409650    2.307980

----------------------------
CARTESIAN COORDINATES (A.U.)
----------------------------
  NO LB      ZA    FRAG     MASS         X           Y           Z
   0 C     6.0000    0    12.011    7.396105   -3.133714    5.697770
   1 C     6.0000    0    12.011    9.522840   -1.702927    4.710747
   2 C     6.0000    0    12.011   11.735917   -2.678233    4.116277
   3 N     7.0000    0    14.007   12.351080   -5.059024    4.830291
   4 N     7.0000    0    14.007   13.373119   -1.324358    2.794735
   5 H     1.0000    0     1.008   15.032091   -2.119422    2.281939
   6 H     1.0000    0     1.008   12.767292    0.201520    1.814666
   7 H     1.0000    0     1.008    9.150375    0.033278    3.997130
   8 H     1.0000    0     1.008   11.326792   -5.909022    6.203555
   9 H     1.0000    0     1.008   14.169998   -5.622842    4.665318
  10 H     1.0000    0     1.008    5.836306   -1.887704    6.018683
  11 H     1.0000    0     1.008    7.925738   -4.013136    7.439795
  12 H     1.0000    0     1.008    6.860670   -4.553579    4.361450

--------------------------------
INTERNAL COORDINATES (ANGSTROEM)
--------------------------------
 C      0   0   0     0.000000000000     0.00000000     0.00000000
 C      1   0   0     1.453491964924     0.00000000     0.00000000
 C      2   1   0     1.317887984845   124.73835169     0.00000000
 N      3   2   1     1.354983419124   120.73403866   347.55202727
 N      3   2   1     1.323988557126   119.71276588   167.17476346
 H      5   3   2     1.010614087869   119.01099491   182.74777963
 H      5   3   2     1.011803674929   119.68601722   341.90337810
 H      2   1   3     1.012705665285   117.12212345   162.88502277
 H      4   3   2     1.012032336885   119.00005651   343.56055706
 H      4   3   2     1.011486025855   118.60805662   192.39046690
 H      1   2   3     1.069998182288   109.47092845   180.00010546
 H      1   2   3     1.070004437094   109.47124974    60.00007885
 H      1   2   3     1.069992769929   109.47126227   300.00015791

---------------------------
INTERNAL COORDINATES (A.U.)
---------------------------
 C      0   0   0     0.000000000000     0.00000000     0.00000000
 C      1   0   0     2.746701751562     0.00000000     0.00000000
 C      2   1   0     2.490447366543   124.73835169     0.00000000
 N      3   2   1     2.560547578148   120.73403866   347.55202727
 N      3   2   1     2.501975777413   119.71276588   167.17476346
 H      5   3   2     1.909783853156   119.01099491   182.74777963
 H      5   3   2     1.912031846911   119.68601722   341.90337810
 H      2   1   3     1.913736361659   117.12212345   162.88502277
 H      4   3   2     1.912463955384   119.00005651   343.56055706
 H      4   3   2     1.911431577154   118.60805662   192.39046690
 H      1   2   3     2.022003528318   109.47092845   180.00010546
 H      1   2   3     2.022015348187   109.47124974    60.00007885
 H      1   2   3     2.021993300441   109.47126227   300.00015791

---------------------
BASIS SET INFORMATION
---------------------
There are 3 groups of distinct atoms

 Group   1 Type C   : 8s4p2d contracted to 4s2p2d pattern {5111/31/11}
 Group   2 Type N   : 8s4p2d contracted to 4s2p2d pattern {5111/31/11}
 Group   3 Type H   : 4s2p contracted to 2s2p pattern {31/11}

Atom   0C    basis set group =>   1
Atom   1C    basis set group =>   1
Atom   2C    basis set group =>   1
Atom   3N    basis set group =>   2
Atom   4N    basis set group =>   2
Atom   5H    basis set group =>   3
Atom   6H    basis set group =>   3
Atom   7H    basis set group =>   3
Atom   8H    basis set group =>   3
Atom   9H    basis set group =>   3
Atom  10H    basis set group =>   3
Atom  11H    basis set group =>   3
Atom  12H    basis set group =>   3
---------------------------------
AUXILIARY/J BASIS SET INFORMATION
---------------------------------
There are 3 groups of distinct atoms

 Group   1 Type C   : 12s5p4d2f1g contracted to 6s4p3d1f1g pattern {711111/2111/211/2/1}
 Group   2 Type N   : 12s5p4d2f1g contracted to 6s4p3d1f1g pattern {711111/2111/211/2/1}
 Group   3 Type H   : 5s2p1d contracted to 3s1p1d pattern {311/2/1}

Atom   0C    basis set group =>   1
Atom   1C    basis set group =>   1
Atom   2C    basis set group =>   1
Atom   3N    basis set group =>   2
Atom   4N    basis set group =>   2
Atom   5H    basis set group =>   3
Atom   6H    basis set group =>   3
Atom   7H    basis set group =>   3
Atom   8H    basis set group =>   3
Atom   9H    basis set group =>   3
Atom  10H    basis set group =>   3
Atom  11H    basis set group =>   3
Atom  12H    basis set group =>   3


           ************************************************************
           *        Program running with 8 parallel MPI-processes     *
           *              working on a common directory               *
           ************************************************************
------------------------------------------------------------------------------
                           ORCA GTO INTEGRAL CALCULATION
                           -- RI-GTO INTEGRALS CHOSEN --
------------------------------------------------------------------------------
------------------------------------------------------------------------------
                   ___                                                        
                  /   \      - P O W E R E D   B Y -                         
                 /     \                                                     
                 |  |  |   _    _      __       _____    __    __             
                 |  |  |  | |  | |    /  \     |  _  \  |  |  /  |          
                  \  \/   | |  | |   /    \    | | | |  |  | /  /          
                 / \  \   | |__| |  /  /\  \   | |_| |  |  |/  /          
                |  |  |   |  __  | /  /__\  \  |    /   |      \           
                |  |  |   | |  | | |   __   |  |    \   |  |\   \          
                \     /   | |  | | |  |  |  |  | |\  \  |  | \   \       
                 \___/    |_|  |_| |__|  |__|  |_| \__\ |__|  \__/        
                                                                              
                      - O R C A' S   B I G   F R I E N D -                    
                                      &                                       
                       - I N T E G R A L  F E E D E R -                       
                                                                              
 v1 FN, 2020, v2 2021                                                         
------------------------------------------------------------------------------


Reading SHARK input file 18Feb_SVPD_CAMB3LYP_C1_wb97_typm1_new_pos.SHARKINP.tmp ... ok
----------------------
SHARK INTEGRAL PACKAGE
----------------------

Number of atoms                             ...     13
Number of basis functions                   ...    164
Number of shells                            ...     72
Maximum angular momentum                    ...      2
Integral batch strategy                     ... SHARK/LIBINT Hybrid
RI-J (if used) integral strategy            ... SPLIT-RIJ (Revised 2003 algorithm where possible)
Printlevel                                  ...      1
Contraction scheme used                     ... SEGMENTED contraction
Coulomb Range Separation                    ... NOT USED
Exchange Range Separation                   ... Long Range
   Mu parameter                             ...  0.330000
   Scaling (regular/separated)              ...  0.190000  0.460000
Finite Nucleus Model                        ... NOT USED
Auxiliary Coulomb fitting basis             ... AVAILABLE
   # of basis functions in Aux-J            ...    333
   # of shells in Aux-J                     ...    115
   Maximum angular momentum in Aux-J        ...      4
Auxiliary J/K fitting basis                 ... NOT available
Auxiliary Correlation fitting basis         ... NOT available
Auxiliary 'external' fitting basis          ... NOT available
Integral threshold                          ...     2.500000e-11
Primitive cut-off                           ...     2.500000e-12
Primitive pair pre-selection threshold      ...     2.500000e-12

Calculating pre-screening integrals         ... done (  0.0 sec) Dimension = 72
Organizing shell pair data                  ... done (  0.0 sec)
Shell pair information
Total number of shell pairs                 ...      2628
Shell pairs after pre-screening             ...      2604
Total number of primitive shell pairs       ...      7110
Primitive shell pairs kept                  ...      6008
          la=0 lb=0:    658 shell pairs
          la=1 lb=0:    926 shell pairs
          la=1 lb=1:    347 shell pairs
          la=2 lb=0:    358 shell pairs
          la=2 lb=1:    260 shell pairs
          la=2 lb=2:     55 shell pairs

Calculating one electron integrals          ... done (  0.0 sec)
Calculating RI/J V-Matrix + Cholesky decomp.... done (  0.0 sec)
Calculating Nuclear repulsion               ... done (  0.0 sec) ENN=    184.187578606795 Eh

SHARK setup successfully completed in   0.2 seconds

Maximum memory used throughout the entire GTOINT-calculation: 8.9 MB


           ************************************************************
           *        Program running with 8 parallel MPI-processes     *
           *              working on a common directory               *
           ************************************************************
-------------------------------------------------------------------------------
                                 ORCA SCF
-------------------------------------------------------------------------------

------------
SCF SETTINGS
------------
Hamiltonian:
 Density Functional     Method          .... DFT(GTOs)
 Exchange Functional    Exchange        .... WB88
 Correlation Functional Correlation     .... LYP
 LDA part of GGA corr.  LDAOpt          .... VWN-5
 Gradients option       PostSCFGGA      .... off
 Hybrid DFT is turned on
   Fraction HF Exchange ScalHFX         ....  0.190000
   Scaling of DF-GGA-X  ScalDFX         ....  0.350000
   Scaling of DF-GGA-C  ScalDFC         ....  0.810000
   Scaling of DF-LDA-C  ScalLDAC        ....  1.000000
   Perturbative correction              ....  0.000000
   Density functional embedding theory  .... OFF
 Long-range corrected/Screened/Range-Separated Hybrid DFT is turned on
   Amount of maximum screened exact exchange              ....  0.460000
   Range separation parameter mu (erf(mu*r12)/r12)        ....  0.330000
 RI-approximation to the Coulomb term is turned on
   Number of AuxJ basis functions       .... 333
   RIJ-COSX (HFX calculated with COS-X)).... on


General Settings:
 Integral files         IntName         .... 18Feb_SVPD_CAMB3LYP_C1_wb97_typm1_new_pos
 Hartree-Fock type      HFTyp           .... RHF
 Total Charge           Charge          ....    0
 Multiplicity           Mult            ....    1
 Number of Electrons    NEL             ....   40
 Basis Dimension        Dim             ....  164
 Nuclear Repulsion      ENuc            ....    184.1875786068 Eh

Convergence Acceleration:
 DIIS                   CNVDIIS         .... on
   Start iteration      DIISMaxIt       ....    12
   Startup error        DIISStart       ....  0.200000
   # of expansion vecs  DIISMaxEq       ....     5
   Bias factor          DIISBfac        ....   1.050
   Max. coefficient     DIISMaxC        ....  10.000
 Trust-Rad. Augm. Hess. CNVTRAH         .... auto
   Auto Start mean grad. ratio tolernc. ....  1.125000
   Auto Start start iteration           ....    20
   Auto Start num. interpolation iter.  ....    10
   Max. Number of Micro iterations      ....    16
   Max. Number of Macro iterations      .... Maxiter - #DIIS iter
   Number of Davidson start vectors     ....     2
   Converg. threshold I  (grad. norm)   ....   1.000e-05
   Converg. threshold II (energy diff.) ....   1.000e-08
   Grad. Scal. Fac. for Micro threshold ....   0.100
   Minimum threshold for Micro iter.    ....   0.010
   NR start threshold (gradient norm)   ....   0.001
   Initial trust radius                 ....   0.400
   Minimum AH scaling param. (alpha)    ....   1.000
   Maximum AH scaling param. (alpha)    .... 1000.000
   Orbital update algorithm             .... Taylor
   White noise on init. David. guess    .... on
   Maximum white noise                  ....   0.010
   Quad. conv. algorithm                .... NR
 SOSCF                  CNVSOSCF        .... on
   Start iteration      SOSCFMaxIt      ....   150
   Startup grad/error   SOSCFStart      ....  0.003300
 Level Shifting         CNVShift        .... on
   Level shift para.    LevelShift      ....    0.2500
   Turn off err/grad.   ShiftErr        ....    0.0010
 Zerner damping         CNVZerner       .... off
 Static damping         CNVDamp         .... on
   Fraction old density DampFac         ....    0.7000
   Max. Damping (<1)    DampMax         ....    0.9800
   Min. Damping (>=0)   DampMin         ....    0.0000
   Turn off err/grad.   DampErr         ....    0.1000
 Fernandez-Rico         CNVRico         .... off

SCF Procedure:
 Maximum # iterations   MaxIter         ....   150
 SCF integral mode      SCFMode         .... Direct
   Integral package                     .... SHARK and LIBINT hybrid scheme
 Reset frequency        DirectResetFreq ....    20
 Integral Threshold     Thresh          ....  2.500e-11 Eh
 Primitive CutOff       TCut            ....  2.500e-12 Eh

Convergence Tolerance:
 Convergence Check Mode ConvCheckMode   .... Total+1el-Energy
 Convergence forced     ConvForced      .... 0
 Energy Change          TolE            ....  1.000e-08 Eh
 1-El. energy change                    ....  1.000e-05 Eh
 Orbital Gradient       TolG            ....  1.000e-05
 Orbital Rotation angle TolX            ....  1.000e-05
 DIIS Error             TolErr          ....  5.000e-07


Diagonalization of the overlap matrix:
Smallest eigenvalue                        ... 4.612e-05
Time for diagonalization                   ...    0.008 sec
Threshold for overlap eigenvalues          ... 1.000e-08
Number of eigenvalues below threshold      ... 0
Time for construction of square roots      ...    0.007 sec
Total time needed                          ...    0.017 sec

Time for model grid setup =    0.055 sec

------------------------------
INITIAL GUESS: MODEL POTENTIAL
------------------------------
Loading Hartree-Fock densities                     ... done
Calculating cut-offs                               ... done
Initializing the effective Hamiltonian             ... done
Setting up the integral package (SHARK)            ... done
Starting the Coulomb interaction                   ... done (   0.0 sec)
Reading the grid                                   ... done
Mapping shells                                     ... done
Starting the XC term evaluation                    ... done (   0.0 sec)
  promolecular density results
     # of electrons  =     39.997395969
     EX              =    -30.876018969
     EC              =     -1.314229192
     EX+EC           =    -32.190248161
Transforming the Hamiltonian                       ... done (   0.0 sec)
Diagonalizing the Hamiltonian                      ... done (   0.0 sec)
Back transforming the eigenvectors                 ... done (   0.0 sec)
Now organizing SCF variables                       ... done
                      ------------------
                      INITIAL GUESS DONE (   0.1 sec)
                      ------------------
-------------------
DFT GRID GENERATION
-------------------

General Integration Accuracy     IntAcc      ... 4.388
Radial Grid Type                 RadialGrid  ... OptM3 with GC (2021)
Angular Grid (max. ang.)         AngularGrid ... 4 (Lebedev-302)
Angular grid pruning method      GridPruning ... 4 (adaptive)
Weight generation scheme         WeightScheme... Becke
Basis function cutoff            BFCut       ... 1.0000e-11
Integration weight cutoff        WCut        ... 1.0000e-14
Angular grids for H and He will be reduced by one unit
Partially contracted basis set               ... off
Rotationally invariant grid construction     ... off

Total number of grid points                  ...    57717
Total number of batches                      ...      907
Average number of points per batch           ...       63
Average number of grid points per atom       ...     4440
Time for grid setup =    0.313 sec

--------------------
COSX GRID GENERATION
--------------------

GRIDX 1
-------
General Integration Accuracy     IntAcc      ... 3.816
Radial Grid Type                 RadialGrid  ... OptM3 with GC (2021)
Angular Grid (max. ang.)         AngularGrid ... 1 (Lebedev-50)
Angular grid pruning method      GridPruning ... 4 (adaptive)
Weight generation scheme         WeightScheme... Becke
Basis function cutoff            BFCut       ... 1.0000e-11
Integration weight cutoff        WCut        ... 1.0000e-14
Angular grids for H and He will be reduced by one unit
Partially contracted basis set               ... on
Rotationally invariant grid construction     ... off

Total number of grid points                  ...     7217
Total number of batches                      ...      121
Average number of points per batch           ...       59
Average number of grid points per atom       ...      555
UseSFitting                                  ... on

GRIDX 2
-------
General Integration Accuracy     IntAcc      ... 4.020
Radial Grid Type                 RadialGrid  ... OptM3 with GC (2021)
Angular Grid (max. ang.)         AngularGrid ... 2 (Lebedev-110)
Angular grid pruning method      GridPruning ... 4 (adaptive)
Weight generation scheme         WeightScheme... Becke
Basis function cutoff            BFCut       ... 1.0000e-11
Integration weight cutoff        WCut        ... 1.0000e-14
Angular grids for H and He will be reduced by one unit
Partially contracted basis set               ... on
Rotationally invariant grid construction     ... off

Total number of grid points                  ...    15968
Total number of batches                      ...      257
Average number of points per batch           ...       62
Average number of grid points per atom       ...     1228
UseSFitting                                  ... on

GRIDX 3
-------
General Integration Accuracy     IntAcc      ... 4.338
Radial Grid Type                 RadialGrid  ... OptM3 with GC (2021)
Angular Grid (max. ang.)         AngularGrid ... 3 (Lebedev-194)
Angular grid pruning method      GridPruning ... 4 (adaptive)
Weight generation scheme         WeightScheme... Becke
Basis function cutoff            BFCut       ... 1.0000e-11
Integration weight cutoff        WCut        ... 1.0000e-14
Angular grids for H and He will be reduced by one unit
Partially contracted basis set               ... on
Rotationally invariant grid construction     ... off

Total number of grid points                  ...    36637
Total number of batches                      ...      580
Average number of points per batch           ...       63
Average number of grid points per atom       ...     2818
UseSFitting                                  ... on

Time for X-Grid setup             =    0.248 sec

--------------
SCF ITERATIONS
--------------
ITER       Energy         Delta-E        Max-DP      RMS-DP      [F,P]     Damp
               ***  Starting incremental Fock matrix formation  ***
  0   -228.0823468047   0.000000000000 0.10788338  0.00342825  0.1994760 0.7000
  1   -228.1915954590  -0.109248654315 0.12578911  0.00281795  0.1060918 0.7000
                               ***Turning on DIIS***
  2   -228.2421403604  -0.050544901397 0.29465265  0.00598598  0.0453793 0.0000
  3   -228.3154421407  -0.073301780294 0.05999712  0.00172949  0.0513343 0.0000
  4   -228.3326602033  -0.017218062526 0.01432004  0.00041826  0.0092391 0.0000
                      *** Initiating the SOSCF procedure ***
                           *** Shutting down DIIS ***
                      *** Re-Reading the Fockian *** 
                      *** Removing any level shift *** 
ITER      Energy       Delta-E        Grad      Rot      Max-DP    RMS-DP
  5   -228.33319494  -0.0005347327  0.000675  0.000675  0.008687  0.000189
               *** Restarting incremental Fock matrix formation ***
  6   -228.33319880  -0.0000038639  0.000309  0.000704  0.006621  0.000158
  7   -228.33320417  -0.0000053696  0.000253  0.000674  0.001801  0.000056
  8   -228.33320712  -0.0000029540  0.000041  0.000083  0.000740  0.000019
  9   -228.33320718  -0.0000000518  0.000037  0.000052  0.000222  0.000006
 10   -228.33320725  -0.0000000765  0.000004  0.000016  0.000059  0.000002
                  ***Gradient check signals convergence***
              ***Rediagonalizing the Fockian in SOSCF/NRSCF***

               *****************************************************
               *                     SUCCESS                       *
               *           SCF CONVERGED AFTER  11 CYCLES          *
               *****************************************************

Old exchange energy                            =     -9.146924392 Eh
New exchange energy                            =     -9.146959091 Eh
Exchange energy change after final integration =     -0.000034699 Eh
Total energy after final integration           =   -228.333241951 Eh
Final COS-X integration done in                =     1.955 sec

----------------
TOTAL SCF ENERGY
----------------

Total Energy       :         -228.33324195 Eh           -6213.26339 eV

Components:
Nuclear Repulsion  :          184.18757861 Eh            5011.99882 eV
Electronic Energy  :         -412.52082056 Eh          -11225.26221 eV
One Electron Energy:         -672.23569310 Eh          -18292.46318 eV
Two Electron Energy:          259.71487254 Eh            7067.20097 eV
Max COSX asymmetry :            0.00000410 Eh               0.00011 eV

Virial components:
Potential Energy   :         -454.70295536 Eh          -12373.09645 eV
Kinetic Energy     :          226.36971341 Eh            6159.83306 eV
Virial Ratio       :            2.00867399


DFT components:
N(Alpha)           :       20.000023552644 electrons
N(Beta)            :       20.000023552644 electrons
N(Total)           :       40.000047105288 electrons
E(XC)              :      -23.945646885896 Eh       
DFET-embed. en.    :        0.000000000000 Eh       

---------------
SCF CONVERGENCE
---------------

  Last Energy change         ...   -8.8448e-11  Tolerance :   1.0000e-08
  Last MAX-Density change    ...    3.1086e-15  Tolerance :   1.0000e-07
  Last RMS-Density change    ...    4.5660e-17  Tolerance :   5.0000e-09
  Last Orbital Gradient      ...    2.1199e-06  Tolerance :   1.0000e-05
  Last Orbital Rotation      ...    6.3513e-06  Tolerance :   1.0000e-05

             **** THE GBW FILE WAS UPDATED (18Feb_SVPD_CAMB3LYP_C1_wb97_typm1_new_pos.gbw) ****
             **** DENSITY 18Feb_SVPD_CAMB3LYP_C1_wb97_typm1_new_pos.scfp WAS UPDATED ****
             **** ENERGY FILE WAS UPDATED (18Feb_SVPD_CAMB3LYP_C1_wb97_typm1_new_pos.en.tmp) ****
             **** THE GBW FILE WAS UPDATED (18Feb_SVPD_CAMB3LYP_C1_wb97_typm1_new_pos.gbw) ****
             **** DENSITY 18Feb_SVPD_CAMB3LYP_C1_wb97_typm1_new_pos.scfp WAS UPDATED ****
----------------
ORBITAL ENERGIES
----------------

  NO   OCC          E(Eh)            E(eV) 
   0   2.0000     -14.406723      -392.0269 
   1   2.0000     -14.402597      -391.9146 
   2   2.0000     -10.300481      -280.2903 
   3   2.0000     -10.222542      -278.1695 
   4   2.0000     -10.180493      -277.0253 
   5   2.0000      -1.035002       -28.1638 
   6   2.0000      -0.942202       -25.6386 
   7   2.0000      -0.830122       -22.5888 
   8   2.0000      -0.730826       -19.8868 
   9   2.0000      -0.655980       -17.8501 
  10   2.0000      -0.611299       -16.6343 
  11   2.0000      -0.580168       -15.7872 
  12   2.0000      -0.541708       -14.7406 
  13   2.0000      -0.495027       -13.4704 
  14   2.0000      -0.482785       -13.1372 
  15   2.0000      -0.443843       -12.0776 
  16   2.0000      -0.428407       -11.6575 
  17   2.0000      -0.405941       -11.0462 
  18   2.0000      -0.332915        -9.0591 
  19   2.0000      -0.218035        -5.9330 
  20   0.0000       0.046842         1.2746 
  21   0.0000       0.073702         2.0055 
  22   0.0000       0.085583         2.3288 
  23   0.0000       0.111742         3.0407 
  24   0.0000       0.114196         3.1074 
  25   0.0000       0.124342         3.3835 
  26   0.0000       0.136677         3.7192 
  27   0.0000       0.149549         4.0694 
  28   0.0000       0.174039         4.7358 
  29   0.0000       0.182862         4.9759 
  30   0.0000       0.191077         5.1995 
  31   0.0000       0.197054         5.3621 
  32   0.0000       0.206984         5.6323 
  33   0.0000       0.217383         5.9153 
  34   0.0000       0.231991         6.3128 
  35   0.0000       0.237180         6.4540 
  36   0.0000       0.257430         7.0050 
  37   0.0000       0.266846         7.2612 
  38   0.0000       0.292762         7.9665 
  39   0.0000       0.301274         8.1981 
  40   0.0000       0.311672         8.4810 
  41   0.0000       0.315682         8.5901 
  42   0.0000       0.335077         9.1179 
  43   0.0000       0.338998         9.2246 
  44   0.0000       0.349872         9.5205 
  45   0.0000       0.360745         9.8164 
  46   0.0000       0.368059        10.0154 
  47   0.0000       0.370809        10.0902 
  48   0.0000       0.390743        10.6327 
  49   0.0000       0.402299        10.9471 
  50   0.0000       0.407608        11.0916 
  51   0.0000       0.413959        11.2644 
  52   0.0000       0.418346        11.3838 
  53   0.0000       0.425974        11.5914 
  54   0.0000       0.437405        11.9024 
  55   0.0000       0.453412        12.3380 
  56   0.0000       0.456352        12.4180 
  57   0.0000       0.477431        12.9916 
  58   0.0000       0.482157        13.1202 
  59   0.0000       0.488429        13.2908 
  60   0.0000       0.503001        13.6873 
  61   0.0000       0.503693        13.7062 
  62   0.0000       0.514350        13.9962 
  63   0.0000       0.526672        14.3315 
  64   0.0000       0.532800        14.4982 
  65   0.0000       0.545201        14.8357 
  66   0.0000       0.555282        15.1100 
  67   0.0000       0.563922        15.3451 
  68   0.0000       0.565285        15.3822 
  69   0.0000       0.587266        15.9803 
  70   0.0000       0.607005        16.5174 
  71   0.0000       0.607184        16.5223 
  72   0.0000       0.619495        16.8573 
  73   0.0000       0.631109        17.1734 
  74   0.0000       0.648944        17.6587 
  75   0.0000       0.651501        17.7282 
  76   0.0000       0.686105        18.6699 
  77   0.0000       0.699723        19.0404 
  78   0.0000       0.710860        19.3435 
  79   0.0000       0.726598        19.7717 
  80   0.0000       0.729131        19.8407 
  81   0.0000       0.762156        20.7393 
  82   0.0000       0.773358        21.0441 
  83   0.0000       0.783292        21.3145 
  84   0.0000       0.805973        21.9317 
  85   0.0000       0.820280        22.3210 
  86   0.0000       0.835110        22.7245 
  87   0.0000       0.951154        25.8822 
  88   0.0000       0.966231        26.2925 
  89   0.0000       1.008624        27.4461 
  90   0.0000       1.022740        27.8302 
  91   0.0000       1.049709        28.5640 
  92   0.0000       1.064842        28.9758 
  93   0.0000       1.082333        29.4518 
  94   0.0000       1.094877        29.7931 
  95   0.0000       1.121132        30.5075 
  96   0.0000       1.134784        30.8790 
  97   0.0000       1.167173        31.7604 
  98   0.0000       1.180662        32.1274 
  99   0.0000       1.192483        32.4491 
 100   0.0000       1.235633        33.6233 
 101   0.0000       1.246830        33.9280 
 102   0.0000       1.261319        34.3222 
 103   0.0000       1.321948        35.9720 
 104   0.0000       1.336424        36.3660 
 105   0.0000       1.354456        36.8566 
 106   0.0000       1.390504        37.8375 
 107   0.0000       1.406199        38.2646 
 108   0.0000       1.474030        40.1104 
 109   0.0000       1.560864        42.4733 
 110   0.0000       1.598964        43.5100 
 111   0.0000       1.634629        44.4805 
 112   0.0000       1.667200        45.3668 
 113   0.0000       1.677344        45.6428 
 114   0.0000       1.692971        46.0681 
 115   0.0000       1.744706        47.4759 
 116   0.0000       1.774727        48.2928 
 117   0.0000       1.790073        48.7104 
 118   0.0000       1.817173        49.4478 
 119   0.0000       1.819956        49.5235 
 120   0.0000       1.890857        51.4528 
 121   0.0000       1.901590        51.7449 
 122   0.0000       1.937039        52.7095 
 123   0.0000       1.975885        53.7666 
 124   0.0000       1.986192        54.0470 
 125   0.0000       2.050263        55.7905 
 126   0.0000       2.081303        56.6351 
 127   0.0000       2.090728        56.8916 
 128   0.0000       2.125705        57.8434 
 129   0.0000       2.142948        58.3126 
 130   0.0000       2.148288        58.4579 
 131   0.0000       2.155082        58.6428 
 132   0.0000       2.185654        59.4747 
 133   0.0000       2.216742        60.3206 
 134   0.0000       2.220334        60.4184 
 135   0.0000       2.264786        61.6280 
 136   0.0000       2.292736        62.3885 
 137   0.0000       2.342546        63.7439 
 138   0.0000       2.371210        64.5239 
 139   0.0000       2.398118        65.2561 
 140   0.0000       2.445689        66.5506 
 141   0.0000       2.469913        67.2097 
 142   0.0000       2.489413        67.7404 
 143   0.0000       2.555471        69.5379 
 144   0.0000       2.574997        70.0692 
 145   0.0000       2.607492        70.9535 
 146   0.0000       2.691556        73.2410 
 147   0.0000       2.755088        74.9698 
 148   0.0000       2.784951        75.7824 
 149   0.0000       2.827563        76.9419 
 150   0.0000       2.870580        78.1124 
 151   0.0000       2.953761        80.3759 
 152   0.0000       3.010534        81.9208 
 153   0.0000       3.085746        83.9674 
 154   0.0000       3.168394        86.2164 
 155   0.0000       3.207904        87.2915 
 156   0.0000       3.251977        88.4908 
 157   0.0000       3.293579        89.6228 
 158   0.0000       3.342412        90.9516 
 159   0.0000       3.390589        92.2626 
 160   0.0000       3.409043        92.7648 
 161   0.0000       3.483523        94.7915 
 162   0.0000       3.789421       103.1154 
 163   0.0000       3.805351       103.5489 

                    ********************************
                    * MULLIKEN POPULATION ANALYSIS *
                    ********************************

-----------------------
MULLIKEN ATOMIC CHARGES
-----------------------
   0 C :    1.014213
   1 C :   -0.610825
   2 C :    0.774068
   3 N :    0.059505
   4 N :    0.163458
   5 H :   -0.188039
   6 H :   -0.089666
   7 H :   -0.407807
   8 H :   -0.086332
   9 H :   -0.267067
  10 H :   -0.160464
  11 H :   -0.079845
  12 H :   -0.121200
Sum of atomic charges:   -0.0000000

--------------------------------
MULLIKEN REDUCED ORBITAL CHARGES
--------------------------------
  0 C s       :     2.210102  s :     2.210102
      pz      :     0.892377  p :     2.711292
      px      :     0.924237
      py      :     0.894679
      dz2     :     0.002782  d :     0.064393
      dxz     :     0.024715
      dyz     :    -0.005599
      dx2y2   :     0.054558
      dxy     :    -0.012063
  1 C s       :     3.260342  s :     3.260342
      pz      :     1.092211  p :     2.843374
      px      :     0.987190
      py      :     0.763973
      dz2     :     0.042606  d :     0.507109
      dxz     :     0.040434
      dyz     :     0.095320
      dx2y2   :     0.217039
      dxy     :     0.111709
  2 C s       :     2.696517  s :     2.696517
      pz      :     0.836997  p :     2.369183
      px      :     0.746737
      py      :     0.785449
      dz2     :     0.013226  d :     0.160232
      dxz     :     0.106338
      dyz     :     0.009675
      dx2y2   :    -0.031503
      dxy     :     0.062497
  3 N s       :     3.305156  s :     3.305156
      pz      :     1.404734  p :     3.635434
      px      :     1.067822
      py      :     1.162878
      dz2     :    -0.002284  d :    -0.000095
      dxz     :    -0.002056
      dyz     :     0.002194
      dx2y2   :    -0.006778
      dxy     :     0.008829
  4 N s       :     3.230433  s :     3.230433
      pz      :     1.389608  p :     3.611123
      px      :     1.051938
      py      :     1.169577
      dz2     :     0.010179  d :    -0.005014
      dxz     :     0.004047
      dyz     :    -0.011095
      dx2y2   :    -0.004675
      dxy     :    -0.003470
  5 H s       :     1.131328  s :     1.131328
      pz      :     0.047471  p :     0.056711
      px      :     0.025421
      py      :    -0.016182
  6 H s       :     1.061892  s :     1.061892
      pz      :     0.038778  p :     0.027775
      px      :    -0.028201
      py      :     0.017198
  7 H s       :     1.294938  s :     1.294938
      pz      :     0.082391  p :     0.112869
      px      :    -0.007041
      py      :     0.037520
  8 H s       :     1.053382  s :     1.053382
      pz      :     0.020306  p :     0.032950
      px      :    -0.004634
      py      :     0.017277
  9 H s       :     1.205150  s :     1.205150
      pz      :     0.043855  p :     0.061917
      px      :    -0.003036
      py      :     0.021098
 10 H s       :     1.110549  s :     1.110549
      pz      :    -0.030404  p :     0.049915
      px      :     0.009206
      py      :     0.071113
 11 H s       :     1.025156  s :     1.025156
      pz      :     0.039758  p :     0.054689
      px      :     0.031216
      py      :    -0.016286
 12 H s       :     1.097063  s :     1.097063
      pz      :     0.029909  p :     0.024137
      px      :    -0.018325
      py      :     0.012553


                     *******************************
                     * LOEWDIN POPULATION ANALYSIS *
                     *******************************

----------------------
LOEWDIN ATOMIC CHARGES
----------------------
   0 C :    0.083972
   1 C :   -0.069917
   2 C :   -0.234160
   3 N :    0.204345
   4 N :    0.176529
   5 H :   -0.011971
   6 H :    0.005986
   7 H :   -0.054629
   8 H :   -0.014703
   9 H :   -0.015194
  10 H :   -0.019012
  11 H :   -0.031499
  12 H :   -0.019746

-------------------------------
LOEWDIN REDUCED ORBITAL CHARGES
-------------------------------
  0 C s       :     2.695215  s :     2.695215
      pz      :     0.924217  p :     2.773401
      px      :     0.922543
      py      :     0.926641
      dz2     :     0.077309  d :     0.447412
      dxz     :     0.076063
      dyz     :     0.100662
      dx2y2   :     0.074969
      dxy     :     0.118410
  1 C s       :     2.694519  s :     2.694519
      pz      :     0.929969  p :     2.758673
      px      :     0.910725
      py      :     0.917979
      dz2     :     0.074783  d :     0.616725
      dxz     :     0.128948
      dyz     :     0.076077
      dx2y2   :     0.179654
      dxy     :     0.157263
  2 C s       :     2.631058  s :     2.631058
      pz      :     0.774753  p :     2.527556
      px      :     0.917413
      py      :     0.835389
      dz2     :     0.170885  d :     1.075546
      dxz     :     0.194365
      dyz     :     0.192026
      dx2y2   :     0.256744
      dxy     :     0.261525
  3 N s       :     2.932291  s :     2.932291
      pz      :     1.276961  p :     3.529268
      px      :     1.099101
      py      :     1.153206
      dz2     :     0.043756  d :     0.334096
      dxz     :     0.028379
      dyz     :     0.082648
      dx2y2   :     0.083632
      dxy     :     0.095680
  4 N s       :     2.924597  s :     2.924597
      pz      :     1.281202  p :     3.544530
      px      :     1.111976
      py      :     1.151352
      dz2     :     0.060242  d :     0.354344
      dxz     :     0.069772
      dyz     :     0.060069
      dx2y2   :     0.095518
      dxy     :     0.068743
  5 H s       :     0.663858  s :     0.663858
      pz      :     0.111489  p :     0.348113
      px      :     0.133214
      py      :     0.103410
  6 H s       :     0.651904  s :     0.651904
      pz      :     0.120005  p :     0.342109
      px      :     0.091326
      py      :     0.130778
  7 H s       :     0.754946  s :     0.754946
      pz      :     0.109361  p :     0.299683
      px      :     0.075476
      py      :     0.114846
  8 H s       :     0.645587  s :     0.645587
      pz      :     0.150416  p :     0.369116
      px      :     0.122275
      py      :     0.096425
  9 H s       :     0.666439  s :     0.666439
      pz      :     0.109170  p :     0.348755
      px      :     0.150105
      py      :     0.089480
 10 H s       :     0.741145  s :     0.741145
      pz      :     0.075902  p :     0.277867
      px      :     0.104858
      py      :     0.097107
 11 H s       :     0.738329  s :     0.738329
      pz      :     0.118328  p :     0.293170
      px      :     0.086348
      py      :     0.088494
 12 H s       :     0.741092  s :     0.741092
      pz      :     0.099623  p :     0.278655
      px      :     0.075465
      py      :     0.103567


                      *****************************
                      * MAYER POPULATION ANALYSIS *
                      *****************************

  NA   - Mulliken gross atomic population
  ZA   - Total nuclear charge
  QA   - Mulliken gross atomic charge
  VA   - Mayer's total valence
  BVA  - Mayer's bonded valence
  FA   - Mayer's free valence

  ATOM       NA         ZA         QA         VA         BVA        FA
  0 C      4.9858     6.0000     1.0142     3.5274     3.5274     0.0000
  1 C      6.6108     6.0000    -0.6108     5.0371     5.0371    -0.0000
  2 C      5.2259     6.0000     0.7741     3.2930     3.2930    -0.0000
  3 N      6.9405     7.0000     0.0595     3.6676     3.6676    -0.0000
  4 N      6.8365     7.0000     0.1635     3.7139     3.7139    -0.0000
  5 H      1.1880     1.0000    -0.1880     0.9629     0.9629    -0.0000
  6 H      1.0897     1.0000    -0.0897     0.8671     0.8671    -0.0000
  7 H      1.4078     1.0000    -0.4078     1.2801     1.2801     0.0000
  8 H      1.0863     1.0000    -0.0863     0.9144     0.9144    -0.0000
  9 H      1.2671     1.0000    -0.2671     0.9781     0.9781     0.0000
 10 H      1.1605     1.0000    -0.1605     1.0490     1.0490    -0.0000
 11 H      1.0798     1.0000    -0.0798     1.0906     1.0906    -0.0000
 12 H      1.1212     1.0000    -0.1212     0.9967     0.9967    -0.0000

  Mayer bond orders larger than 0.100000
B(  0-C ,  1-C ) :   1.1682 B(  0-C ,  7-H ) :   0.2195 B(  0-C , 10-H ) :   0.6959 
B(  0-C , 11-H ) :   0.6507 B(  0-C , 12-H ) :   0.6996 B(  1-C ,  2-C ) :   1.5478 
B(  1-C ,  3-N ) :   0.2756 B(  1-C ,  4-N ) :   0.3153 B(  1-C ,  7-H ) :   0.9863 
B(  1-C , 10-H ) :   0.3218 B(  1-C , 11-H ) :   0.3202 B(  1-C , 12-H ) :   0.1891 
B(  2-C ,  3-N ) :   0.9217 B(  2-C ,  4-N ) :   0.9030 B(  2-C ,  7-H ) :   0.1417 
B(  2-C ,  9-H ) :  -0.1295 B(  3-N ,  8-H ) :   1.0706 B(  3-N ,  9-H ) :   1.2631 
B(  4-N ,  5-H ) :   1.1254 B(  4-N ,  6-H ) :   1.1680 B(  5-H ,  6-H ) :  -0.1540 
B(  7-H , 10-H ) :  -0.1128 B(  8-H ,  9-H ) :  -0.1627 B( 10-H , 11-H ) :   0.1146 


-------
TIMINGS
-------

Total SCF time: 0 days 0 hours 0 min 12 sec 

Total time                  ....      12.635 sec
Sum of individual times     ....      12.453 sec  ( 98.6%)

Fock matrix formation       ....      11.660 sec  ( 92.3%)
  Split-RI-J                ....       0.587 sec  (  5.0% of F)
  Chain of spheres X        ....       9.479 sec  ( 81.3% of F)
  XC integration            ....       1.556 sec  ( 13.3% of F)
    Basis function eval.    ....       0.437 sec  ( 28.1% of XC)
    Density eval.           ....       0.307 sec  ( 19.7% of XC)
    XC-Functional eval.     ....       0.242 sec  ( 15.6% of XC)
    XC-Potential eval.      ....       0.425 sec  ( 27.3% of XC)
Diagonalization             ....       0.042 sec  (  0.3%)
Density matrix formation    ....       0.004 sec  (  0.0%)
Population analysis         ....       0.008 sec  (  0.1%)
Initial guess               ....       0.066 sec  (  0.5%)
Orbital Transformation      ....       0.000 sec  (  0.0%)
Orbital Orthonormalization  ....       0.000 sec  (  0.0%)
DIIS solution               ....       0.027 sec  (  0.2%)
SOSCF solution              ....       0.030 sec  (  0.2%)
Grid generation             ....       0.616 sec  (  4.9%)

Maximum memory used throughout the entire SCF-calculation: 51.0 MB

-------------------------   --------------------
FINAL SINGLE POINT ENERGY      -228.333241950811
-------------------------   --------------------


                            ***************************************
                            *     ORCA property calculations      *
                            ***************************************

                                    ---------------------
                                    Active property flags
                                    ---------------------
   (+) Dipole Moment


------------------------------------------------------------------------------
                       ORCA ELECTRIC PROPERTIES CALCULATION
------------------------------------------------------------------------------

Dipole Moment Calculation                       ... on
Quadrupole Moment Calculation                   ... off
Polarizability Calculation                      ... off
GBWName                                         ... 18Feb_SVPD_CAMB3LYP_C1_wb97_typm1_new_pos.gbw
Electron density file                           ... 18Feb_SVPD_CAMB3LYP_C1_wb97_typm1_new_pos.scfp
The origin for moment calculation is the CENTER OF MASS  = (10.930735, -2.825298  4.414553)

-------------
DIPOLE MOMENT
-------------
                                X             Y             Z
Electronic contribution:      2.96488       0.36669      -1.01016
Nuclear contribution   :     -2.16157      -0.63191       0.72436
                        -----------------------------------------
Total Dipole Moment    :      0.80331      -0.26522      -0.28580
                        -----------------------------------------
Magnitude (a.u.)       :      0.89293
Magnitude (Debye)      :      2.26965



--------------------
Rotational spectrum 
--------------------
 
Rotational constants in cm-1:     0.318470     0.135474     0.097247 
Rotational constants in MHz :  9547.495553  4061.405016  2915.385882 

 Dipole components along the rotational axes: 
x,y,z [a.u.] :     0.821857     0.336729    -0.092138 
x,y,z [Debye]:     2.088994     0.855896    -0.234196 

 

Timings for individual modules:

Sum of individual times         ...       13.496 sec (=   0.225 min)
GTO integral calculation        ...        0.499 sec (=   0.008 min)   3.7 %
SCF iterations                  ...       12.997 sec (=   0.217 min)  96.3 %
                             ****ORCA TERMINATED NORMALLY****
TOTAL RUN TIME: 0 days 0 hours 0 minutes 13 seconds 976 msec
