
                                        *****************
                                        * O   R   C   A *
                                        *****************

                                            #,                                       
                                            ###                                      
                                            ####                                     
                                            #####                                    
                                            ######                                   
                                           ########,                                 
                                     ,,################,,,,,                         
                               ,,#################################,,                 
                          ,,##########################################,,             
                       ,#########################################, ''#####,          
                    ,#############################################,,   '####,        
                  ,##################################################,,,,####,       
                ,###########''''           ''''###############################       
              ,#####''   ,,,,##########,,,,          '''####'''          '####       
            ,##' ,,,,###########################,,,                        '##       
           ' ,,###''''                  '''############,,,                           
         ,,##''                                '''############,,,,        ,,,,,,###''
      ,#''                                            '''#######################'''  
     '                                                          ''''####''''         
             ,#######,   #######,   ,#######,      ##                                
            ,#'     '#,  ##    ##  ,#'     '#,    #''#        ######   ,####,        
            ##       ##  ##   ,#'  ##            #'  '#       #        #'  '#        
            ##       ##  #######   ##           ,######,      #####,   #    #        
            '#,     ,#'  ##    ##  '#,     ,#' ,#      #,         ##   #,  ,#        
             '#######'   ##     ##  '#######'  #'      '#     #####' # '####'        



                  #######################################################
                  #                        -***-                        #
                  #          Department of theory and spectroscopy      #
                  #    Directorship and core code : Frank Neese         #
                  #        Max Planck Institute fuer Kohlenforschung    #
                  #                Kaiser Wilhelm Platz 1               #
                  #                 D-45470 Muelheim/Ruhr               #
                  #                      Germany                        #
                  #                                                     #
                  #                  All rights reserved                #
                  #                        -***-                        #
                  #######################################################


                         Program Version 5.0.0 -  RELEASE  -
                                (SVN: $Rev: 19529$)
                ($Date: 2021-06-28 11:36:33 +0200 (Mo, 28 Jun 2021) $)


 With contributions from (in alphabetic order):
   Daniel Aravena         : Magnetic Suceptibility
   Michael Atanasov       : Ab Initio Ligand Field Theory (pilot matlab implementation)
   Alexander A. Auer      : GIAO ZORA, VPT2 properties, NMR spectrum
   Ute Becker             : Parallelization
   Giovanni Bistoni       : ED, misc. LED, open-shell LED, HFLD
   Martin Brehm           : Molecular dynamics
   Dmytro Bykov           : SCF Hessian
   Vijay G. Chilkuri      : MRCI spin determinant printing, contributions to CSF-ICE
   Dipayan Datta          : RHF DLPNO-CCSD density
   Achintya Kumar Dutta   : EOM-CC, STEOM-CC
   Dmitry Ganyushin       : Spin-Orbit,Spin-Spin,Magnetic field MRCI
   Miquel Garcia          : C-PCM Hessian, Gaussian charge scheme
   Yang Guo               : DLPNO-NEVPT2, F12-NEVPT2, CIM, IAO-localization
   Andreas Hansen         : Spin unrestricted coupled pair/coupled cluster methods
   Benjamin Helmich-Paris : MC-RPA, TRAH-SCF, COSX integrals
   Lee Huntington         : MR-EOM, pCC
   Robert Izsak           : Overlap fitted RIJCOSX, COSX-SCS-MP3, EOM
   Marcus Kettner         : VPT2
   Christian Kollmar      : KDIIS, OOCD, Brueckner-CCSD(T), CCSD density, CASPT2, CASPT2-K
   Simone Kossmann        : Meta GGA functionals, TD-DFT gradient, OOMP2, MP2 Hessian
   Martin Krupicka        : Initial AUTO-CI
   Lucas Lang             : DCDCAS
   Marvin Lechner         : AUTO-CI (C++ implementation), FIC-MRCC
   Dagmar Lenk            : GEPOL surface, SMD
   Dimitrios Liakos       : Extrapolation schemes; Compound Job, initial MDCI parallelization
   Dimitrios Manganas     : Further ROCIS development; embedding schemes
   Dimitrios Pantazis     : SARC Basis sets
   Anastasios Papadopoulos: AUTO-CI, single reference methods and gradients
   Taras Petrenko         : DFT Hessian,TD-DFT gradient, ASA, ECA, R-Raman, ABS, FL, XAS/XES, NRVS
   Peter Pinski           : DLPNO-MP2, DLPNO-MP2 Gradient
   Christoph Reimann      : Effective Core Potentials
   Marius Retegan         : Local ZFS, SOC
   Christoph Riplinger    : Optimizer, TS searches, QM/MM, DLPNO-CCSD(T), (RO)-DLPNO pert. Triples
   Tobias Risthaus        : Range-separated hybrids, TD-DFT gradient, RPA, STAB
   Michael Roemelt        : Original ROCIS implementation
   Masaaki Saitow         : Open-shell DLPNO-CCSD energy and density
   Barbara Sandhoefer     : DKH picture change effects
   Avijit Sen             : IP-ROCIS
   Kantharuban Sivalingam : CASSCF convergence, NEVPT2, FIC-MRCI
   Bernardo de Souza      : ESD, SOC TD-DFT
   Georgi Stoychev        : AutoAux, RI-MP2 NMR
   Willem Van den Heuvel  : Paramagnetic NMR
   Boris Wezisla          : Elementary symmetry handling
   Frank Wennmohs         : Technical directorship


 We gratefully acknowledge several colleagues who have allowed us to
 interface, adapt or use parts of their codes:
   Stefan Grimme, W. Hujo, H. Kruse, P. Pracht,  : VdW corrections, initial TS optimization,
                  C. Bannwarth, S. Ehlert          DFT functionals, gCP, sTDA/sTD-DF
   Ed Valeev, F. Pavosevic, A. Kumar             : LibInt (2-el integral package), F12 methods
   Garnet Chan, S. Sharma, J. Yang, R. Olivares  : DMRG
   Ulf Ekstrom                                   : XCFun DFT Library
   Mihaly Kallay                                 : mrcc  (arbitrary order and MRCC methods)
   Jiri Pittner, Ondrej Demel                    : Mk-CCSD
   Frank Weinhold                                : gennbo (NPA and NBO analysis)
   Christopher J. Cramer and Donald G. Truhlar   : smd solvation model
   Lars Goerigk                                  : TD-DFT with DH, B97 family of functionals
   V. Asgeirsson, H. Jonsson                     : NEB implementation
   FAccTs GmbH                                   : IRC, NEB, NEB-TS, DLPNO-Multilevel, CI-OPT
                                                   MM, QMMM, 2- and 3-layer-ONIOM, Crystal-QMMM,
                                                   LR-CPCM, SF, NACMEs, symmetry and pop. for TD-DFT,
                                                   nearIR, NL-DFT gradient (VV10), updates on ESD,
                                                   ML-optimized integration grids
   S Lehtola, MJT Oliveira, MAL Marques          : LibXC Library
   Liviu Ungur et al                             : ANISO software


 Your calculation uses the libint2 library for the computation of 2-el integrals
 For citations please refer to: http://libint.valeyev.net

 Your ORCA version has been built with support for libXC version: 5.1.0
 For citations please refer to: https://tddft.org/programs/libxc/

 This ORCA versions uses:
   CBLAS   interface :  Fast vector & matrix operations
   LAPACKE interface :  Fast linear algebra routines
   SCALAPACK package :  Parallel linear algebra routines
   Shared memory     :  Shared parallel matrices
   BLAS/LAPACK       :  OpenBLAS 0.3.15  USE64BITINT DYNAMIC_ARCH NO_AFFINITY Haswell SINGLE_THREADED
        Core in use  :  Haswell
   Copyright (c) 2011-2014, The OpenBLAS Project


Your calculation utilizes the atom-pairwise dispersion correction
with the Becke-Johnson damping scheme (D3BJ)
Cite in your paper:
S.Grimme, S.Ehrlich, L.Goerigk, J Comput Chem, (2011), 32, 1456–1465 
S.Grimme, J.Antony, S.Ehrlich and H.Krieg, J.Chem.Phys., 132, (2010), 154104 
   

================================================================================

----- Orbital basis set information -----
Your calculation utilizes the basis: def2-TZVPD
   F. Weigend and R. Ahlrichs, Phys. Chem. Chem. Phys. 7, 3297 (2005).
   D. Rappoport and F. Furche, J. Chem. Phys. 133 134105 (2010).

----- AuxJ basis set information -----
Your calculation utilizes the auxiliary basis: def2/J
   F. Weigend, Phys. Chem. Chem. Phys. 8, 1057 (2006).

================================================================================
                                        WARNINGS
                       Please study these warnings very carefully!
================================================================================


INFO   : the flag for use of the SHARK integral package has been found!

================================================================================
                                       INPUT FILE
================================================================================
NAME = TZVPD_B3LYP_A_wt_dlpno_neg.com
|  1> !B3LYP D3BJ RIJCOSX def2-TZVPD def2/J TightSCF 
|  2> *xyz -1 1 
|  3> C         -0.77894        0.17197        1.80496
|  4> C         -0.60249       -0.63071        0.49224
|  5> H          0.31389       -1.24035        0.60350
|  6> H         -0.36383        0.11332       -0.30117
|  7> O         -1.71206       -1.37684        0.20253
|  8> H         -1.65864        0.77733        1.73736
|  9> H          0.07466        0.79896        1.95712
| 10> H         -0.87474       -0.50584        2.62734
| 11> *
| 12> %MaxCore 64000
| 13> 
| 14> %pal nprocs 4 
| 15> end  
| 16> 
| 17> %scf
| 18>   MaxIter 150
| 19> end
| 20> 
| 21> 
| 22>                          ****END OF INPUT****
================================================================================

                       ****************************
                       * Single Point Calculation *
                       ****************************

---------------------------------
CARTESIAN COORDINATES (ANGSTROEM)
---------------------------------
  C     -0.778940    0.171970    1.804960
  C     -0.602490   -0.630710    0.492240
  H      0.313890   -1.240350    0.603500
  H     -0.363830    0.113320   -0.301170
  O     -1.712060   -1.376840    0.202530
  H     -1.658640    0.777330    1.737360
  H      0.074660    0.798960    1.957120
  H     -0.874740   -0.505840    2.627340

----------------------------
CARTESIAN COORDINATES (A.U.)
----------------------------
  NO LB      ZA    FRAG     MASS         X           Y           Z
   0 C     6.0000    0    12.011   -1.471983    0.324976    3.410880
   1 C     6.0000    0    12.011   -1.138541   -1.191869    0.930199
   2 H     1.0000    0     1.008    0.593166   -2.343922    1.140450
   3 H     1.0000    0     1.008   -0.687539    0.214144   -0.569129
   4 O     8.0000    0    15.999   -3.235325   -2.601851    0.382726
   5 H     1.0000    0     1.008   -3.134375    1.468941    3.283135
   6 H     1.0000    0     1.008    0.141087    1.509816    3.698421
   7 H     1.0000    0     1.008   -1.653019   -0.955899    4.964953

--------------------------------
INTERNAL COORDINATES (ANGSTROEM)
--------------------------------
 C      0   0   0     0.000000000000     0.00000000     0.00000000
 C      1   0   0     1.548761951786     0.00000000     0.00000000
 H      2   1   0     1.106251337446   107.14208476     0.00000000
 H      2   1   3     1.113570233349   106.38189140   247.86336931
 O      2   1   3     1.368132831965   111.69904673   124.39446908
 H      1   2   3     1.070001205420   109.47126364   180.00070714
 H      1   2   3     1.070000974626   109.47143415    59.99995464
 H      1   2   3     1.070006028254   109.47119049   300.00076547

---------------------------
INTERNAL COORDINATES (A.U.)
---------------------------
 C      0   0   0     0.000000000000     0.00000000     0.00000000
 C      1   0   0     2.926735935513     0.00000000     0.00000000
 H      2   1   0     2.090512063056   107.14208476     0.00000000
 H      2   1   3     2.104342771916   106.38189140   247.86336931
 O      2   1   3     2.585396367240   111.69904673   124.39446908
 H      1   2   3     2.022009241209   109.47126364   180.00070714
 H      1   2   3     2.022008805071   109.47143415    59.99995464
 H      1   2   3     2.022018355045   109.47119049   300.00076547

---------------------
BASIS SET INFORMATION
---------------------
There are 3 groups of distinct atoms

 Group   1 Type C   : 12s6p3d1f contracted to 6s3p3d1f pattern {621111/411/111/1}
 Group   2 Type H   : 5s2p contracted to 3s2p pattern {311/11}
 Group   3 Type O   : 12s7p3d1f contracted to 6s4p3d1f pattern {621111/4111/111/1}

Atom   0C    basis set group =>   1
Atom   1C    basis set group =>   1
Atom   2H    basis set group =>   2
Atom   3H    basis set group =>   2
Atom   4O    basis set group =>   3
Atom   5H    basis set group =>   2
Atom   6H    basis set group =>   2
Atom   7H    basis set group =>   2
---------------------------------
AUXILIARY/J BASIS SET INFORMATION
---------------------------------
There are 3 groups of distinct atoms

 Group   1 Type C   : 12s5p4d2f1g contracted to 6s4p3d1f1g pattern {711111/2111/211/2/1}
 Group   2 Type H   : 5s2p1d contracted to 3s1p1d pattern {311/2/1}
 Group   3 Type O   : 12s5p4d2f1g contracted to 6s4p3d1f1g pattern {711111/2111/211/2/1}

Atom   0C    basis set group =>   1
Atom   1C    basis set group =>   1
Atom   2H    basis set group =>   2
Atom   3H    basis set group =>   2
Atom   4O    basis set group =>   3
Atom   5H    basis set group =>   2
Atom   6H    basis set group =>   2
Atom   7H    basis set group =>   2


           ************************************************************
           *        Program running with 4 parallel MPI-processes     *
           *              working on a common directory               *
           ************************************************************
------------------------------------------------------------------------------
                           ORCA GTO INTEGRAL CALCULATION
                           -- RI-GTO INTEGRALS CHOSEN --
------------------------------------------------------------------------------
------------------------------------------------------------------------------
                   ___                                                        
                  /   \      - P O W E R E D   B Y -                         
                 /     \                                                     
                 |  |  |   _    _      __       _____    __    __             
                 |  |  |  | |  | |    /  \     |  _  \  |  |  /  |          
                  \  \/   | |  | |   /    \    | | | |  |  | /  /          
                 / \  \   | |__| |  /  /\  \   | |_| |  |  |/  /          
                |  |  |   |  __  | /  /__\  \  |    /   |      \           
                |  |  |   | |  | | |   __   |  |    \   |  |\   \          
                \     /   | |  | | |  |  |  |  | |\  \  |  | \   \       
                 \___/    |_|  |_| |__|  |__|  |_| \__\ |__|  \__/        
                                                                              
                      - O R C A' S   B I G   F R I E N D -                    
                                      &                                       
                       - I N T E G R A L  F E E D E R -                       
                                                                              
 v1 FN, 2020, v2 2021                                                         
------------------------------------------------------------------------------


Reading SHARK input file TZVPD_B3LYP_A_wt_dlpno_neg.SHARKINP.tmp ... ok
----------------------
SHARK INTEGRAL PACKAGE
----------------------

Number of atoms                             ...      8
Number of basis functions                   ...    159
Number of shells                            ...     65
Maximum angular momentum                    ...      3
Integral batch strategy                     ... SHARK/LIBINT Hybrid
RI-J (if used) integral strategy            ... SPLIT-RIJ (Revised 2003 algorithm where possible)
Printlevel                                  ...      1
Contraction scheme used                     ... SEGMENTED contraction
Coulomb Range Separation                    ... NOT USED
Exchange Range Separation                   ... NOT USED
Finite Nucleus Model                        ... NOT USED
Auxiliary Coulomb fitting basis             ... AVAILABLE
   # of basis functions in Aux-J            ...    202
   # of shells in Aux-J                     ...     70
   Maximum angular momentum in Aux-J        ...      4
Auxiliary J/K fitting basis                 ... NOT available
Auxiliary Correlation fitting basis         ... NOT available
Auxiliary 'external' fitting basis          ... NOT available
Integral threshold                          ...     2.500000e-11
Primitive cut-off                           ...     2.500000e-12
Primitive pair pre-selection threshold      ...     2.500000e-12

Calculating pre-screening integrals         ... done (  0.1 sec) Dimension = 65
Organizing shell pair data                  ... done (  0.0 sec)
Shell pair information
Total number of shell pairs                 ...      2145
Shell pairs after pre-screening             ...      2131
Total number of primitive shell pairs       ...      5334
Primitive shell pairs kept                  ...      4682
          la=0 lb=0:    551 shell pairs
          la=1 lb=0:    658 shell pairs
          la=1 lb=1:    210 shell pairs
          la=2 lb=0:    295 shell pairs
          la=2 lb=1:    180 shell pairs
          la=2 lb=2:     45 shell pairs
          la=3 lb=0:     99 shell pairs
          la=3 lb=1:     60 shell pairs
          la=3 lb=2:     27 shell pairs
          la=3 lb=3:      6 shell pairs

Calculating one electron integrals          ... done (  0.0 sec)
Calculating RI/J V-Matrix + Cholesky decomp.... done (  0.0 sec)
Calculating Nuclear repulsion               ... done (  0.0 sec) ENN=     74.321268556699 Eh

SHARK setup successfully completed in   0.2 seconds

Maximum memory used throughout the entire GTOINT-calculation: 13.8 MB


           ************************************************************
           *        Program running with 4 parallel MPI-processes     *
           *              working on a common directory               *
           ************************************************************
-------------------------------------------------------------------------------
                                 ORCA SCF
-------------------------------------------------------------------------------

------------
SCF SETTINGS
------------
Hamiltonian:
 Density Functional     Method          .... DFT(GTOs)
 Exchange Functional    Exchange        .... B88
   X-Alpha parameter    XAlpha          ....  0.666667
   Becke's b parameter  XBeta           ....  0.004200
 Correlation Functional Correlation     .... LYP
 LDA part of GGA corr.  LDAOpt          .... VWN-5
 Gradients option       PostSCFGGA      .... off
 Hybrid DFT is turned on
   Fraction HF Exchange ScalHFX         ....  0.200000
   Scaling of DF-GGA-X  ScalDFX         ....  0.720000
   Scaling of DF-GGA-C  ScalDFC         ....  0.810000
   Scaling of DF-LDA-C  ScalLDAC        ....  1.000000
   Perturbative correction              ....  0.000000
   Density functional embedding theory  .... OFF
   NL short-range parameter             ....  4.800000
 RI-approximation to the Coulomb term is turned on
   Number of AuxJ basis functions       .... 202
   RIJ-COSX (HFX calculated with COS-X)).... on


General Settings:
 Integral files         IntName         .... TZVPD_B3LYP_A_wt_dlpno_neg
 Hartree-Fock type      HFTyp           .... RHF
 Total Charge           Charge          ....   -1
 Multiplicity           Mult            ....    1
 Number of Electrons    NEL             ....   26
 Basis Dimension        Dim             ....  159
 Nuclear Repulsion      ENuc            ....     74.3212685567 Eh

Convergence Acceleration:
 DIIS                   CNVDIIS         .... on
   Start iteration      DIISMaxIt       ....    12
   Startup error        DIISStart       ....  0.200000
   # of expansion vecs  DIISMaxEq       ....     5
   Bias factor          DIISBfac        ....   1.050
   Max. coefficient     DIISMaxC        ....  10.000
 Trust-Rad. Augm. Hess. CNVTRAH         .... auto
   Auto Start mean grad. ratio tolernc. ....  1.125000
   Auto Start start iteration           ....    20
   Auto Start num. interpolation iter.  ....    10
   Max. Number of Micro iterations      ....    16
   Max. Number of Macro iterations      .... Maxiter - #DIIS iter
   Number of Davidson start vectors     ....     2
   Converg. threshold I  (grad. norm)   ....   1.000e-05
   Converg. threshold II (energy diff.) ....   1.000e-08
   Grad. Scal. Fac. for Micro threshold ....   0.100
   Minimum threshold for Micro iter.    ....   0.010
   NR start threshold (gradient norm)   ....   0.001
   Initial trust radius                 ....   0.400
   Minimum AH scaling param. (alpha)    ....   1.000
   Maximum AH scaling param. (alpha)    .... 1000.000
   Orbital update algorithm             .... Taylor
   White noise on init. David. guess    .... on
   Maximum white noise                  ....   0.010
   Quad. conv. algorithm                .... NR
 SOSCF                  CNVSOSCF        .... on
   Start iteration      SOSCFMaxIt      ....   150
   Startup grad/error   SOSCFStart      ....  0.003300
 Level Shifting         CNVShift        .... on
   Level shift para.    LevelShift      ....    0.2500
   Turn off err/grad.   ShiftErr        ....    0.0010
 Zerner damping         CNVZerner       .... off
 Static damping         CNVDamp         .... on
   Fraction old density DampFac         ....    0.7000
   Max. Damping (<1)    DampMax         ....    0.9800
   Min. Damping (>=0)   DampMin         ....    0.0000
   Turn off err/grad.   DampErr         ....    0.1000
 Fernandez-Rico         CNVRico         .... off

SCF Procedure:
 Maximum # iterations   MaxIter         ....   150
 SCF integral mode      SCFMode         .... Direct
   Integral package                     .... SHARK and LIBINT hybrid scheme
 Reset frequency        DirectResetFreq ....    20
 Integral Threshold     Thresh          ....  2.500e-11 Eh
 Primitive CutOff       TCut            ....  2.500e-12 Eh

Convergence Tolerance:
 Convergence Check Mode ConvCheckMode   .... Total+1el-Energy
 Convergence forced     ConvForced      .... 0
 Energy Change          TolE            ....  1.000e-08 Eh
 1-El. energy change                    ....  1.000e-05 Eh
 Orbital Gradient       TolG            ....  1.000e-05
 Orbital Rotation angle TolX            ....  1.000e-05
 DIIS Error             TolErr          ....  5.000e-07


Diagonalization of the overlap matrix:
Smallest eigenvalue                        ... 1.786e-05
Time for diagonalization                   ...    0.007 sec
Threshold for overlap eigenvalues          ... 1.000e-08
Number of eigenvalues below threshold      ... 0
Time for construction of square roots      ...    0.005 sec
Total time needed                          ...    0.013 sec

Time for model grid setup =    0.068 sec

------------------------------
INITIAL GUESS: MODEL POTENTIAL
------------------------------
Loading Hartree-Fock densities                     ... done
Calculating cut-offs                               ... done
Initializing the effective Hamiltonian             ... done
Setting up the integral package (SHARK)            ... done
Starting the Coulomb interaction                   ... done (   0.0 sec)
Reading the grid                                   ... done
Mapping shells                                     ... done
Starting the XC term evaluation                    ... done (   0.1 sec)
  promolecular density results
     # of electrons  =     24.997194081
     EX              =    -19.906392389
     EC              =     -0.816996263
     EX+EC           =    -20.723388651
Transforming the Hamiltonian                       ... done (   0.0 sec)
Diagonalizing the Hamiltonian                      ... done (   0.0 sec)
Back transforming the eigenvectors                 ... done (   0.0 sec)
Now organizing SCF variables                       ... done
                      ------------------
                      INITIAL GUESS DONE (   0.2 sec)
                      ------------------
-------------------
DFT GRID GENERATION
-------------------

General Integration Accuracy     IntAcc      ... 4.388
Radial Grid Type                 RadialGrid  ... OptM3 with GC (2021)
Angular Grid (max. ang.)         AngularGrid ... 4 (Lebedev-302)
Angular grid pruning method      GridPruning ... 4 (adaptive)
Weight generation scheme         WeightScheme... Becke
Basis function cutoff            BFCut       ... 1.0000e-11
Integration weight cutoff        WCut        ... 1.0000e-14
Angular grids for H and He will be reduced by one unit
Partially contracted basis set               ... off
Rotationally invariant grid construction     ... off

Total number of grid points                  ...    36477
Total number of batches                      ...      575
Average number of points per batch           ...       63
Average number of grid points per atom       ...     4560
Time for grid setup =    0.297 sec

--------------------
COSX GRID GENERATION
--------------------

GRIDX 1
-------
General Integration Accuracy     IntAcc      ... 3.816
Radial Grid Type                 RadialGrid  ... OptM3 with GC (2021)
Angular Grid (max. ang.)         AngularGrid ... 1 (Lebedev-50)
Angular grid pruning method      GridPruning ... 4 (adaptive)
Weight generation scheme         WeightScheme... Becke
Basis function cutoff            BFCut       ... 1.0000e-11
Integration weight cutoff        WCut        ... 1.0000e-14
Angular grids for H and He will be reduced by one unit
Partially contracted basis set               ... on
Rotationally invariant grid construction     ... off

Total number of grid points                  ...     4586
Total number of batches                      ...       75
Average number of points per batch           ...       61
Average number of grid points per atom       ...      573
UseSFitting                                  ... on

GRIDX 2
-------
General Integration Accuracy     IntAcc      ... 4.020
Radial Grid Type                 RadialGrid  ... OptM3 with GC (2021)
Angular Grid (max. ang.)         AngularGrid ... 2 (Lebedev-110)
Angular grid pruning method      GridPruning ... 4 (adaptive)
Weight generation scheme         WeightScheme... Becke
Basis function cutoff            BFCut       ... 1.0000e-11
Integration weight cutoff        WCut        ... 1.0000e-14
Angular grids for H and He will be reduced by one unit
Partially contracted basis set               ... on
Rotationally invariant grid construction     ... off

Total number of grid points                  ...    11083
Total number of batches                      ...      177
Average number of points per batch           ...       62
Average number of grid points per atom       ...     1385
UseSFitting                                  ... on

GRIDX 3
-------
General Integration Accuracy     IntAcc      ... 4.338
Radial Grid Type                 RadialGrid  ... OptM3 with GC (2021)
Angular Grid (max. ang.)         AngularGrid ... 3 (Lebedev-194)
Angular grid pruning method      GridPruning ... 4 (adaptive)
Weight generation scheme         WeightScheme... Becke
Basis function cutoff            BFCut       ... 1.0000e-11
Integration weight cutoff        WCut        ... 1.0000e-14
Angular grids for H and He will be reduced by one unit
Partially contracted basis set               ... on
Rotationally invariant grid construction     ... off

Total number of grid points                  ...    25019
Total number of batches                      ...      395
Average number of points per batch           ...       63
Average number of grid points per atom       ...     3127
UseSFitting                                  ... on

Time for X-Grid setup             =    0.318 sec

--------------
SCF ITERATIONS
--------------
ITER       Energy         Delta-E        Max-DP      RMS-DP      [F,P]     Damp
               ***  Starting incremental Fock matrix formation  ***
  0   -154.0821356954   0.000000000000 1.72354378  0.01952106  0.4190114 0.7000
  1   -154.2482032513  -0.166067555919 1.76792330  0.01930442  0.1173252 0.7000
                               ***Turning on DIIS***
  2   -154.2855738874  -0.037370636090 1.33447232  0.01627656  0.0416128 0.0000
  3   -154.3815390642  -0.095965176866 1.94405664  0.02077793  0.0700235 0.0000
  4   -154.3947392019  -0.013200137624 0.83254162  0.00872634  0.0648393 0.0000
  5   -154.3996826900  -0.004943488153 0.48869472  0.00516319  0.0171864 0.0000
  6   -154.4003088945  -0.000626204433 0.27336429  0.00293551  0.0099220 0.0000
                      *** Initiating the SOSCF procedure ***
                           *** Shutting down DIIS ***
                      *** Re-Reading the Fockian *** 
                      *** Removing any level shift *** 
ITER      Energy       Delta-E        Grad      Rot      Max-DP    RMS-DP
  7   -154.40050663  -0.0001977370  0.001687  0.001687  0.163412  0.001740
               *** Restarting incremental Fock matrix formation ***
  8   -154.40055086  -0.0000442323  0.001068  0.008321  0.231810  0.002531
  9   -154.40058046  -0.0000295962  0.000357  0.005199  0.112621  0.001251
 10   -154.40057535   0.0000051081  0.000632  0.002589  0.054738  0.000612
 11   -154.40058321  -0.0000078616  0.000102  0.000271  0.009918  0.000113
 12   -154.40058312   0.0000000933  0.000136  0.000175  0.005183  0.000058
 13   -154.40058339  -0.0000002663  0.000004  0.000009  0.000285  0.000004
 14   -154.40058339   0.0000000010  0.000003  0.000004  0.000169  0.000002
                  ***Gradient check signals convergence***
              ***Rediagonalizing the Fockian in SOSCF/NRSCF***

               *****************************************************
               *                     SUCCESS                       *
               *           SCF CONVERGED AFTER  15 CYCLES          *
               *****************************************************

Old exchange energy                            =     -4.105772707 Eh
New exchange energy                            =     -4.105782493 Eh
Exchange energy change after final integration =     -0.000009786 Eh
Total energy after final integration           =   -154.400593174 Eh
Final COS-X integration done in                =     1.131 sec

----------------
TOTAL SCF ENERGY
----------------

Total Energy       :         -154.40059317 Eh           -4201.45374 eV

Components:
Nuclear Repulsion  :           74.32126856 Eh            2022.38453 eV
Electronic Energy  :         -228.72186173 Eh           -6223.83827 eV
One Electron Energy:         -362.61049548 Eh           -9867.13322 eV
Two Electron Energy:          133.88863375 Eh            3643.29495 eV
Max COSX asymmetry :            0.00000117 Eh               0.00003 eV

Virial components:
Potential Energy   :         -308.23424210 Eh           -8387.48014 eV
Kinetic Energy     :          153.83364892 Eh            4186.02640 eV
Virial Ratio       :            2.00368544


DFT components:
N(Alpha)           :       12.999718961970 electrons
N(Beta)            :       12.999718961970 electrons
N(Total)           :       25.999437923939 electrons
E(X)               :      -16.335892600814 Eh       
E(C)               :       -1.003368652345 Eh       
E(XC)              :      -17.339261253159 Eh       
DFET-embed. en.    :        0.000000000000 Eh       

---------------
SCF CONVERGENCE
---------------

  Last Energy change         ...   -2.0210e-09  Tolerance :   1.0000e-08
  Last MAX-Density change    ...    6.6613e-16  Tolerance :   1.0000e-07
  Last RMS-Density change    ...    1.7033e-17  Tolerance :   5.0000e-09
  Last Orbital Gradient      ...    7.7466e-07  Tolerance :   1.0000e-05
  Last Orbital Rotation      ...    1.3642e-06  Tolerance :   1.0000e-05

             **** THE GBW FILE WAS UPDATED (TZVPD_B3LYP_A_wt_dlpno_neg.gbw) ****
             **** DENSITY TZVPD_B3LYP_A_wt_dlpno_neg.scfp WAS UPDATED ****
             **** ENERGY FILE WAS UPDATED (TZVPD_B3LYP_A_wt_dlpno_neg.en.tmp) ****
             **** THE GBW FILE WAS UPDATED (TZVPD_B3LYP_A_wt_dlpno_neg.gbw) ****
             **** DENSITY TZVPD_B3LYP_A_wt_dlpno_neg.scfp WAS UPDATED ****
----------------
ORBITAL ENERGIES
----------------

  NO   OCC          E(Eh)            E(eV) 
   0   2.0000     -18.798418      -511.5310 
   1   2.0000      -9.984736      -271.6985 
   2   2.0000      -9.958669      -270.9891 
   3   2.0000      -0.683674       -18.6037 
   4   2.0000      -0.524468       -14.2715 
   5   2.0000      -0.374477       -10.1900 
   6   2.0000      -0.250035        -6.8038 
   7   2.0000      -0.226975        -6.1763 
   8   2.0000      -0.172696        -4.6993 
   9   2.0000      -0.159611        -4.3432 
  10   2.0000      -0.116754        -3.1770 
  11   2.0000       0.026520         0.7216 
  12   2.0000       0.027465         0.7474 
  13   0.0000       0.154304         4.1988 
  14   0.0000       0.177648         4.8340 
  15   0.0000       0.203687         5.5426 
  16   0.0000       0.207994         5.6598 
  17   0.0000       0.228789         6.2257 
  18   0.0000       0.242969         6.6115 
  19   0.0000       0.249672         6.7939 
  20   0.0000       0.261057         7.1037 
  21   0.0000       0.271769         7.3952 
  22   0.0000       0.301783         8.2119 
  23   0.0000       0.304851         8.2954 
  24   0.0000       0.309919         8.4333 
  25   0.0000       0.342513         9.3203 
  26   0.0000       0.361426         9.8349 
  27   0.0000       0.370176        10.0730 
  28   0.0000       0.386230        10.5098 
  29   0.0000       0.406140        11.0516 
  30   0.0000       0.411245        11.1906 
  31   0.0000       0.422684        11.5018 
  32   0.0000       0.435377        11.8472 
  33   0.0000       0.440149        11.9771 
  34   0.0000       0.450797        12.2668 
  35   0.0000       0.460124        12.5206 
  36   0.0000       0.465098        12.6560 
  37   0.0000       0.477188        12.9850 
  38   0.0000       0.485530        13.2119 
  39   0.0000       0.489649        13.3240 
  40   0.0000       0.504409        13.7257 
  41   0.0000       0.528609        14.3842 
  42   0.0000       0.529616        14.4116 
  43   0.0000       0.534658        14.5488 
  44   0.0000       0.547841        14.9075 
  45   0.0000       0.568049        15.4574 
  46   0.0000       0.574111        15.6224 
  47   0.0000       0.577960        15.7271 
  48   0.0000       0.598340        16.2817 
  49   0.0000       0.612768        16.6743 
  50   0.0000       0.638420        17.3723 
  51   0.0000       0.642855        17.4930 
  52   0.0000       0.713321        19.4104 
  53   0.0000       0.729986        19.8639 
  54   0.0000       0.745848        20.2956 
  55   0.0000       0.765906        20.8414 
  56   0.0000       0.776676        21.1344 
  57   0.0000       0.803379        21.8611 
  58   0.0000       0.819593        22.3022 
  59   0.0000       0.832771        22.6608 
  60   0.0000       0.856790        23.3144 
  61   0.0000       0.860105        23.4046 
  62   0.0000       0.869012        23.6470 
  63   0.0000       0.873506        23.7693 
  64   0.0000       0.884151        24.0590 
  65   0.0000       0.889221        24.1969 
  66   0.0000       0.916042        24.9268 
  67   0.0000       0.939954        25.5774 
  68   0.0000       0.945317        25.7234 
  69   0.0000       1.073451        29.2101 
  70   0.0000       1.108010        30.1505 
  71   0.0000       1.146988        31.2111 
  72   0.0000       1.160868        31.5888 
  73   0.0000       1.186288        32.2805 
  74   0.0000       1.249161        33.9914 
  75   0.0000       1.276323        34.7305 
  76   0.0000       1.338162        36.4132 
  77   0.0000       1.350840        36.7582 
  78   0.0000       1.391480        37.8641 
  79   0.0000       1.407588        38.3024 
  80   0.0000       1.422477        38.7076 
  81   0.0000       1.478319        40.2271 
  82   0.0000       1.560963        42.4760 
  83   0.0000       1.810917        49.2776 
  84   0.0000       1.918452        52.2037 
  85   0.0000       1.938964        52.7619 
  86   0.0000       1.947991        53.0075 
  87   0.0000       1.961218        53.3674 
  88   0.0000       1.973543        53.7028 
  89   0.0000       1.984828        54.0099 
  90   0.0000       2.042946        55.5914 
  91   0.0000       2.054212        55.8979 
  92   0.0000       2.073556        56.4243 
  93   0.0000       2.139802        58.2270 
  94   0.0000       2.163050        58.8596 
  95   0.0000       2.186896        59.5085 
  96   0.0000       2.208381        60.0931 
  97   0.0000       2.310325        62.8671 
  98   0.0000       2.322116        63.1880 
  99   0.0000       2.433859        66.2287 
 100   0.0000       2.484123        67.5964 
 101   0.0000       2.564379        69.7803 
 102   0.0000       2.644874        71.9707 
 103   0.0000       2.666578        72.5613 
 104   0.0000       2.687765        73.1378 
 105   0.0000       2.695722        73.3543 
 106   0.0000       2.745037        74.6962 
 107   0.0000       2.775251        75.5184 
 108   0.0000       2.823503        76.8314 
 109   0.0000       2.840417        77.2917 
 110   0.0000       2.864480        77.9465 
 111   0.0000       2.927365        79.6576 
 112   0.0000       2.938483        79.9602 
 113   0.0000       2.952437        80.3399 
 114   0.0000       3.040895        82.7470 
 115   0.0000       3.141620        85.4878 
 116   0.0000       3.266237        88.8788 
 117   0.0000       3.271001        89.0085 
 118   0.0000       3.342604        90.9569 
 119   0.0000       3.373483        91.7971 
 120   0.0000       3.409171        92.7683 
 121   0.0000       3.451866        93.9301 
 122   0.0000       3.501619        95.2839 
 123   0.0000       3.505474        95.3888 
 124   0.0000       3.535963        96.2184 
 125   0.0000       3.606066        98.1260 
 126   0.0000       3.629591        98.7662 
 127   0.0000       3.639987        99.0491 
 128   0.0000       3.711783       101.0028 
 129   0.0000       3.771837       102.6369 
 130   0.0000       3.829672       104.2107 
 131   0.0000       3.868345       105.2630 
 132   0.0000       4.028505       109.6212 
 133   0.0000       4.062896       110.5570 
 134   0.0000       4.166539       113.3773 
 135   0.0000       4.198613       114.2501 
 136   0.0000       4.246418       115.5509 
 137   0.0000       4.498944       122.4225 
 138   0.0000       4.531855       123.3180 
 139   0.0000       4.687939       127.5653 
 140   0.0000       4.727425       128.6398 
 141   0.0000       4.857082       132.1679 
 142   0.0000       5.006518       136.2343 
 143   0.0000       5.077785       138.1736 
 144   0.0000       5.493436       149.4840 
 145   0.0000       5.504723       149.7911 
 146   0.0000       5.718325       155.6035 
 147   0.0000       5.720332       155.6582 
 148   0.0000       6.163293       167.7117 
 149   0.0000       6.210291       168.9906 
 150   0.0000       6.403073       174.2365 
 151   0.0000       6.802921       185.1169 
 152   0.0000       6.823186       185.6683 
 153   0.0000       7.101876       193.2519 
 154   0.0000       7.170465       195.1183 
 155   0.0000       7.463315       203.0871 
 156   0.0000      22.705999       617.8617 
 157   0.0000      22.829792       621.2302 
 158   0.0000      44.326936      1206.1973 

                    ********************************
                    * MULLIKEN POPULATION ANALYSIS *
                    ********************************

-----------------------
MULLIKEN ATOMIC CHARGES
-----------------------
   0 C :   -0.967548
   1 C :   -0.200958
   2 H :    0.163767
   3 H :    0.160966
   4 O :   -0.932018
   5 H :    0.220122
   6 H :    0.334788
   7 H :    0.220881
Sum of atomic charges:   -1.0000000

--------------------------------
MULLIKEN REDUCED ORBITAL CHARGES
--------------------------------
  0 C s       :     3.515761  s :     3.515761
      pz      :     1.060392  p :     3.345590
      px      :     1.160617
      py      :     1.124581
      dz2     :     0.020994  d :     0.102657
      dxz     :    -0.005008
      dyz     :     0.021954
      dx2y2   :     0.009824
      dxy     :     0.054894
      f0      :     0.000618  f :     0.003540
      f+1     :     0.000259
      f-1     :     0.001261
      f+2     :     0.000179
      f-2     :     0.000541
      f+3     :     0.000041
      f-3     :     0.000640
  1 C s       :     3.382717  s :     3.382717
      pz      :     0.867181  p :     2.588966
      px      :     0.842097
      py      :     0.879688
      dz2     :     0.016564  d :     0.217849
      dxz     :     0.016454
      dyz     :     0.058813
      dx2y2   :     0.063768
      dxy     :     0.062250
      f0      :     0.001555  f :     0.011427
      f+1     :     0.001313
      f-1     :     0.001454
      f+2     :     0.000846
      f-2     :     0.002010
      f+3     :     0.002470
      f-3     :     0.001779
  2 H s       :     0.711978  s :     0.711978
      pz      :     0.010017  p :     0.124255
      px      :     0.097635
      py      :     0.016603
  3 H s       :     0.714389  s :     0.714389
      pz      :     0.034047  p :     0.124644
      px      :     0.028025
      py      :     0.062573
  4 O s       :     3.993690  s :     3.993690
      pz      :     1.823369  p :     4.924166
      px      :     1.427348
      py      :     1.673449
      dz2     :     0.002632  d :     0.012899
      dxz     :     0.002066
      dyz     :     0.000869
      dx2y2   :     0.002831
      dxy     :     0.004501
      f0      :     0.000122  f :     0.001264
      f+1     :     0.000161
      f-1     :     0.000081
      f+2     :     0.000058
      f-2     :     0.000213
      f+3     :     0.000272
      f-3     :     0.000356
  5 H s       :     0.695364  s :     0.695364
      pz      :     0.013914  p :     0.084514
      px      :     0.040482
      py      :     0.030117
  6 H s       :     0.585982  s :     0.585982
      pz      :     0.017135  p :     0.079229
      px      :     0.032132
      py      :     0.029962
  7 H s       :     0.695601  s :     0.695601
      pz      :     0.038958  p :     0.083518
      px      :     0.020105
      py      :     0.024455


                     *******************************
                     * LOEWDIN POPULATION ANALYSIS *
                     *******************************

----------------------
LOEWDIN ATOMIC CHARGES
----------------------
   0 C :   -0.168252
   1 C :   -0.611771
   2 H :    0.049854
   3 H :    0.051097
   4 O :   -0.409080
   5 H :    0.034931
   6 H :    0.019907
   7 H :    0.033314

-------------------------------
LOEWDIN REDUCED ORBITAL CHARGES
-------------------------------
  0 C s       :     2.783310  s :     2.783310
      pz      :     0.962504  p :     2.872131
      px      :     0.953635
      py      :     0.955992
      dz2     :     0.143676  d :     0.486398
      dxz     :     0.060971
      dyz     :     0.122293
      dx2y2   :     0.028972
      dxy     :     0.130485
      f0      :     0.003790  f :     0.026414
      f+1     :     0.004884
      f-1     :     0.005539
      f+2     :     0.004669
      f-2     :     0.002282
      f+3     :     0.000807
      f-3     :     0.004443
  1 C s       :     2.733117  s :     2.733117
      pz      :     0.896013  p :     2.666298
      px      :     0.877324
      py      :     0.892961
      dz2     :     0.191102  d :     1.132074
      dxz     :     0.189530
      dyz     :     0.248362
      dx2y2   :     0.245495
      dxy     :     0.257585
      f0      :     0.009910  f :     0.080282
      f+1     :     0.012059
      f-1     :     0.007781
      f+2     :     0.009176
      f-2     :     0.011240
      f+3     :     0.015792
      f-3     :     0.014325
  2 H s       :     0.720626  s :     0.720626
      pz      :     0.056485  p :     0.229521
      px      :     0.104404
      py      :     0.068631
  3 H s       :     0.719965  s :     0.719965
      pz      :     0.081079  p :     0.228938
      px      :     0.055916
      py      :     0.091942
  4 O s       :     3.455746  s :     3.455746
      pz      :     1.624691  p :     4.669112
      px      :     1.464875
      py      :     1.579547
      dz2     :     0.031007  d :     0.280146
      dxz     :     0.054274
      dyz     :     0.042284
      dx2y2   :     0.080834
      dxy     :     0.071747
      f0      :     0.000398  f :     0.004076
      f+1     :     0.000522
      f-1     :     0.000267
      f+2     :     0.000189
      f-2     :     0.000696
      f+3     :     0.000941
      f-3     :     0.001063
  5 H s       :     0.722500  s :     0.722500
      pz      :     0.062330  p :     0.242569
      px      :     0.101236
      py      :     0.079002
  6 H s       :     0.729058  s :     0.729058
      pz      :     0.066346  p :     0.251035
      px      :     0.099000
      py      :     0.085689
  7 H s       :     0.724252  s :     0.724252
      pz      :     0.091643  p :     0.242434
      px      :     0.065655
      py      :     0.085136


                      *****************************
                      * MAYER POPULATION ANALYSIS *
                      *****************************

  NA   - Mulliken gross atomic population
  ZA   - Total nuclear charge
  QA   - Mulliken gross atomic charge
  VA   - Mayer's total valence
  BVA  - Mayer's bonded valence
  FA   - Mayer's free valence

  ATOM       NA         ZA         QA         VA         BVA        FA
  0 C      6.9675     6.0000    -0.9675     4.2088     4.2088    -0.0000
  1 C      6.2010     6.0000    -0.2010     3.7968     3.7968    -0.0000
  2 H      0.8362     1.0000     0.1638     1.2380     1.2380    -0.0000
  3 H      0.8390     1.0000     0.1610     1.2350     1.2350     0.0000
  4 O      8.9320     8.0000    -0.9320     1.2294     1.2294     0.0000
  5 H      0.7799     1.0000     0.2201     1.0637     1.0637    -0.0000
  6 H      0.6652     1.0000     0.3348     0.9101     0.9101    -0.0000
  7 H      0.7791     1.0000     0.2209     1.0501     1.0501    -0.0000

  Mayer bond orders larger than 0.100000
B(  0-C ,  1-C ) :   0.7714 B(  0-C ,  4-O ) :   0.3954 B(  0-C ,  5-H ) :   1.0103 
B(  0-C ,  6-H ) :   0.9531 B(  0-C ,  7-H ) :   1.0043 B(  1-C ,  2-H ) :   1.0602 
B(  1-C ,  3-H ) :   1.0615 B(  1-C ,  4-O ) :   0.9009 

-------
TIMINGS
-------

Total SCF time: 0 days 0 hours 0 min 12 sec 

Total time                  ....      12.076 sec
Sum of individual times     ....      11.904 sec  ( 98.6%)

Fock matrix formation       ....      10.953 sec  ( 90.7%)
  Split-RI-J                ....       0.743 sec  (  6.8% of F)
  Chain of spheres X        ....       7.842 sec  ( 71.6% of F)
  XC integration            ....       2.328 sec  ( 21.3% of F)
    Basis function eval.    ....       0.730 sec  ( 31.4% of XC)
    Density eval.           ....       0.526 sec  ( 22.6% of XC)
    XC-Functional eval.     ....       0.147 sec  (  6.3% of XC)
    XC-Potential eval.      ....       0.815 sec  ( 35.0% of XC)
Diagonalization             ....       0.053 sec  (  0.4%)
Density matrix formation    ....       0.004 sec  (  0.0%)
Population analysis         ....       0.006 sec  (  0.1%)
Initial guess               ....       0.134 sec  (  1.1%)
Orbital Transformation      ....       0.000 sec  (  0.0%)
Orbital Orthonormalization  ....       0.000 sec  (  0.0%)
DIIS solution               ....       0.034 sec  (  0.3%)
SOSCF solution              ....       0.036 sec  (  0.3%)
Grid generation             ....       0.683 sec  (  5.7%)

Maximum memory used throughout the entire SCF-calculation: 64.0 MB


-------------------------------------------------------------------------------
                          DFT DISPERSION CORRECTION                            
                                                                               
                              DFTD3 V3.1  Rev 1                                
                          USING Becke-Johnson damping                          
-------------------------------------------------------------------------------
The B3LYP functional is recognized
Active option DFTDOPT                   ...         4   

molecular C6(AA) [au] = 434.704067 


            DFT-D V3
 parameters
 s6 scaling factor         :     1.0000 
 a1 scaling factor         :     0.3981 
 s8 scaling factor         :     1.9889 
 a2 scaling factor         :     4.4211 
 ad hoc parameters k1-k3   :    16.0000     1.3333    -4.0000 

 Edisp/kcal,au: -3.913179633482  -0.006236048024 
 E6   /kcal   :  -1.966541980 
 E8   /kcal   :  -1.946637653 
 % E8         :  49.745675778 

-------------------------   ----------------
Dispersion correction           -0.006236048
-------------------------   ----------------


-------------------------   --------------------
FINAL SINGLE POINT ENERGY      -154.406829221897
-------------------------   --------------------


                            ***************************************
                            *     ORCA property calculations      *
                            ***************************************

                                    ---------------------
                                    Active property flags
                                    ---------------------
   (+) Dipole Moment


------------------------------------------------------------------------------
                       ORCA ELECTRIC PROPERTIES CALCULATION
------------------------------------------------------------------------------

Dipole Moment Calculation                       ... on
Quadrupole Moment Calculation                   ... off
Polarizability Calculation                      ... off
GBWName                                         ... TZVPD_B3LYP_A_wt_dlpno_neg.gbw
Electron density file                           ... TZVPD_B3LYP_A_wt_dlpno_neg.scfp
The origin for moment calculation is the CENTER OF MASS  = (-1.950591, -1.157254  1.573021)

-------------
DIPOLE MOMENT
-------------
                                X             Y             Z
Electronic contribution:     -1.65758      -1.90326      -1.55721
Nuclear contribution   :      2.47835       2.80827       2.30058
                        -----------------------------------------
Total Dipole Moment    :      0.82077       0.90501       0.74337
                        -----------------------------------------
Magnitude (a.u.)       :      1.43015
Magnitude (Debye)      :      3.63514



--------------------
Rotational spectrum 
--------------------
 
Rotational constants in cm-1:     1.255775     0.327783     0.287473 
Rotational constants in MHz : 37647.186859  9826.677683  8618.224821 

 Dipole components along the rotational axes: 
x,y,z [a.u.] :     1.381033    -0.371534     0.005064 
x,y,z [Debye]:     3.510307    -0.944363     0.012871 

 

Timings for individual modules:

Sum of individual times         ...       15.505 sec (=   0.258 min)
GTO integral calculation        ...        1.890 sec (=   0.032 min)  12.2 %
SCF iterations                  ...       13.615 sec (=   0.227 min)  87.8 %
                             ****ORCA TERMINATED NORMALLY****
TOTAL RUN TIME: 0 days 0 hours 0 minutes 16 seconds 3 msec
