
                                        *****************
                                        * O   R   C   A *
                                        *****************

                                            #,                                       
                                            ###                                      
                                            ####                                     
                                            #####                                    
                                            ######                                   
                                           ########,                                 
                                     ,,################,,,,,                         
                               ,,#################################,,                 
                          ,,##########################################,,             
                       ,#########################################, ''#####,          
                    ,#############################################,,   '####,        
                  ,##################################################,,,,####,       
                ,###########''''           ''''###############################       
              ,#####''   ,,,,##########,,,,          '''####'''          '####       
            ,##' ,,,,###########################,,,                        '##       
           ' ,,###''''                  '''############,,,                           
         ,,##''                                '''############,,,,        ,,,,,,###''
      ,#''                                            '''#######################'''  
     '                                                          ''''####''''         
             ,#######,   #######,   ,#######,      ##                                
            ,#'     '#,  ##    ##  ,#'     '#,    #''#        ######   ,####,        
            ##       ##  ##   ,#'  ##            #'  '#       #        #'  '#        
            ##       ##  #######   ##           ,######,      #####,   #    #        
            '#,     ,#'  ##    ##  '#,     ,#' ,#      #,         ##   #,  ,#        
             '#######'   ##     ##  '#######'  #'      '#     #####' # '####'        



                  #######################################################
                  #                        -***-                        #
                  #          Department of theory and spectroscopy      #
                  #    Directorship and core code : Frank Neese         #
                  #        Max Planck Institute fuer Kohlenforschung    #
                  #                Kaiser Wilhelm Platz 1               #
                  #                 D-45470 Muelheim/Ruhr               #
                  #                      Germany                        #
                  #                                                     #
                  #                  All rights reserved                #
                  #                        -***-                        #
                  #######################################################


                         Program Version 5.0.0 -  RELEASE  -
                                (SVN: $Rev: 19529$)
                ($Date: 2021-06-28 11:36:33 +0200 (Mo, 28 Jun 2021) $)


 With contributions from (in alphabetic order):
   Daniel Aravena         : Magnetic Suceptibility
   Michael Atanasov       : Ab Initio Ligand Field Theory (pilot matlab implementation)
   Alexander A. Auer      : GIAO ZORA, VPT2 properties, NMR spectrum
   Ute Becker             : Parallelization
   Giovanni Bistoni       : ED, misc. LED, open-shell LED, HFLD
   Martin Brehm           : Molecular dynamics
   Dmytro Bykov           : SCF Hessian
   Vijay G. Chilkuri      : MRCI spin determinant printing, contributions to CSF-ICE
   Dipayan Datta          : RHF DLPNO-CCSD density
   Achintya Kumar Dutta   : EOM-CC, STEOM-CC
   Dmitry Ganyushin       : Spin-Orbit,Spin-Spin,Magnetic field MRCI
   Miquel Garcia          : C-PCM Hessian, Gaussian charge scheme
   Yang Guo               : DLPNO-NEVPT2, F12-NEVPT2, CIM, IAO-localization
   Andreas Hansen         : Spin unrestricted coupled pair/coupled cluster methods
   Benjamin Helmich-Paris : MC-RPA, TRAH-SCF, COSX integrals
   Lee Huntington         : MR-EOM, pCC
   Robert Izsak           : Overlap fitted RIJCOSX, COSX-SCS-MP3, EOM
   Marcus Kettner         : VPT2
   Christian Kollmar      : KDIIS, OOCD, Brueckner-CCSD(T), CCSD density, CASPT2, CASPT2-K
   Simone Kossmann        : Meta GGA functionals, TD-DFT gradient, OOMP2, MP2 Hessian
   Martin Krupicka        : Initial AUTO-CI
   Lucas Lang             : DCDCAS
   Marvin Lechner         : AUTO-CI (C++ implementation), FIC-MRCC
   Dagmar Lenk            : GEPOL surface, SMD
   Dimitrios Liakos       : Extrapolation schemes; Compound Job, initial MDCI parallelization
   Dimitrios Manganas     : Further ROCIS development; embedding schemes
   Dimitrios Pantazis     : SARC Basis sets
   Anastasios Papadopoulos: AUTO-CI, single reference methods and gradients
   Taras Petrenko         : DFT Hessian,TD-DFT gradient, ASA, ECA, R-Raman, ABS, FL, XAS/XES, NRVS
   Peter Pinski           : DLPNO-MP2, DLPNO-MP2 Gradient
   Christoph Reimann      : Effective Core Potentials
   Marius Retegan         : Local ZFS, SOC
   Christoph Riplinger    : Optimizer, TS searches, QM/MM, DLPNO-CCSD(T), (RO)-DLPNO pert. Triples
   Tobias Risthaus        : Range-separated hybrids, TD-DFT gradient, RPA, STAB
   Michael Roemelt        : Original ROCIS implementation
   Masaaki Saitow         : Open-shell DLPNO-CCSD energy and density
   Barbara Sandhoefer     : DKH picture change effects
   Avijit Sen             : IP-ROCIS
   Kantharuban Sivalingam : CASSCF convergence, NEVPT2, FIC-MRCI
   Bernardo de Souza      : ESD, SOC TD-DFT
   Georgi Stoychev        : AutoAux, RI-MP2 NMR
   Willem Van den Heuvel  : Paramagnetic NMR
   Boris Wezisla          : Elementary symmetry handling
   Frank Wennmohs         : Technical directorship


 We gratefully acknowledge several colleagues who have allowed us to
 interface, adapt or use parts of their codes:
   Stefan Grimme, W. Hujo, H. Kruse, P. Pracht,  : VdW corrections, initial TS optimization,
                  C. Bannwarth, S. Ehlert          DFT functionals, gCP, sTDA/sTD-DF
   Ed Valeev, F. Pavosevic, A. Kumar             : LibInt (2-el integral package), F12 methods
   Garnet Chan, S. Sharma, J. Yang, R. Olivares  : DMRG
   Ulf Ekstrom                                   : XCFun DFT Library
   Mihaly Kallay                                 : mrcc  (arbitrary order and MRCC methods)
   Jiri Pittner, Ondrej Demel                    : Mk-CCSD
   Frank Weinhold                                : gennbo (NPA and NBO analysis)
   Christopher J. Cramer and Donald G. Truhlar   : smd solvation model
   Lars Goerigk                                  : TD-DFT with DH, B97 family of functionals
   V. Asgeirsson, H. Jonsson                     : NEB implementation
   FAccTs GmbH                                   : IRC, NEB, NEB-TS, DLPNO-Multilevel, CI-OPT
                                                   MM, QMMM, 2- and 3-layer-ONIOM, Crystal-QMMM,
                                                   LR-CPCM, SF, NACMEs, symmetry and pop. for TD-DFT,
                                                   nearIR, NL-DFT gradient (VV10), updates on ESD,
                                                   ML-optimized integration grids
   S Lehtola, MJT Oliveira, MAL Marques          : LibXC Library
   Liviu Ungur et al                             : ANISO software


 Your calculation uses the libint2 library for the computation of 2-el integrals
 For citations please refer to: http://libint.valeyev.net

 Your ORCA version has been built with support for libXC version: 5.1.0
 For citations please refer to: https://tddft.org/programs/libxc/

 This ORCA versions uses:
   CBLAS   interface :  Fast vector & matrix operations
   LAPACKE interface :  Fast linear algebra routines
   SCALAPACK package :  Parallel linear algebra routines
   Shared memory     :  Shared parallel matrices
   BLAS/LAPACK       :  OpenBLAS 0.3.15  USE64BITINT DYNAMIC_ARCH NO_AFFINITY Haswell SINGLE_THREADED
        Core in use  :  Haswell
   Copyright (c) 2011-2014, The OpenBLAS Project


Your calculation utilizes the atom-pairwise dispersion correction
with the Becke-Johnson damping scheme (D3BJ)
Cite in your paper:
S.Grimme, S.Ehrlich, L.Goerigk, J Comput Chem, (2011), 32, 1456–1465 
S.Grimme, J.Antony, S.Ehrlich and H.Krieg, J.Chem.Phys., 132, (2010), 154104 
   

================================================================================

----- Orbital basis set information -----
Your calculation utilizes the basis: def2-SVPD
   F. Weigend and R. Ahlrichs, Phys. Chem. Chem. Phys. 7, 3297 (2005).
   D. Rappoport and F. Furche, J. Chem. Phys. 133 134105 (2010).

----- AuxJ basis set information -----
Your calculation utilizes the auxiliary basis: def2/J
   F. Weigend, Phys. Chem. Chem. Phys. 8, 1057 (2006).

================================================================================
                                        WARNINGS
                       Please study these warnings very carefully!
================================================================================



WARNING: Found flag for RIJCOSX approximation but no HF exchange needed!
  ===> : RIJCOSX  will be disabled and Split-RI-J is turned on

INFO   : the flag for use of the SHARK integral package has been found!

================================================================================
                                       INPUT FILE
================================================================================
NAME = 18Feb_SVPD_BLYP_A_wt_wb97_typm1_neg.com
|  1> !BLYP D3BJ RIJCOSX def2-SVPD def2/J TightSCF 
|  2> *xyz -1 1
|  3> C         -0.47749        0.60819       -4.10105
|  4> C          0.18467       -0.50664       -4.91676
|  5> O         -0.15869       -1.70109       -4.65798
|  6> O          1.05594       -0.17441       -5.74037
|  7> H         -0.09903        1.55672       -4.42038
|  8> H         -0.25931        0.46828       -3.06292
|  9> H         -1.53664        0.57826       -4.25010
| 10> *
| 11> 
| 12> %MaxCore 64000
| 13> 
| 14> %pal nprocs 4
| 15> end  
| 16> 
| 17> %scf
| 18>   MaxIter 150
| 19> end
| 20> 
| 21> 
| 22>                          ****END OF INPUT****
================================================================================

                       ****************************
                       * Single Point Calculation *
                       ****************************

---------------------------------
CARTESIAN COORDINATES (ANGSTROEM)
---------------------------------
  C     -0.477490    0.608190   -4.101050
  C      0.184670   -0.506640   -4.916760
  O     -0.158690   -1.701090   -4.657980
  O      1.055940   -0.174410   -5.740370
  H     -0.099030    1.556720   -4.420380
  H     -0.259310    0.468280   -3.062920
  H     -1.536640    0.578260   -4.250100

----------------------------
CARTESIAN COORDINATES (A.U.)
----------------------------
  NO LB      ZA    FRAG     MASS         X           Y           Z
   0 C     6.0000    0    12.011   -0.902325    1.149313   -7.749861
   1 C     6.0000    0    12.011    0.348976   -0.957411   -9.291330
   2 O     8.0000    0    15.999   -0.299881   -3.214594   -8.802307
   3 O     8.0000    0    15.999    1.995437   -0.329587  -10.847727
   4 H     1.0000    0     1.008   -0.187140    2.941774   -8.353308
   5 H     1.0000    0     1.008   -0.490025    0.884921   -5.788080
   6 H     1.0000    0     1.008   -2.903829    1.092753   -8.031525

--------------------------------
INTERNAL COORDINATES (ANGSTROEM)
--------------------------------
 C      0   0   0     0.000000000000     0.00000000     0.00000000
 C      1   0   0     1.531889225303     0.00000000     0.00000000
 O      2   1   0     1.269477837735   117.34060562     0.00000000
 O      2   1   3     1.244114792895   117.44393262   182.92898924
 H      1   2   3     1.070005972600   109.47088987   180.00014291
 H      1   2   3     1.069995895973   109.47104861    59.99989936
 H      1   2   3     1.070004873774   109.47129531   300.00012089

---------------------------
INTERNAL COORDINATES (A.U.)
---------------------------
 C      0   0   0     0.000000000000     0.00000000     0.00000000
 C      1   0   0     2.894851103328     0.00000000     0.00000000
 O      2   1   0     2.398965446401   117.34060562     0.00000000
 O      2   1   3     2.351036237732   117.44393262   182.92898924
 H      1   2   3     2.022018249874   109.47088987   180.00014291
 H      1   2   3     2.021999207809   109.47104861    59.99989936
 H      1   2   3     2.022016173394   109.47129531   300.00012089

---------------------
BASIS SET INFORMATION
---------------------
There are 3 groups of distinct atoms

 Group   1 Type C   : 8s4p2d contracted to 4s2p2d pattern {5111/31/11}
 Group   2 Type O   : 8s5p2d contracted to 4s3p2d pattern {5111/311/11}
 Group   3 Type H   : 4s2p contracted to 2s2p pattern {31/11}

Atom   0C    basis set group =>   1
Atom   1C    basis set group =>   1
Atom   2O    basis set group =>   2
Atom   3O    basis set group =>   2
Atom   4H    basis set group =>   3
Atom   5H    basis set group =>   3
Atom   6H    basis set group =>   3
---------------------------------
AUXILIARY/J BASIS SET INFORMATION
---------------------------------
There are 3 groups of distinct atoms

 Group   1 Type C   : 12s5p4d2f1g contracted to 6s4p3d1f1g pattern {711111/2111/211/2/1}
 Group   2 Type O   : 12s5p4d2f1g contracted to 6s4p3d1f1g pattern {711111/2111/211/2/1}
 Group   3 Type H   : 5s2p1d contracted to 3s1p1d pattern {311/2/1}

Atom   0C    basis set group =>   1
Atom   1C    basis set group =>   1
Atom   2O    basis set group =>   2
Atom   3O    basis set group =>   2
Atom   4H    basis set group =>   3
Atom   5H    basis set group =>   3
Atom   6H    basis set group =>   3


           ************************************************************
           *        Program running with 4 parallel MPI-processes     *
           *              working on a common directory               *
           ************************************************************
------------------------------------------------------------------------------
                           ORCA GTO INTEGRAL CALCULATION
                           -- RI-GTO INTEGRALS CHOSEN --
------------------------------------------------------------------------------
------------------------------------------------------------------------------
                   ___                                                        
                  /   \      - P O W E R E D   B Y -                         
                 /     \                                                     
                 |  |  |   _    _      __       _____    __    __             
                 |  |  |  | |  | |    /  \     |  _  \  |  |  /  |          
                  \  \/   | |  | |   /    \    | | | |  |  | /  /          
                 / \  \   | |__| |  /  /\  \   | |_| |  |  |/  /          
                |  |  |   |  __  | /  /__\  \  |    /   |      \           
                |  |  |   | |  | | |   __   |  |    \   |  |\   \          
                \     /   | |  | | |  |  |  |  | |\  \  |  | \   \       
                 \___/    |_|  |_| |__|  |__|  |_| \__\ |__|  \__/        
                                                                              
                      - O R C A' S   B I G   F R I E N D -                    
                                      &                                       
                       - I N T E G R A L  F E E D E R -                       
                                                                              
 v1 FN, 2020, v2 2021                                                         
------------------------------------------------------------------------------


Reading SHARK input file 18Feb_SVPD_BLYP_A_wt_wb97_typm1_neg.SHARKINP.tmp ... ok
----------------------
SHARK INTEGRAL PACKAGE
----------------------

Number of atoms                             ...      7
Number of basis functions                   ...    110
Number of shells                            ...     46
Maximum angular momentum                    ...      2
Integral batch strategy                     ... SHARK/LIBINT Hybrid
RI-J (if used) integral strategy            ... SPLIT-RIJ (Revised 2003 algorithm where possible)
Printlevel                                  ...      1
Contraction scheme used                     ... SEGMENTED contraction
Coulomb Range Separation                    ... NOT USED
Exchange Range Separation                   ... NOT USED
Finite Nucleus Model                        ... NOT USED
Auxiliary Coulomb fitting basis             ... AVAILABLE
   # of basis functions in Aux-J            ...    229
   # of shells in Aux-J                     ...     75
   Maximum angular momentum in Aux-J        ...      4
Auxiliary J/K fitting basis                 ... NOT available
Auxiliary Correlation fitting basis         ... NOT available
Auxiliary 'external' fitting basis          ... NOT available
Integral threshold                          ...     2.500000e-11
Primitive cut-off                           ...     2.500000e-12
Primitive pair pre-selection threshold      ...     2.500000e-12

Calculating pre-screening integrals         ... done (  0.0 sec) Dimension = 46
Organizing shell pair data                  ... done (  0.0 sec)
Shell pair information
Total number of shell pairs                 ...      1081
Shell pairs after pre-screening             ...      1078
Total number of primitive shell pairs       ...      2987
Primitive shell pairs kept                  ...      2623
          la=0 lb=0:    250 shell pairs
          la=1 lb=0:    352 shell pairs
          la=1 lb=1:    136 shell pairs
          la=2 lb=0:    176 shell pairs
          la=2 lb=1:    128 shell pairs
          la=2 lb=2:     36 shell pairs

Calculating one electron integrals          ... done (  0.0 sec)
Calculating RI/J V-Matrix + Cholesky decomp.... done (  0.0 sec)
Calculating Nuclear repulsion               ... done (  0.0 sec) ENN=    112.498947575261 Eh

SHARK setup successfully completed in   0.1 seconds

Maximum memory used throughout the entire GTOINT-calculation: 8.8 MB


           ************************************************************
           *        Program running with 4 parallel MPI-processes     *
           *              working on a common directory               *
           ************************************************************
-------------------------------------------------------------------------------
                                 ORCA SCF
-------------------------------------------------------------------------------

------------
SCF SETTINGS
------------
Hamiltonian:
 Density Functional     Method          .... DFT(GTOs)
 Exchange Functional    Exchange        .... B88
   X-Alpha parameter    XAlpha          ....  0.666667
   Becke's b parameter  XBeta           ....  0.004200
 Correlation Functional Correlation     .... LYP
 Gradients option       PostSCFGGA      .... off
   Density functional embedding theory  .... OFF
   NL short-range parameter             ....  4.000000
 RI-approximation to the Coulomb term is turned on
   Number of AuxJ basis functions       .... 229


General Settings:
 Integral files         IntName         .... 18Feb_SVPD_BLYP_A_wt_wb97_typm1_neg
 Hartree-Fock type      HFTyp           .... RHF
 Total Charge           Charge          ....   -1
 Multiplicity           Mult            ....    1
 Number of Electrons    NEL             ....   32
 Basis Dimension        Dim             ....  110
 Nuclear Repulsion      ENuc            ....    112.4989475753 Eh

Convergence Acceleration:
 DIIS                   CNVDIIS         .... on
   Start iteration      DIISMaxIt       ....    12
   Startup error        DIISStart       ....  0.200000
   # of expansion vecs  DIISMaxEq       ....     5
   Bias factor          DIISBfac        ....   1.050
   Max. coefficient     DIISMaxC        ....  10.000
 Trust-Rad. Augm. Hess. CNVTRAH         .... auto
   Auto Start mean grad. ratio tolernc. ....  1.125000
   Auto Start start iteration           ....    20
   Auto Start num. interpolation iter.  ....    10
   Max. Number of Micro iterations      ....    16
   Max. Number of Macro iterations      .... Maxiter - #DIIS iter
   Number of Davidson start vectors     ....     2
   Converg. threshold I  (grad. norm)   ....   1.000e-05
   Converg. threshold II (energy diff.) ....   1.000e-08
   Grad. Scal. Fac. for Micro threshold ....   0.100
   Minimum threshold for Micro iter.    ....   0.010
   NR start threshold (gradient norm)   ....   0.001
   Initial trust radius                 ....   0.400
   Minimum AH scaling param. (alpha)    ....   1.000
   Maximum AH scaling param. (alpha)    .... 1000.000
   Orbital update algorithm             .... Taylor
   White noise on init. David. guess    .... on
   Maximum white noise                  ....   0.010
   Quad. conv. algorithm                .... NR
 SOSCF                  CNVSOSCF        .... on
   Start iteration      SOSCFMaxIt      ....   150
   Startup grad/error   SOSCFStart      ....  0.003300
 Level Shifting         CNVShift        .... on
   Level shift para.    LevelShift      ....    0.2500
   Turn off err/grad.   ShiftErr        ....    0.0010
 Zerner damping         CNVZerner       .... off
 Static damping         CNVDamp         .... on
   Fraction old density DampFac         ....    0.7000
   Max. Damping (<1)    DampMax         ....    0.9800
   Min. Damping (>=0)   DampMin         ....    0.0000
   Turn off err/grad.   DampErr         ....    0.1000
 Fernandez-Rico         CNVRico         .... off

SCF Procedure:
 Maximum # iterations   MaxIter         ....   150
 SCF integral mode      SCFMode         .... Direct
   Integral package                     .... SHARK and LIBINT hybrid scheme
 Reset frequency        DirectResetFreq ....    20
 Integral Threshold     Thresh          ....  2.500e-11 Eh
 Primitive CutOff       TCut            ....  2.500e-12 Eh

Convergence Tolerance:
 Convergence Check Mode ConvCheckMode   .... Total+1el-Energy
 Convergence forced     ConvForced      .... 0
 Energy Change          TolE            ....  1.000e-08 Eh
 1-El. energy change                    ....  1.000e-05 Eh
 Orbital Gradient       TolG            ....  1.000e-05
 Orbital Rotation angle TolX            ....  1.000e-05
 DIIS Error             TolErr          ....  5.000e-07


Diagonalization of the overlap matrix:
Smallest eigenvalue                        ... 1.571e-04
Time for diagonalization                   ...    0.005 sec
Threshold for overlap eigenvalues          ... 1.000e-08
Number of eigenvalues below threshold      ... 0
Time for construction of square roots      ...    0.004 sec
Total time needed                          ...    0.009 sec

Time for model grid setup =    0.044 sec

------------------------------
INITIAL GUESS: MODEL POTENTIAL
------------------------------
Loading Hartree-Fock densities                     ... done
Calculating cut-offs                               ... done
Initializing the effective Hamiltonian             ... done
Setting up the integral package (SHARK)            ... done
Starting the Coulomb interaction                   ... done (   0.0 sec)
Reading the grid                                   ... done
Mapping shells                                     ... done
Starting the XC term evaluation                    ... done (   0.0 sec)
  promolecular density results
     # of electrons  =     30.999405480
     EX              =    -27.513184265
     EC              =     -1.066990007
     EX+EC           =    -28.580174273
Transforming the Hamiltonian                       ... done (   0.0 sec)
Diagonalizing the Hamiltonian                      ... done (   0.0 sec)
Back transforming the eigenvectors                 ... done (   0.0 sec)
Now organizing SCF variables                       ... done
                      ------------------
                      INITIAL GUESS DONE (   0.1 sec)
                      ------------------
-------------------
DFT GRID GENERATION
-------------------

General Integration Accuracy     IntAcc      ... 4.388
Radial Grid Type                 RadialGrid  ... OptM3 with GC (2021)
Angular Grid (max. ang.)         AngularGrid ... 4 (Lebedev-302)
Angular grid pruning method      GridPruning ... 4 (adaptive)
Weight generation scheme         WeightScheme... Becke
Basis function cutoff            BFCut       ... 1.0000e-11
Integration weight cutoff        WCut        ... 1.0000e-14
Angular grids for H and He will be reduced by one unit
Partially contracted basis set               ... off
Rotationally invariant grid construction     ... off

Total number of grid points                  ...    35408
Total number of batches                      ...      557
Average number of points per batch           ...       63
Average number of grid points per atom       ...     5058
Time for grid setup =    0.224 sec

--------------
SCF ITERATIONS
--------------
ITER       Energy         Delta-E        Max-DP      RMS-DP      [F,P]     Damp
               ***  Starting incremental Fock matrix formation  ***
  0   -228.0430768666   0.000000000000 0.26796037  0.00668197  0.2978380 0.7000
  1   -228.1881279194  -0.145051052816 0.44698390  0.00715088  0.0908732 0.7000
                               ***Turning on DIIS***
  2   -228.2249753740  -0.036847454674 0.85410367  0.01401880  0.0303008 0.0000
  3   -228.3008720523  -0.075896678222 0.42518356  0.00581214  0.0614403 0.0000
  4   -228.3150060644  -0.014134012126 0.24061400  0.00337402  0.0260198 0.0000
  5   -228.3177354323  -0.002729367853 0.13395485  0.00193488  0.0046187 0.0000
                      *** Initiating the SOSCF procedure ***
                           *** Shutting down DIIS ***
                      *** Re-Reading the Fockian *** 
                      *** Removing any level shift *** 
ITER      Energy       Delta-E        Grad      Rot      Max-DP    RMS-DP
  6   -228.31787747  -0.0001420335  0.000663  0.000663  0.071803  0.001061
               *** Restarting incremental Fock matrix formation ***
  7   -228.31789503  -0.0000175601  0.000361  0.001863  0.076621  0.001180
  8   -228.31788434   0.0000106828  0.001409  0.001471  0.024112  0.000381
  9   -228.31790003  -0.0000156902  0.000187  0.000779  0.029400  0.000453
 10   -228.31789963   0.0000004021  0.000235  0.000252  0.000612  0.000025
 11   -228.31790086  -0.0000012315  0.000080  0.000394  0.013042  0.000200
 12   -228.31790078   0.0000000866  0.000108  0.000124  0.003260  0.000050
 13   -228.31790099  -0.0000002183  0.000012  0.000120  0.003737  0.000058
 14   -228.31790100  -0.0000000043  0.000009  0.000052  0.001608  0.000025
                  ***Gradient check signals convergence***
              ***Rediagonalizing the Fockian in SOSCF/NRSCF***

               *****************************************************
               *                     SUCCESS                       *
               *           SCF CONVERGED AFTER  15 CYCLES          *
               *****************************************************


----------------
TOTAL SCF ENERGY
----------------

Total Energy       :         -228.31790100 Eh           -6212.84594 eV

Components:
Nuclear Repulsion  :          112.49894758 Eh            3061.25199 eV
Electronic Energy  :         -340.81684858 Eh           -9274.09794 eV
One Electron Energy:         -541.71610641 Eh          -14740.84467 eV
Two Electron Energy:          200.89925783 Eh            5466.74673 eV

Virial components:
Potential Energy   :         -454.78345879 Eh          -12375.28706 eV
Kinetic Energy     :          226.46555779 Eh            6162.44112 eV
Virial Ratio       :            2.00817936


DFT components:
N(Alpha)           :       16.000254032848 electrons
N(Beta)            :       16.000254032848 electrons
N(Total)           :       32.000508065696 electrons
E(X)               :      -28.178491601007 Eh       
E(C)               :       -1.103412534139 Eh       
E(XC)              :      -29.281904135146 Eh       
DFET-embed. en.    :        0.000000000000 Eh       

---------------
SCF CONVERGENCE
---------------

  Last Energy change         ...   -3.8372e-09  Tolerance :   1.0000e-08
  Last MAX-Density change    ...    1.1836e-05  Tolerance :   1.0000e-07
  Last RMS-Density change    ...    2.8518e-07  Tolerance :   5.0000e-09
  Last Orbital Gradient      ...    7.5067e-07  Tolerance :   1.0000e-05
  Last Orbital Rotation      ...    1.3434e-06  Tolerance :   1.0000e-05

             **** THE GBW FILE WAS UPDATED (18Feb_SVPD_BLYP_A_wt_wb97_typm1_neg.gbw) ****
             **** DENSITY 18Feb_SVPD_BLYP_A_wt_wb97_typm1_neg.scfp WAS UPDATED ****
             **** ENERGY FILE WAS UPDATED (18Feb_SVPD_BLYP_A_wt_wb97_typm1_neg.en.tmp) ****
             **** THE GBW FILE WAS UPDATED (18Feb_SVPD_BLYP_A_wt_wb97_typm1_neg.gbw) ****
             **** DENSITY 18Feb_SVPD_BLYP_A_wt_wb97_typm1_neg.scfp WAS UPDATED ****
----------------
ORBITAL ENERGIES
----------------

  NO   OCC          E(Eh)            E(eV) 
   0   2.0000     -18.531055      -504.2556 
   1   2.0000     -18.526186      -504.1232 
   2   2.0000      -9.802273      -266.7334 
   3   2.0000      -9.735720      -264.9224 
   4   2.0000      -0.715092       -19.4587 
   5   2.0000      -0.625815       -17.0293 
   6   2.0000      -0.462441       -12.5837 
   7   2.0000      -0.240840        -6.5536 
   8   2.0000      -0.208517        -5.6740 
   9   2.0000      -0.193188        -5.2569 
  10   2.0000      -0.166014        -4.5175 
  11   2.0000      -0.130719        -3.5570 
  12   2.0000      -0.118059        -3.2125 
  13   2.0000      -0.006953        -0.1892 
  14   2.0000       0.004556         0.1240 
  15   2.0000       0.023830         0.6485 
  16   0.0000       0.155292         4.2257 
  17   0.0000       0.198785         5.4092 
  18   0.0000       0.200505         5.4560 
  19   0.0000       0.223636         6.0854 
  20   0.0000       0.242620         6.6020 
  21   0.0000       0.246839         6.7168 
  22   0.0000       0.249328         6.7846 
  23   0.0000       0.265706         7.2302 
  24   0.0000       0.268326         7.3015 
  25   0.0000       0.283987         7.7277 
  26   0.0000       0.312867         8.5135 
  27   0.0000       0.323768         8.8102 
  28   0.0000       0.332215         9.0400 
  29   0.0000       0.345904         9.4125 
  30   0.0000       0.392820        10.6892 
  31   0.0000       0.413598        11.2546 
  32   0.0000       0.430071        11.7028 
  33   0.0000       0.442116        12.0306 
  34   0.0000       0.472819        12.8661 
  35   0.0000       0.477651        12.9975 
  36   0.0000       0.488689        13.2979 
  37   0.0000       0.498117        13.5544 
  38   0.0000       0.504078        13.7167 
  39   0.0000       0.525141        14.2898 
  40   0.0000       0.541778        14.7425 
  41   0.0000       0.558775        15.2051 
  42   0.0000       0.571409        15.5488 
  43   0.0000       0.586303        15.9541 
  44   0.0000       0.611375        16.6364 
  45   0.0000       0.621673        16.9166 
  46   0.0000       0.628957        17.1148 
  47   0.0000       0.663376        18.0514 
  48   0.0000       0.675123        18.3710 
  49   0.0000       0.679997        18.5037 
  50   0.0000       0.688827        18.7439 
  51   0.0000       0.717688        19.5293 
  52   0.0000       0.735322        20.0091 
  53   0.0000       0.766024        20.8446 
  54   0.0000       0.782324        21.2881 
  55   0.0000       0.794396        21.6166 
  56   0.0000       0.823157        22.3992 
  57   0.0000       0.849430        23.1142 
  58   0.0000       0.852370        23.1942 
  59   0.0000       0.861699        23.4480 
  60   0.0000       0.864190        23.5158 
  61   0.0000       0.944517        25.7016 
  62   0.0000       0.956428        26.0257 
  63   0.0000       0.985422        26.8147 
  64   0.0000       1.039150        28.2767 
  65   0.0000       1.097953        29.8768 
  66   0.0000       1.101360        29.9695 
  67   0.0000       1.126189        30.6452 
  68   0.0000       1.166874        31.7523 
  69   0.0000       1.168128        31.7864 
  70   0.0000       1.216632        33.1062 
  71   0.0000       1.310300        35.6551 
  72   0.0000       1.374558        37.4036 
  73   0.0000       1.629083        44.3296 
  74   0.0000       1.634554        44.4785 
  75   0.0000       1.651375        44.9362 
  76   0.0000       1.668972        45.4150 
  77   0.0000       1.690512        46.0012 
  78   0.0000       1.744650        47.4743 
  79   0.0000       1.784301        48.5533 
  80   0.0000       1.790953        48.7343 
  81   0.0000       1.845692        50.2238 
  82   0.0000       1.869451        50.8703 
  83   0.0000       1.952882        53.1406 
  84   0.0000       2.062118        56.1131 
  85   0.0000       2.072230        56.3883 
  86   0.0000       2.093096        56.9560 
  87   0.0000       2.115494        57.5655 
  88   0.0000       2.130234        57.9666 
  89   0.0000       2.205165        60.0056 
  90   0.0000       2.317516        63.0628 
  91   0.0000       2.337177        63.5978 
  92   0.0000       2.387034        64.9545 
  93   0.0000       2.481715        67.5309 
  94   0.0000       2.625305        71.4382 
  95   0.0000       2.702312        73.5336 
  96   0.0000       2.706271        73.6414 
  97   0.0000       2.982624        81.1613 
  98   0.0000       3.005652        81.7879 
  99   0.0000       3.009153        81.8832 
 100   0.0000       3.021109        82.2085 
 101   0.0000       3.085408        83.9582 
 102   0.0000       3.154322        85.8335 
 103   0.0000       3.160096        85.9906 
 104   0.0000       3.185541        86.6830 
 105   0.0000       3.350388        91.1687 
 106   0.0000       3.419375        93.0459 
 107   0.0000       3.583953        97.5243 
 108   0.0000       3.806675       103.5849 
 109   0.0000       3.938720       107.1780 

                    ********************************
                    * MULLIKEN POPULATION ANALYSIS *
                    ********************************

-----------------------
MULLIKEN ATOMIC CHARGES
-----------------------
   0 C :    0.857325
   1 C :   -0.154655
   2 O :   -0.595989
   3 O :   -0.521279
   4 H :   -0.214415
   5 H :   -0.186213
   6 H :   -0.184774
Sum of atomic charges:   -1.0000000

--------------------------------
MULLIKEN REDUCED ORBITAL CHARGES
--------------------------------
  0 C s       :     2.285900  s :     2.285900
      pz      :     0.939903  p :     2.779586
      px      :     0.912639
      py      :     0.927044
      dz2     :     0.009536  d :     0.077189
      dxz     :     0.010863
      dyz     :     0.012118
      dx2y2   :     0.031145
      dxy     :     0.013527
  1 C s       :     3.175752  s :     3.175752
      pz      :     0.850687  p :     2.597338
      px      :     0.850568
      py      :     0.896083
      dz2     :     0.088603  d :     0.381565
      dxz     :     0.051609
      dyz     :     0.064958
      dx2y2   :     0.111721
      dxy     :     0.064674
  2 O s       :     3.837803  s :     3.837803
      pz      :     1.722036  p :     4.738778
      px      :     1.702078
      py      :     1.314664
      dz2     :     0.002832  d :     0.019409
      dxz     :     0.001144
      dyz     :     0.005157
      dx2y2   :     0.006255
      dxy     :     0.004021
  3 O s       :     3.801871  s :     3.801871
      pz      :     1.441709  p :     4.694808
      px      :     1.408199
      py      :     1.844899
      dz2     :     0.007177  d :     0.024600
      dxz     :     0.007517
      dyz     :     0.003153
      dx2y2   :     0.004309
      dxy     :     0.002444
  4 H s       :     1.104581  s :     1.104581
      pz      :     0.021608  p :     0.109834
      px      :     0.021868
      py      :     0.066357
  5 H s       :     1.112647  s :     1.112647
      pz      :     0.073122  p :     0.073566
      px      :    -0.021950
      py      :     0.022394
  6 H s       :     1.111693  s :     1.111693
      pz      :    -0.021848  p :     0.073081
      px      :     0.077571
      py      :     0.017358


                     *******************************
                     * LOEWDIN POPULATION ANALYSIS *
                     *******************************

----------------------
LOEWDIN ATOMIC CHARGES
----------------------
   0 C :    0.156517
   1 C :   -0.359259
   2 O :   -0.334455
   3 O :   -0.312279
   4 H :   -0.054876
   5 H :   -0.046897
   6 H :   -0.048751

-------------------------------
LOEWDIN REDUCED ORBITAL CHARGES
-------------------------------
  0 C s       :     2.717142  s :     2.717142
      pz      :     0.919003  p :     2.747164
      px      :     0.919205
      py      :     0.908956
      dz2     :     0.105433  d :     0.379177
      dxz     :     0.044820
      dyz     :     0.056292
      dx2y2   :     0.117908
      dxy     :     0.054724
  1 C s       :     2.682464  s :     2.682464
      pz      :     0.785157  p :     2.464271
      px      :     0.789579
      py      :     0.889535
      dz2     :     0.216456  d :     1.212524
      dxz     :     0.165106
      dyz     :     0.278301
      dx2y2   :     0.275395
      dxy     :     0.277266
  2 O s       :     3.484655  s :     3.484655
      pz      :     1.583414  p :     4.625233
      px      :     1.574493
      py      :     1.467325
      dz2     :     0.027421  d :     0.224568
      dxz     :     0.015069
      dyz     :     0.057433
      dx2y2   :     0.067085
      dxy     :     0.057560
  3 O s       :     3.469469  s :     3.469469
      pz      :     1.459724  p :     4.606822
      px      :     1.446102
      py      :     1.700996
      dz2     :     0.042281  d :     0.235988
      dxz     :     0.064953
      dyz     :     0.043653
      dx2y2   :     0.037996
      dxy     :     0.047105
  4 H s       :     0.749041  s :     0.749041
      pz      :     0.089358  p :     0.305835
      px      :     0.091442
      py      :     0.125034
  5 H s       :     0.747692  s :     0.747692
      pz      :     0.133033  p :     0.299204
      px      :     0.083114
      py      :     0.083058
  6 H s       :     0.748787  s :     0.748787
      pz      :     0.082102  p :     0.299965
      px      :     0.135947
      py      :     0.081916


                      *****************************
                      * MAYER POPULATION ANALYSIS *
                      *****************************

  NA   - Mulliken gross atomic population
  ZA   - Total nuclear charge
  QA   - Mulliken gross atomic charge
  VA   - Mayer's total valence
  BVA  - Mayer's bonded valence
  FA   - Mayer's free valence

  ATOM       NA         ZA         QA         VA         BVA        FA
  0 C      5.1427     6.0000     0.8573     3.6320     3.6320     0.0000
  1 C      6.1547     6.0000    -0.1547     5.1127     5.1127    -0.0000
  2 O      8.5960     8.0000    -0.5960     1.5993     1.5993    -0.0000
  3 O      8.5213     8.0000    -0.5213     1.5672     1.5672    -0.0000
  4 H      1.2144     1.0000    -0.2144     1.2147     1.2147    -0.0000
  5 H      1.1862     1.0000    -0.1862     1.1095     1.1095    -0.0000
  6 H      1.1848     1.0000    -0.1848     1.1092     1.1092    -0.0000

  Mayer bond orders larger than 0.100000
B(  0-C ,  1-C ) :   1.2172 B(  0-C ,  4-H ) :   0.7955 B(  0-C ,  5-H ) :   0.7464 
B(  0-C ,  6-H ) :   0.7381 B(  1-C ,  2-O ) :   1.5548 B(  1-C ,  3-O ) :   1.5785 
B(  1-C ,  4-H ) :   0.3170 B(  1-C ,  5-H ) :   0.2186 B(  1-C ,  6-H ) :   0.2265 


-------
TIMINGS
-------

Total SCF time: 0 days 0 hours 0 min 2 sec 

Total time                  ....       2.505 sec
Sum of individual times     ....       2.372 sec  ( 94.7%)

Fock matrix formation       ....       1.980 sec  ( 79.1%)
  Split-RI-J                ....       0.377 sec  ( 19.0% of F)
  XC integration            ....       1.575 sec  ( 79.6% of F)
    Basis function eval.    ....       0.554 sec  ( 35.2% of XC)
    Density eval.           ....       0.329 sec  ( 20.9% of XC)
    XC-Functional eval.     ....       0.117 sec  (  7.4% of XC)
    XC-Potential eval.      ....       0.480 sec  ( 30.5% of XC)
Diagonalization             ....       0.027 sec  (  1.1%)
Density matrix formation    ....       0.002 sec  (  0.1%)
Population analysis         ....       0.004 sec  (  0.2%)
Initial guess               ....       0.049 sec  (  2.0%)
Orbital Transformation      ....       0.000 sec  (  0.0%)
Orbital Orthonormalization  ....       0.000 sec  (  0.0%)
DIIS solution               ....       0.019 sec  (  0.8%)
SOSCF solution              ....       0.022 sec  (  0.9%)
Grid generation             ....       0.268 sec  ( 10.7%)

Maximum memory used throughout the entire SCF-calculation: 11.9 MB


-------------------------------------------------------------------------------
                          DFT DISPERSION CORRECTION                            
                                                                               
                              DFTD3 V3.1  Rev 1                                
                          USING Becke-Johnson damping                          
-------------------------------------------------------------------------------
The BLYP functional is recognized
Active option DFTDOPT                   ...         4   

molecular C6(AA) [au] = 468.940591 


            DFT-D V3
 parameters
 s6 scaling factor         :     1.0000 
 a1 scaling factor         :     0.4298 
 s8 scaling factor         :     2.6996 
 a2 scaling factor         :     4.2359 
 ad hoc parameters k1-k3   :    16.0000     1.3333    -4.0000 

 Edisp/kcal,au: -4.839434259995  -0.007712128571 
 E6   /kcal   :  -1.961400923 
 E8   /kcal   :  -2.878033337 
 % E8         :  59.470450109 

-------------------------   ----------------
Dispersion correction           -0.007712129
-------------------------   ----------------


-------------------------   --------------------
FINAL SINGLE POINT ENERGY      -228.325613131084
-------------------------   --------------------


                            ***************************************
                            *     ORCA property calculations      *
                            ***************************************

                                    ---------------------
                                    Active property flags
                                    ---------------------
   (+) Dipole Moment


------------------------------------------------------------------------------
                       ORCA ELECTRIC PROPERTIES CALCULATION
------------------------------------------------------------------------------

Dipole Moment Calculation                       ... on
Quadrupole Moment Calculation                   ... off
Polarizability Calculation                      ... off
GBWName                                         ... 18Feb_SVPD_BLYP_A_wt_wb97_typm1_neg.gbw
Electron density file                           ... 18Feb_SVPD_BLYP_A_wt_wb97_typm1_neg.scfp
The origin for moment calculation is the CENTER OF MASS  = ( 0.285741, -0.837335 -9.169652)

-------------
DIPOLE MOMENT
-------------
                                X             Y             Z
Electronic contribution:      1.63433      -2.63830      -1.97576
Nuclear contribution   :     -2.19461       3.67480       2.63888
                        -----------------------------------------
Total Dipole Moment    :     -0.56028       1.03650       0.66312
                        -----------------------------------------
Magnitude (a.u.)       :      1.35203
Magnitude (Debye)      :      3.43659



--------------------
Rotational spectrum 
--------------------
 
Rotational constants in cm-1:     0.393152     0.332423     0.186264 
Rotational constants in MHz : 11786.395082  9965.786704  5584.045355 

 Dipole components along the rotational axes: 
x,y,z [a.u.] :     1.351998    -0.003009    -0.008795 
x,y,z [Debye]:     3.436506    -0.007649    -0.022355 

 

Timings for individual modules:

Sum of individual times         ...        3.313 sec (=   0.055 min)
GTO integral calculation        ...        0.489 sec (=   0.008 min)  14.8 %
SCF iterations                  ...        2.824 sec (=   0.047 min)  85.2 %
                             ****ORCA TERMINATED NORMALLY****
TOTAL RUN TIME: 0 days 0 hours 0 minutes 3 seconds 809 msec
