
                                        *****************
                                        * O   R   C   A *
                                        *****************

                                            #,                                       
                                            ###                                      
                                            ####                                     
                                            #####                                    
                                            ######                                   
                                           ########,                                 
                                     ,,################,,,,,                         
                               ,,#################################,,                 
                          ,,##########################################,,             
                       ,#########################################, ''#####,          
                    ,#############################################,,   '####,        
                  ,##################################################,,,,####,       
                ,###########''''           ''''###############################       
              ,#####''   ,,,,##########,,,,          '''####'''          '####       
            ,##' ,,,,###########################,,,                        '##       
           ' ,,###''''                  '''############,,,                           
         ,,##''                                '''############,,,,        ,,,,,,###''
      ,#''                                            '''#######################'''  
     '                                                          ''''####''''         
             ,#######,   #######,   ,#######,      ##                                
            ,#'     '#,  ##    ##  ,#'     '#,    #''#        ######   ,####,        
            ##       ##  ##   ,#'  ##            #'  '#       #        #'  '#        
            ##       ##  #######   ##           ,######,      #####,   #    #        
            '#,     ,#'  ##    ##  '#,     ,#' ,#      #,         ##   #,  ,#        
             '#######'   ##     ##  '#######'  #'      '#     #####' # '####'        



                  #######################################################
                  #                        -***-                        #
                  #          Department of theory and spectroscopy      #
                  #    Directorship and core code : Frank Neese         #
                  #        Max Planck Institute fuer Kohlenforschung    #
                  #                Kaiser Wilhelm Platz 1               #
                  #                 D-45470 Muelheim/Ruhr               #
                  #                      Germany                        #
                  #                                                     #
                  #                  All rights reserved                #
                  #                        -***-                        #
                  #######################################################


                         Program Version 5.0.0 -  RELEASE  -
                                (SVN: $Rev: 19529$)
                ($Date: 2021-06-28 11:36:33 +0200 (Mo, 28 Jun 2021) $)


 With contributions from (in alphabetic order):
   Daniel Aravena         : Magnetic Suceptibility
   Michael Atanasov       : Ab Initio Ligand Field Theory (pilot matlab implementation)
   Alexander A. Auer      : GIAO ZORA, VPT2 properties, NMR spectrum
   Ute Becker             : Parallelization
   Giovanni Bistoni       : ED, misc. LED, open-shell LED, HFLD
   Martin Brehm           : Molecular dynamics
   Dmytro Bykov           : SCF Hessian
   Vijay G. Chilkuri      : MRCI spin determinant printing, contributions to CSF-ICE
   Dipayan Datta          : RHF DLPNO-CCSD density
   Achintya Kumar Dutta   : EOM-CC, STEOM-CC
   Dmitry Ganyushin       : Spin-Orbit,Spin-Spin,Magnetic field MRCI
   Miquel Garcia          : C-PCM Hessian, Gaussian charge scheme
   Yang Guo               : DLPNO-NEVPT2, F12-NEVPT2, CIM, IAO-localization
   Andreas Hansen         : Spin unrestricted coupled pair/coupled cluster methods
   Benjamin Helmich-Paris : MC-RPA, TRAH-SCF, COSX integrals
   Lee Huntington         : MR-EOM, pCC
   Robert Izsak           : Overlap fitted RIJCOSX, COSX-SCS-MP3, EOM
   Marcus Kettner         : VPT2
   Christian Kollmar      : KDIIS, OOCD, Brueckner-CCSD(T), CCSD density, CASPT2, CASPT2-K
   Simone Kossmann        : Meta GGA functionals, TD-DFT gradient, OOMP2, MP2 Hessian
   Martin Krupicka        : Initial AUTO-CI
   Lucas Lang             : DCDCAS
   Marvin Lechner         : AUTO-CI (C++ implementation), FIC-MRCC
   Dagmar Lenk            : GEPOL surface, SMD
   Dimitrios Liakos       : Extrapolation schemes; Compound Job, initial MDCI parallelization
   Dimitrios Manganas     : Further ROCIS development; embedding schemes
   Dimitrios Pantazis     : SARC Basis sets
   Anastasios Papadopoulos: AUTO-CI, single reference methods and gradients
   Taras Petrenko         : DFT Hessian,TD-DFT gradient, ASA, ECA, R-Raman, ABS, FL, XAS/XES, NRVS
   Peter Pinski           : DLPNO-MP2, DLPNO-MP2 Gradient
   Christoph Reimann      : Effective Core Potentials
   Marius Retegan         : Local ZFS, SOC
   Christoph Riplinger    : Optimizer, TS searches, QM/MM, DLPNO-CCSD(T), (RO)-DLPNO pert. Triples
   Tobias Risthaus        : Range-separated hybrids, TD-DFT gradient, RPA, STAB
   Michael Roemelt        : Original ROCIS implementation
   Masaaki Saitow         : Open-shell DLPNO-CCSD energy and density
   Barbara Sandhoefer     : DKH picture change effects
   Avijit Sen             : IP-ROCIS
   Kantharuban Sivalingam : CASSCF convergence, NEVPT2, FIC-MRCI
   Bernardo de Souza      : ESD, SOC TD-DFT
   Georgi Stoychev        : AutoAux, RI-MP2 NMR
   Willem Van den Heuvel  : Paramagnetic NMR
   Boris Wezisla          : Elementary symmetry handling
   Frank Wennmohs         : Technical directorship


 We gratefully acknowledge several colleagues who have allowed us to
 interface, adapt or use parts of their codes:
   Stefan Grimme, W. Hujo, H. Kruse, P. Pracht,  : VdW corrections, initial TS optimization,
                  C. Bannwarth, S. Ehlert          DFT functionals, gCP, sTDA/sTD-DF
   Ed Valeev, F. Pavosevic, A. Kumar             : LibInt (2-el integral package), F12 methods
   Garnet Chan, S. Sharma, J. Yang, R. Olivares  : DMRG
   Ulf Ekstrom                                   : XCFun DFT Library
   Mihaly Kallay                                 : mrcc  (arbitrary order and MRCC methods)
   Jiri Pittner, Ondrej Demel                    : Mk-CCSD
   Frank Weinhold                                : gennbo (NPA and NBO analysis)
   Christopher J. Cramer and Donald G. Truhlar   : smd solvation model
   Lars Goerigk                                  : TD-DFT with DH, B97 family of functionals
   V. Asgeirsson, H. Jonsson                     : NEB implementation
   FAccTs GmbH                                   : IRC, NEB, NEB-TS, DLPNO-Multilevel, CI-OPT
                                                   MM, QMMM, 2- and 3-layer-ONIOM, Crystal-QMMM,
                                                   LR-CPCM, SF, NACMEs, symmetry and pop. for TD-DFT,
                                                   nearIR, NL-DFT gradient (VV10), updates on ESD,
                                                   ML-optimized integration grids
   S Lehtola, MJT Oliveira, MAL Marques          : LibXC Library
   Liviu Ungur et al                             : ANISO software


 Your calculation uses the libint2 library for the computation of 2-el integrals
 For citations please refer to: http://libint.valeyev.net

 Your ORCA version has been built with support for libXC version: 5.1.0
 For citations please refer to: https://tddft.org/programs/libxc/

 This ORCA versions uses:
   CBLAS   interface :  Fast vector & matrix operations
   LAPACKE interface :  Fast linear algebra routines
   SCALAPACK package :  Parallel linear algebra routines
   Shared memory     :  Shared parallel matrices
   BLAS/LAPACK       :  OpenBLAS 0.3.15  USE64BITINT DYNAMIC_ARCH NO_AFFINITY Haswell SINGLE_THREADED
        Core in use  :  Haswell
   Copyright (c) 2011-2014, The OpenBLAS Project




***************************************
The coordinates will be read from file: B.xyz
***************************************


XCFun DFT library Copyright 2009-2010 Ulf Ekstrom and contributors.
See http://admol.org/xcfun for more information.
This is free software; see the source code for copying conditions.
There is ABSOLUTELY NO WARRANTY; not even for MERCHANTABILITY or FITNESS FOR A PARTICULAR PURPOSE.
For details see the documentation.
Scientific users of this library should cite U. Ekstrom, L. Visscher, R. Bast, A. J. Thorvaldsen and K. Ruud;
J.Chem.Theor.Comp. 2010, DOI: 10.1021/ct100117s
XCFun Version 0.99 

================================================================================

----- Orbital basis set information -----
Your calculation utilizes the basis: def2-TZVP
   F. Weigend and R. Ahlrichs, Phys. Chem. Chem. Phys. 7, 3297 (2005).

----- AuxJ basis set information -----
Your calculation utilizes the auxiliary basis: def2/J
   F. Weigend, Phys. Chem. Chem. Phys. 8, 1057 (2006).

================================================================================
                                        WARNINGS
                       Please study these warnings very carefully!
================================================================================


INFO   : the flag for use of the SHARK integral package has been found!

================================================================================
                                       INPUT FILE
================================================================================
NAME = CAMB3LYP_B_wt_wb97.com
|  1> !CAM-B3LYP RIJCOSX def2-TZVP def2/J TightSCF xyzfile                                                                                         
|  2> 
|  3> *xyzfile 0 1 B.xyz
|  4> 
|  5> %MaxCore 64000
|  6> 
|  7> %pal nprocs 18                                                                                                                                                  
|  8> end  
|  9> 
| 10> %scf
| 11>   MaxIter 150
| 12> end
| 13> 
| 14> 
| 15>                          ****END OF INPUT****
================================================================================

                       ****************************
                       * Single Point Calculation *
                       ****************************

---------------------------------
CARTESIAN COORDINATES (ANGSTROEM)
---------------------------------
  C     -0.701686    4.072499   -4.003920
  N      0.680528    4.614820   -4.048005
  C      1.444422    5.266576   -0.975463
  O      1.565248    4.233493   -1.864885
  H      0.699926    5.584890   -4.388272
  H      1.278044    4.055977   -4.668235
  H      1.085729    4.533581   -3.106524
  C     -1.703475    5.093197   -3.477396
  H     -0.995895    3.740394   -5.000654
  H     -0.643580    3.201910   -3.351533
  C     -1.313997    5.785995   -2.169271
  H     -1.877057    5.850103   -4.251154
  H     -2.653264    4.564475   -3.354796
  H     -2.097137    6.509395   -1.929558
  H     -0.416875    6.387594   -2.339097
  C     -1.073895    4.844728   -0.979904
  H     -1.968893    4.809608   -0.352568
  C      0.148120    5.210874   -0.138092
  H     -0.909754    3.827531   -1.338975
  H      1.474250    6.264638   -1.476917
  H      2.289622    5.303267   -0.264450
  H      0.261827    4.450942    0.640711
  H     -0.002516    6.171031    0.371483

----------------------------
CARTESIAN COORDINATES (A.U.)
----------------------------
  NO LB      ZA    FRAG     MASS         X           Y           Z
   0 C     6.0000    0    12.011   -1.325995    7.695909   -7.566313
   1 N     7.0000    0    14.007    1.286011    8.720746   -7.649621
   2 C     6.0000    0    12.011    2.729561    9.952386   -1.843359
   3 O     8.0000    0    15.999    2.957889    8.000143   -3.524123
   4 H     1.0000    0     1.008    1.322668   10.553913   -8.292633
   5 H     1.0000    0     1.008    2.415153    7.664686   -8.821686
   6 H     1.0000    0     1.008    2.051730    8.567226   -5.870480
   7 C     6.0000    0    12.011   -3.219101    9.624747   -6.571326
   8 H     1.0000    0     1.008   -1.881969    7.068320   -9.449867
   9 H     1.0000    0     1.008   -1.216190    6.050733   -6.333480
  10 C     6.0000    0    12.011   -2.483094   10.933947   -4.099328
  11 H     1.0000    0     1.008   -3.547123   11.055093   -8.033517
  12 H     1.0000    0     1.008   -5.013943    8.625608   -6.339647
  13 H     1.0000    0     1.008   -3.963014   12.300975   -3.646336
  14 H     1.0000    0     1.008   -0.787779   12.070803   -4.420253
  15 C     6.0000    0    12.011   -2.029367    9.155209   -1.851751
  16 H     1.0000    0     1.008   -3.720668    9.088842   -0.666257
  17 C     6.0000    0    12.011    0.279906    9.847125   -0.260957
  18 H     1.0000    0     1.008   -1.719186    7.232986   -2.530296
  19 H     1.0000    0     1.008    2.785928   11.838450   -2.790969
  20 H     1.0000    0     1.008    4.326758   10.021722   -0.499739
  21 H     1.0000    0     1.008    0.494781    8.411062    1.210767
  22 H     1.0000    0     1.008   -0.004755   11.661559    0.702001

--------------------------------
INTERNAL COORDINATES (ANGSTROEM)
--------------------------------
 C      0   0   0     0.000000000000     0.00000000     0.00000000
 N      1   0   0     1.485452998634     0.00000000     0.00000000
 C      2   1   0     3.232464979724   105.38464995     0.00000000
 O      3   2   1     1.368550246915    41.48863336    92.20499571
 H      2   1   3     1.028199602643   111.82813438   255.86869793
 H      2   1   3     1.026653182795   111.14650459   135.57073442
 H      2   1   3     1.028189255988   108.10029301    19.26330888
 C      1   2   3     1.524017993480   112.17197691    62.79421295
 H      1   2   3     1.091023031749   109.56896819   185.27937703
 H      1   2   3     1.089454856690   105.06334034   301.72819389
 C      8   1   2     1.530638434674   115.53976515   310.20322116
 H      8   1   2     1.096238661444   108.82380298    73.60173837
 H      8   1   2     1.093927457081   106.60306884   187.50528493
 H     11   8   1     1.092738791634   107.74343745   178.04594902
 H     11   8   1     1.093430437055   108.96944946    64.70144599
 C     11   8   1     1.535651848180   115.10412518   301.64127859
 H     16  11   8     1.093529157769   109.63556561   261.57765275
 C     16  11   8     1.528408072001   113.87545553   137.53702647
 H     16  11   8     1.091128922787   109.88037910    18.15247960
 H      3   2   1     1.117351341532    76.10320684   242.78840208
 H      3   2   1     1.105101531087   143.03431902   148.19239569
 H     18  16  11     1.094056621546   107.98499391   183.24035207
 H     18  16  11     1.097387733602   110.83068585    66.40847124

---------------------------
INTERNAL COORDINATES (A.U.)
---------------------------
 C      0   0   0     0.000000000000     0.00000000     0.00000000
 N      1   0   0     2.807099352230     0.00000000     0.00000000
 C      2   1   0     6.108473549169   105.38464995     0.00000000
 O      3   2   1     2.586185167180    41.48863336    92.20499571
 H      2   1   3     1.943015660001   111.82813438   255.86869793
 H      2   1   3     1.940093350001   111.14650459   135.57073442
 H      2   1   3     1.942996107658   108.10029301    19.26330888
 C      1   2   3     2.879976630845   112.17197691    62.79421295
 H      1   2   3     2.061734735806   109.56896819   185.27937703
 H      1   2   3     2.058771314415   105.06334034   301.72819389
 C      8   1   2     2.892487451587   115.53976515   310.20322116
 H      8   1   2     2.071590847545   108.82380298    73.60173837
 H      8   1   2     2.067223304259   106.60306884   187.50528493
 H     11   8   1     2.064977052101   107.74343745   178.04594902
 H     11   8   1     2.066284072527   108.96944946    64.70144599
 C     11   8   1     2.901961430111   115.10412518   301.64127859
 H     16  11   8     2.066470627640   109.63556561   261.57765275
 C     16  11   8     2.888272676956   113.87545553   137.53702647
 H     16  11   8     2.061934840867   109.88037910    18.15247960
 H      3   2   1     2.111488030865    76.10320684   242.78840208
 H      3   2   1     2.088339243932   143.03431902   148.19239569
 H     18  16  11     2.067467389724   107.98499391   183.24035207
 H     18  16  11     2.073762279233   110.83068585    66.40847124

---------------------
BASIS SET INFORMATION
---------------------
There are 4 groups of distinct atoms

 Group   1 Type C   : 11s6p2d1f contracted to 5s3p2d1f pattern {62111/411/11/1}
 Group   2 Type N   : 11s6p2d1f contracted to 5s3p2d1f pattern {62111/411/11/1}
 Group   3 Type O   : 11s6p2d1f contracted to 5s3p2d1f pattern {62111/411/11/1}
 Group   4 Type H   : 5s1p contracted to 3s1p pattern {311/1}

Atom   0C    basis set group =>   1
Atom   1N    basis set group =>   2
Atom   2C    basis set group =>   1
Atom   3O    basis set group =>   3
Atom   4H    basis set group =>   4
Atom   5H    basis set group =>   4
Atom   6H    basis set group =>   4
Atom   7C    basis set group =>   1
Atom   8H    basis set group =>   4
Atom   9H    basis set group =>   4
Atom  10C    basis set group =>   1
Atom  11H    basis set group =>   4
Atom  12H    basis set group =>   4
Atom  13H    basis set group =>   4
Atom  14H    basis set group =>   4
Atom  15C    basis set group =>   1
Atom  16H    basis set group =>   4
Atom  17C    basis set group =>   1
Atom  18H    basis set group =>   4
Atom  19H    basis set group =>   4
Atom  20H    basis set group =>   4
Atom  21H    basis set group =>   4
Atom  22H    basis set group =>   4
---------------------------------
AUXILIARY/J BASIS SET INFORMATION
---------------------------------
There are 4 groups of distinct atoms

 Group   1 Type C   : 12s5p4d2f1g contracted to 6s4p3d1f1g pattern {711111/2111/211/2/1}
 Group   2 Type N   : 12s5p4d2f1g contracted to 6s4p3d1f1g pattern {711111/2111/211/2/1}
 Group   3 Type O   : 12s5p4d2f1g contracted to 6s4p3d1f1g pattern {711111/2111/211/2/1}
 Group   4 Type H   : 5s2p1d contracted to 3s1p1d pattern {311/2/1}

Atom   0C    basis set group =>   1
Atom   1N    basis set group =>   2
Atom   2C    basis set group =>   1
Atom   3O    basis set group =>   3
Atom   4H    basis set group =>   4
Atom   5H    basis set group =>   4
Atom   6H    basis set group =>   4
Atom   7C    basis set group =>   1
Atom   8H    basis set group =>   4
Atom   9H    basis set group =>   4
Atom  10C    basis set group =>   1
Atom  11H    basis set group =>   4
Atom  12H    basis set group =>   4
Atom  13H    basis set group =>   4
Atom  14H    basis set group =>   4
Atom  15C    basis set group =>   1
Atom  16H    basis set group =>   4
Atom  17C    basis set group =>   1
Atom  18H    basis set group =>   4
Atom  19H    basis set group =>   4
Atom  20H    basis set group =>   4
Atom  21H    basis set group =>   4
Atom  22H    basis set group =>   4


           ************************************************************
           *        Program running with 18 parallel MPI-processes    *
           *              working on a common directory               *
           ************************************************************
------------------------------------------------------------------------------
                           ORCA GTO INTEGRAL CALCULATION
                           -- RI-GTO INTEGRALS CHOSEN --
------------------------------------------------------------------------------
------------------------------------------------------------------------------
                   ___                                                        
                  /   \      - P O W E R E D   B Y -                         
                 /     \                                                     
                 |  |  |   _    _      __       _____    __    __             
                 |  |  |  | |  | |    /  \     |  _  \  |  |  /  |          
                  \  \/   | |  | |   /    \    | | | |  |  | /  /          
                 / \  \   | |__| |  /  /\  \   | |_| |  |  |/  /          
                |  |  |   |  __  | /  /__\  \  |    /   |      \           
                |  |  |   | |  | | |   __   |  |    \   |  |\   \          
                \     /   | |  | | |  |  |  |  | |\  \  |  | \   \       
                 \___/    |_|  |_| |__|  |__|  |_| \__\ |__|  \__/        
                                                                              
                      - O R C A' S   B I G   F R I E N D -                    
                                      &                                       
                       - I N T E G R A L  F E E D E R -                       
                                                                              
 v1 FN, 2020, v2 2021                                                         
------------------------------------------------------------------------------


Reading SHARK input file CAMB3LYP_B_wt_wb97.SHARKINP.tmp ... ok
----------------------
SHARK INTEGRAL PACKAGE
----------------------

Number of atoms                             ...     23
Number of basis functions                   ...    338
Number of shells                            ...    148
Maximum angular momentum                    ...      3
Integral batch strategy                     ... SHARK/LIBINT Hybrid
RI-J (if used) integral strategy            ... SPLIT-RIJ (Revised 2003 algorithm where possible)
Printlevel                                  ...      1
Contraction scheme used                     ... SEGMENTED contraction
Coulomb Range Separation                    ... NOT USED
Exchange Range Separation                   ... Long Range
   Mu parameter                             ...  0.330000
   Scaling (regular/separated)              ...  0.190000  0.460000
Finite Nucleus Model                        ... NOT USED
Auxiliary Coulomb fitting basis             ... AVAILABLE
   # of basis functions in Aux-J            ...    557
   # of shells in Aux-J                     ...    195
   Maximum angular momentum in Aux-J        ...      4
Auxiliary J/K fitting basis                 ... NOT available
Auxiliary Correlation fitting basis         ... NOT available
Auxiliary 'external' fitting basis          ... NOT available
Integral threshold                          ...     2.500000e-11
Primitive cut-off                           ...     2.500000e-12
Primitive pair pre-selection threshold      ...     2.500000e-12

Calculating pre-screening integrals         ... done (  0.1 sec) Dimension = 148
Organizing shell pair data                  ... done (  0.1 sec)
Shell pair information
Total number of shell pairs                 ...     11026
Shell pairs after pre-screening             ...     10211
Total number of primitive shell pairs       ...     31596
Primitive shell pairs kept                  ...     22053
          la=0 lb=0:   3294 shell pairs
          la=1 lb=0:   3083 shell pairs
          la=1 lb=1:    739 shell pairs
          la=2 lb=0:   1269 shell pairs
          la=2 lb=1:    601 shell pairs
          la=2 lb=2:    134 shell pairs
          la=3 lb=0:    626 shell pairs
          la=3 lb=1:    301 shell pairs
          la=3 lb=2:    128 shell pairs
          la=3 lb=3:     36 shell pairs

Calculating one electron integrals          ... done (  0.0 sec)
Calculating RI/J V-Matrix + Cholesky decomp.... done (  0.1 sec)
Calculating Nuclear repulsion               ... done (  0.0 sec) ENN=    429.781128545458 Eh

SHARK setup successfully completed in   0.4 seconds

Maximum memory used throughout the entire GTOINT-calculation: 17.2 MB


           ************************************************************
           *        Program running with 18 parallel MPI-processes    *
           *              working on a common directory               *
           ************************************************************
-------------------------------------------------------------------------------
                                 ORCA SCF
-------------------------------------------------------------------------------

------------
SCF SETTINGS
------------
Hamiltonian:
 Density Functional     Method          .... DFT(GTOs)
 Exchange Functional    Exchange        .... WB88
 Correlation Functional Correlation     .... LYP
 LDA part of GGA corr.  LDAOpt          .... VWN-5
 Gradients option       PostSCFGGA      .... off
 Hybrid DFT is turned on
   Fraction HF Exchange ScalHFX         ....  0.190000
   Scaling of DF-GGA-X  ScalDFX         ....  0.350000
   Scaling of DF-GGA-C  ScalDFC         ....  0.810000
   Scaling of DF-LDA-C  ScalLDAC        ....  1.000000
   Perturbative correction              ....  0.000000
   Density functional embedding theory  .... OFF
 Long-range corrected/Screened/Range-Separated Hybrid DFT is turned on
   Amount of maximum screened exact exchange              ....  0.460000
   Range separation parameter mu (erf(mu*r12)/r12)        ....  0.330000
 RI-approximation to the Coulomb term is turned on
   Number of AuxJ basis functions       .... 557
   RIJ-COSX (HFX calculated with COS-X)).... on


General Settings:
 Integral files         IntName         .... CAMB3LYP_B_wt_wb97
 Hartree-Fock type      HFTyp           .... RHF
 Total Charge           Charge          ....    0
 Multiplicity           Mult            ....    1
 Number of Electrons    NEL             ....   66
 Basis Dimension        Dim             ....  338
 Nuclear Repulsion      ENuc            ....    429.7811285455 Eh

Convergence Acceleration:
 DIIS                   CNVDIIS         .... on
   Start iteration      DIISMaxIt       ....    12
   Startup error        DIISStart       ....  0.200000
   # of expansion vecs  DIISMaxEq       ....     5
   Bias factor          DIISBfac        ....   1.050
   Max. coefficient     DIISMaxC        ....  10.000
 Trust-Rad. Augm. Hess. CNVTRAH         .... auto
   Auto Start mean grad. ratio tolernc. ....  1.125000
   Auto Start start iteration           ....    20
   Auto Start num. interpolation iter.  ....    10
   Max. Number of Micro iterations      ....    16
   Max. Number of Macro iterations      .... Maxiter - #DIIS iter
   Number of Davidson start vectors     ....     2
   Converg. threshold I  (grad. norm)   ....   1.000e-05
   Converg. threshold II (energy diff.) ....   1.000e-08
   Grad. Scal. Fac. for Micro threshold ....   0.100
   Minimum threshold for Micro iter.    ....   0.010
   NR start threshold (gradient norm)   ....   0.001
   Initial trust radius                 ....   0.400
   Minimum AH scaling param. (alpha)    ....   1.000
   Maximum AH scaling param. (alpha)    .... 1000.000
   Orbital update algorithm             .... Taylor
   White noise on init. David. guess    .... on
   Maximum white noise                  ....   0.010
   Quad. conv. algorithm                .... NR
 SOSCF                  CNVSOSCF        .... on
   Start iteration      SOSCFMaxIt      ....   150
   Startup grad/error   SOSCFStart      ....  0.003300
 Level Shifting         CNVShift        .... on
   Level shift para.    LevelShift      ....    0.2500
   Turn off err/grad.   ShiftErr        ....    0.0010
 Zerner damping         CNVZerner       .... off
 Static damping         CNVDamp         .... on
   Fraction old density DampFac         ....    0.7000
   Max. Damping (<1)    DampMax         ....    0.9800
   Min. Damping (>=0)   DampMin         ....    0.0000
   Turn off err/grad.   DampErr         ....    0.1000
 Fernandez-Rico         CNVRico         .... off

SCF Procedure:
 Maximum # iterations   MaxIter         ....   150
 SCF integral mode      SCFMode         .... Direct
   Integral package                     .... SHARK and LIBINT hybrid scheme
 Reset frequency        DirectResetFreq ....    20
 Integral Threshold     Thresh          ....  2.500e-11 Eh
 Primitive CutOff       TCut            ....  2.500e-12 Eh

Convergence Tolerance:
 Convergence Check Mode ConvCheckMode   .... Total+1el-Energy
 Convergence forced     ConvForced      .... 0
 Energy Change          TolE            ....  1.000e-08 Eh
 1-El. energy change                    ....  1.000e-05 Eh
 Orbital Gradient       TolG            ....  1.000e-05
 Orbital Rotation angle TolX            ....  1.000e-05
 DIIS Error             TolErr          ....  5.000e-07


Diagonalization of the overlap matrix:
Smallest eigenvalue                        ... 8.272e-05
Time for diagonalization                   ...    0.030 sec
Threshold for overlap eigenvalues          ... 1.000e-08
Number of eigenvalues below threshold      ... 0
Time for construction of square roots      ...    0.048 sec
Total time needed                          ...    0.080 sec

Time for model grid setup =    0.125 sec

------------------------------
INITIAL GUESS: MODEL POTENTIAL
------------------------------
Loading Hartree-Fock densities                     ... done
Calculating cut-offs                               ... done
Initializing the effective Hamiltonian             ... done
Setting up the integral package (SHARK)            ... done
Starting the Coulomb interaction                   ... done (   0.1 sec)
Reading the grid                                   ... done
Mapping shells                                     ... done
Starting the XC term evaluation                    ... done (   0.1 sec)
  promolecular density results
     # of electrons  =     65.992497449
     EX              =    -49.859131007
     EC              =     -2.184952123
     EX+EC           =    -52.044083131
Transforming the Hamiltonian                       ... done (   0.0 sec)
Diagonalizing the Hamiltonian                      ... done (   0.0 sec)
Back transforming the eigenvectors                 ... done (   0.0 sec)
Now organizing SCF variables                       ... done
                      ------------------
                      INITIAL GUESS DONE (   0.4 sec)
                      ------------------
-------------------
DFT GRID GENERATION
-------------------

General Integration Accuracy     IntAcc      ... 4.388
Radial Grid Type                 RadialGrid  ... OptM3 with GC (2021)
Angular Grid (max. ang.)         AngularGrid ... 4 (Lebedev-302)
Angular grid pruning method      GridPruning ... 4 (adaptive)
Weight generation scheme         WeightScheme... Becke
Basis function cutoff            BFCut       ... 1.0000e-11
Integration weight cutoff        WCut        ... 1.0000e-14
Angular grids for H and He will be reduced by one unit
Partially contracted basis set               ... off
Rotationally invariant grid construction     ... off

Total number of grid points                  ...    95560
Total number of batches                      ...     1504
Average number of points per batch           ...       63
Average number of grid points per atom       ...     4155
Time for grid setup =    0.642 sec

--------------------
COSX GRID GENERATION
--------------------

GRIDX 1
-------
General Integration Accuracy     IntAcc      ... 3.816
Radial Grid Type                 RadialGrid  ... OptM3 with GC (2021)
Angular Grid (max. ang.)         AngularGrid ... 1 (Lebedev-50)
Angular grid pruning method      GridPruning ... 4 (adaptive)
Weight generation scheme         WeightScheme... Becke
Basis function cutoff            BFCut       ... 1.0000e-11
Integration weight cutoff        WCut        ... 1.0000e-14
Angular grids for H and He will be reduced by one unit
Partially contracted basis set               ... on
Rotationally invariant grid construction     ... off

Total number of grid points                  ...    12229
Total number of batches                      ...      205
Average number of points per batch           ...       59
Average number of grid points per atom       ...      532
UseSFitting                                  ... on

GRIDX 2
-------
General Integration Accuracy     IntAcc      ... 4.020
Radial Grid Type                 RadialGrid  ... OptM3 with GC (2021)
Angular Grid (max. ang.)         AngularGrid ... 2 (Lebedev-110)
Angular grid pruning method      GridPruning ... 4 (adaptive)
Weight generation scheme         WeightScheme... Becke
Basis function cutoff            BFCut       ... 1.0000e-11
Integration weight cutoff        WCut        ... 1.0000e-14
Angular grids for H and He will be reduced by one unit
Partially contracted basis set               ... on
Rotationally invariant grid construction     ... off

Total number of grid points                  ...    25321
Total number of batches                      ...      409
Average number of points per batch           ...       61
Average number of grid points per atom       ...     1101
UseSFitting                                  ... on

GRIDX 3
-------
General Integration Accuracy     IntAcc      ... 4.338
Radial Grid Type                 RadialGrid  ... OptM3 with GC (2021)
Angular Grid (max. ang.)         AngularGrid ... 3 (Lebedev-194)
Angular grid pruning method      GridPruning ... 4 (adaptive)
Weight generation scheme         WeightScheme... Becke
Basis function cutoff            BFCut       ... 1.0000e-11
Integration weight cutoff        WCut        ... 1.0000e-14
Angular grids for H and He will be reduced by one unit
Partially contracted basis set               ... on
Rotationally invariant grid construction     ... off

Total number of grid points                  ...    55116
Total number of batches                      ...      872
Average number of points per batch           ...       63
Average number of grid points per atom       ...     2396
UseSFitting                                  ... on

Time for X-Grid setup             =    0.582 sec

--------------
SCF ITERATIONS
--------------
ITER       Energy         Delta-E        Max-DP      RMS-DP      [F,P]     Damp
               ***  Starting incremental Fock matrix formation  ***
  0   -367.2002125570   0.000000000000 0.22522605  0.00206609  0.3264241 0.7000
  1   -367.3507647439  -0.150552186907 0.21069024  0.00173246  0.1393869 0.7000
                               ***Turning on DIIS***
  2   -367.4152858291  -0.064521085157 0.27031030  0.00261348  0.0446726 0.0000
  3   -367.5180784136  -0.102792584537 0.19941884  0.00143713  0.0810734 0.0000
  4   -367.5388691587  -0.020790745046 0.04441081  0.00030814  0.0112109 0.0000
  5   -367.5395349458  -0.000665787125 0.02648876  0.00018143  0.0090318 0.0000
                      *** Initiating the SOSCF procedure ***
                           *** Shutting down DIIS ***
                      *** Re-Reading the Fockian *** 
                      *** Removing any level shift *** 
ITER      Energy       Delta-E        Grad      Rot      Max-DP    RMS-DP
  6   -367.53963709  -0.0001021449  0.000365  0.000365  0.010692  0.000076
               *** Restarting incremental Fock matrix formation ***
  7   -367.53963936  -0.0000022704  0.000205  0.000758  0.007524  0.000054
  8   -367.53964152  -0.0000021634  0.000087  0.000557  0.005077  0.000036
  9   -367.53964177  -0.0000002445  0.000061  0.000150  0.002295  0.000016
 10   -367.53964194  -0.0000001711  0.000014  0.000016  0.000264  0.000002
 11   -367.53964194   0.0000000025  0.000014  0.000024  0.000189  0.000001
                  ***Gradient check signals convergence***
              ***Rediagonalizing the Fockian in SOSCF/NRSCF***

               *****************************************************
               *                     SUCCESS                       *
               *           SCF CONVERGED AFTER  12 CYCLES          *
               *****************************************************

Old exchange energy                            =    -14.905550788 Eh
New exchange energy                            =    -14.905562527 Eh
Exchange energy change after final integration =     -0.000011739 Eh
Total energy after final integration           =   -367.539653688 Eh
Final COS-X integration done in                =     4.272 sec

----------------
TOTAL SCF ENERGY
----------------

Total Energy       :         -367.53965369 Eh          -10001.26243 eV

Components:
Nuclear Repulsion  :          429.78112855 Eh           11694.93907 eV
Electronic Energy  :         -797.32078223 Eh          -21696.20150 eV
One Electron Energy:        -1350.15531195 Eh          -36739.59384 eV
Two Electron Energy:          552.83452971 Eh           15043.39234 eV
Max COSX asymmetry :            0.00000178 Eh               0.00005 eV

Virial components:
Potential Energy   :         -733.52895363 Eh          -19960.33759 eV
Kinetic Energy     :          365.98929994 Eh            9959.07516 eV
Virial Ratio       :            2.00423606


DFT components:
N(Alpha)           :       32.999948018604 electrons
N(Beta)            :       32.999948018604 electrons
N(Total)           :       65.999896037207 electrons
E(XC)              :      -38.744602854717 Eh       
DFET-embed. en.    :        0.000000000000 Eh       

---------------
SCF CONVERGENCE
---------------

  Last Energy change         ...   -1.1973e-08  Tolerance :   1.0000e-08
  Last MAX-Density change    ...    1.1102e-15  Tolerance :   1.0000e-07
  Last RMS-Density change    ...    1.4393e-17  Tolerance :   5.0000e-09
  Last Orbital Gradient      ...    1.3375e-06  Tolerance :   1.0000e-05
  Last Orbital Rotation      ...    5.6850e-06  Tolerance :   1.0000e-05

             **** THE GBW FILE WAS UPDATED (CAMB3LYP_B_wt_wb97.gbw) ****
             **** DENSITY CAMB3LYP_B_wt_wb97.scfp WAS UPDATED ****
             **** ENERGY FILE WAS UPDATED (CAMB3LYP_B_wt_wb97.en.tmp) ****
             **** THE GBW FILE WAS UPDATED (CAMB3LYP_B_wt_wb97.gbw) ****
             **** DENSITY CAMB3LYP_B_wt_wb97.scfp WAS UPDATED ****
----------------
ORBITAL ENERGIES
----------------

  NO   OCC          E(Eh)            E(eV) 
   0   2.0000     -19.059620      -518.6386 
   1   2.0000     -14.468432      -393.7060 
   2   2.0000     -10.309260      -280.5292 
   3   2.0000     -10.263680      -279.2889 
   4   2.0000     -10.238140      -278.5940 
   5   2.0000     -10.225350      -278.2459 
   6   2.0000     -10.216212      -277.9973 
   7   2.0000     -10.197538      -277.4891 
   8   2.0000      -1.072256       -29.1776 
   9   2.0000      -0.968647       -26.3582 
  10   2.0000      -0.893417       -24.3111 
  11   2.0000      -0.828233       -22.5374 
  12   2.0000      -0.774199       -21.0670 
  13   2.0000      -0.713814       -19.4239 
  14   2.0000      -0.665248       -18.1023 
  15   2.0000      -0.642642       -17.4872 
  16   2.0000      -0.640929       -17.4406 
  17   2.0000      -0.593609       -16.1529 
  18   2.0000      -0.559958       -15.2372 
  19   2.0000      -0.534635       -14.5482 
  20   2.0000      -0.526343       -14.3225 
  21   2.0000      -0.487345       -13.2613 
  22   2.0000      -0.475362       -12.9353 
  23   2.0000      -0.461603       -12.5609 
  24   2.0000      -0.441262       -12.0074 
  25   2.0000      -0.420362       -11.4386 
  26   2.0000      -0.414726       -11.2853 
  27   2.0000      -0.394582       -10.7371 
  28   2.0000      -0.372082       -10.1249 
  29   2.0000      -0.363591        -9.8938 
  30   2.0000      -0.355690        -9.6788 
  31   2.0000      -0.240523        -6.5450 
  32   2.0000      -0.235919        -6.4197 
  33   0.0000       0.029359         0.7989 
  34   0.0000       0.071204         1.9376 
  35   0.0000       0.077333         2.1043 
  36   0.0000       0.098349         2.6762 
  37   0.0000       0.107952         2.9375 
  38   0.0000       0.120217         3.2713 
  39   0.0000       0.130398         3.5483 
  40   0.0000       0.143388         3.9018 
  41   0.0000       0.147749         4.0205 
  42   0.0000       0.163179         4.4403 
  43   0.0000       0.171975         4.6797 
  44   0.0000       0.178942         4.8693 
  45   0.0000       0.185258         5.0411 
  46   0.0000       0.196788         5.3549 
  47   0.0000       0.210713         5.7338 
  48   0.0000       0.217087         5.9072 
  49   0.0000       0.228907         6.2289 
  50   0.0000       0.234472         6.3803 
  51   0.0000       0.251224         6.8362 
  52   0.0000       0.259689         7.0665 
  53   0.0000       0.266601         7.2546 
  54   0.0000       0.272709         7.4208 
  55   0.0000       0.287682         7.8282 
  56   0.0000       0.293988         7.9998 
  57   0.0000       0.308444         8.3932 
  58   0.0000       0.316579         8.6146 
  59   0.0000       0.320867         8.7312 
  60   0.0000       0.343065         9.3353 
  61   0.0000       0.344691         9.3795 
  62   0.0000       0.369450        10.0532 
  63   0.0000       0.391933        10.6650 
  64   0.0000       0.424563        11.5530 
  65   0.0000       0.433754        11.8031 
  66   0.0000       0.438634        11.9358 
  67   0.0000       0.445365        12.1190 
  68   0.0000       0.450195        12.2504 
  69   0.0000       0.454473        12.3668 
  70   0.0000       0.462012        12.5720 
  71   0.0000       0.467599        12.7240 
  72   0.0000       0.476109        12.9556 
  73   0.0000       0.482206        13.1215 
  74   0.0000       0.485765        13.2183 
  75   0.0000       0.493408        13.4263 
  76   0.0000       0.494144        13.4463 
  77   0.0000       0.507173        13.8009 
  78   0.0000       0.513266        13.9667 
  79   0.0000       0.517034        14.0692 
  80   0.0000       0.521250        14.1839 
  81   0.0000       0.533004        14.5038 
  82   0.0000       0.535053        14.5595 
  83   0.0000       0.546236        14.8638 
  84   0.0000       0.555077        15.1044 
  85   0.0000       0.565405        15.3855 
  86   0.0000       0.571748        15.5581 
  87   0.0000       0.577850        15.7241 
  88   0.0000       0.592985        16.1359 
  89   0.0000       0.598537        16.2870 
  90   0.0000       0.622516        16.9395 
  91   0.0000       0.665737        18.1156 
  92   0.0000       0.680952        18.5296 
  93   0.0000       0.709878        19.3168 
  94   0.0000       0.713849        19.4248 
  95   0.0000       0.729492        19.8505 
  96   0.0000       0.742510        20.2047 
  97   0.0000       0.768777        20.9195 
  98   0.0000       0.786346        21.3976 
  99   0.0000       0.815528        22.1917 
 100   0.0000       0.830240        22.5920 
 101   0.0000       0.853064        23.2131 
 102   0.0000       0.860264        23.4090 
 103   0.0000       0.890955        24.2441 
 104   0.0000       0.903182        24.5768 
 105   0.0000       0.921556        25.0768 
 106   0.0000       0.938875        25.5481 
 107   0.0000       0.957294        26.0493 
 108   0.0000       0.982670        26.7398 
 109   0.0000       1.006745        27.3949 
 110   0.0000       1.016720        27.6664 
 111   0.0000       1.032231        28.0884 
 112   0.0000       1.046009        28.4633 
 113   0.0000       1.069584        29.1049 
 114   0.0000       1.086407        29.5626 
 115   0.0000       1.108990        30.1771 
 116   0.0000       1.119031        30.4504 
 117   0.0000       1.129158        30.7260 
 118   0.0000       1.160230        31.5715 
 119   0.0000       1.170763        31.8581 
 120   0.0000       1.192357        32.4457 
 121   0.0000       1.208356        32.8810 
 122   0.0000       1.211868        32.9766 
 123   0.0000       1.236734        33.6532 
 124   0.0000       1.257250        34.2115 
 125   0.0000       1.272965        34.6391 
 126   0.0000       1.293266        35.1915 
 127   0.0000       1.293571        35.1999 
 128   0.0000       1.321223        35.9523 
 129   0.0000       1.330922        36.2162 
 130   0.0000       1.351195        36.7679 
 131   0.0000       1.372030        37.3348 
 132   0.0000       1.379988        37.5514 
 133   0.0000       1.425062        38.7779 
 134   0.0000       1.435554        39.0634 
 135   0.0000       1.453736        39.5582 
 136   0.0000       1.502451        40.8838 
 137   0.0000       1.571609        42.7657 
 138   0.0000       1.580046        42.9952 
 139   0.0000       1.585851        43.1532 
 140   0.0000       1.604860        43.6705 
 141   0.0000       1.610208        43.8160 
 142   0.0000       1.635363        44.5005 
 143   0.0000       1.640003        44.6267 
 144   0.0000       1.662625        45.2423 
 145   0.0000       1.671950        45.4961 
 146   0.0000       1.681116        45.7455 
 147   0.0000       1.689395        45.9708 
 148   0.0000       1.705146        46.3994 
 149   0.0000       1.729680        47.0670 
 150   0.0000       1.741273        47.3824 
 151   0.0000       1.755178        47.7608 
 152   0.0000       1.767860        48.1059 
 153   0.0000       1.780514        48.4502 
 154   0.0000       1.790967        48.7347 
 155   0.0000       1.819769        49.5184 
 156   0.0000       1.836132        49.9637 
 157   0.0000       1.867426        50.8152 
 158   0.0000       1.880555        51.1725 
 159   0.0000       1.892218        51.4899 
 160   0.0000       1.896072        51.5947 
 161   0.0000       1.910533        51.9882 
 162   0.0000       1.926595        52.4253 
 163   0.0000       1.938055        52.7371 
 164   0.0000       1.956893        53.2498 
 165   0.0000       1.969108        53.5822 
 166   0.0000       1.983867        53.9838 
 167   0.0000       2.020912        54.9918 
 168   0.0000       2.030706        55.2583 
 169   0.0000       2.042056        55.5672 
 170   0.0000       2.062690        56.1287 
 171   0.0000       2.073334        56.4183 
 172   0.0000       2.091342        56.9083 
 173   0.0000       2.106479        57.3202 
 174   0.0000       2.116807        57.6013 
 175   0.0000       2.143430        58.3257 
 176   0.0000       2.172664        59.1212 
 177   0.0000       2.183375        59.4127 
 178   0.0000       2.225634        60.5626 
 179   0.0000       2.250691        61.2444 
 180   0.0000       2.270188        61.7750 
 181   0.0000       2.303328        62.6767 
 182   0.0000       2.311536        62.9001 
 183   0.0000       2.335199        63.5440 
 184   0.0000       2.361685        64.2647 
 185   0.0000       2.396408        65.2096 
 186   0.0000       2.424591        65.9765 
 187   0.0000       2.445349        66.5413 
 188   0.0000       2.470974        67.2386 
 189   0.0000       2.475467        67.3609 
 190   0.0000       2.476715        67.3948 
 191   0.0000       2.501504        68.0694 
 192   0.0000       2.528391        68.8010 
 193   0.0000       2.541771        69.1651 
 194   0.0000       2.547033        69.3083 
 195   0.0000       2.564848        69.7931 
 196   0.0000       2.589589        70.4663 
 197   0.0000       2.607792        70.9616 
 198   0.0000       2.619412        71.2778 
 199   0.0000       2.629590        71.5548 
 200   0.0000       2.649665        72.1010 
 201   0.0000       2.668443        72.6120 
 202   0.0000       2.674274        72.7707 
 203   0.0000       2.690291        73.2065 
 204   0.0000       2.703534        73.5669 
 205   0.0000       2.715185        73.8839 
 206   0.0000       2.719891        74.0120 
 207   0.0000       2.736289        74.4582 
 208   0.0000       2.738660        74.5227 
 209   0.0000       2.750890        74.8555 
 210   0.0000       2.762255        75.1648 
 211   0.0000       2.773900        75.4817 
 212   0.0000       2.785124        75.7871 
 213   0.0000       2.800732        76.2118 
 214   0.0000       2.821281        76.7710 
 215   0.0000       2.839095        77.2557 
 216   0.0000       2.854234        77.6677 
 217   0.0000       2.872832        78.1737 
 218   0.0000       2.882640        78.4406 
 219   0.0000       2.907229        79.1097 
 220   0.0000       2.915900        79.3457 
 221   0.0000       2.933930        79.8363 
 222   0.0000       2.955553        80.4247 
 223   0.0000       2.964757        80.6751 
 224   0.0000       2.981661        81.1351 
 225   0.0000       3.004353        81.7526 
 226   0.0000       3.011387        81.9440 
 227   0.0000       3.045615        82.8754 
 228   0.0000       3.095556        84.2344 
 229   0.0000       3.105614        84.5080 
 230   0.0000       3.125101        85.0383 
 231   0.0000       3.138072        85.3913 
 232   0.0000       3.142171        85.5028 
 233   0.0000       3.163980        86.0963 
 234   0.0000       3.172572        86.3301 
 235   0.0000       3.200198        87.0818 
 236   0.0000       3.232287        87.9550 
 237   0.0000       3.248426        88.3942 
 238   0.0000       3.253289        88.5265 
 239   0.0000       3.269256        88.9610 
 240   0.0000       3.278896        89.2233 
 241   0.0000       3.298064        89.7449 
 242   0.0000       3.326355        90.5147 
 243   0.0000       3.334124        90.7261 
 244   0.0000       3.358415        91.3871 
 245   0.0000       3.375495        91.8519 
 246   0.0000       3.388368        92.2022 
 247   0.0000       3.396222        92.4159 
 248   0.0000       3.404252        92.6344 
 249   0.0000       3.417530        92.9957 
 250   0.0000       3.435967        93.4974 
 251   0.0000       3.449697        93.8710 
 252   0.0000       3.453294        93.9689 
 253   0.0000       3.483776        94.7984 
 254   0.0000       3.495400        95.1147 
 255   0.0000       3.512888        95.5905 
 256   0.0000       3.526320        95.9560 
 257   0.0000       3.556690        96.7825 
 258   0.0000       3.580306        97.4251 
 259   0.0000       3.596012        97.8525 
 260   0.0000       3.617020        98.4241 
 261   0.0000       3.664425        99.7141 
 262   0.0000       3.681892       100.1894 
 263   0.0000       3.695563       100.5614 
 264   0.0000       3.713956       101.0619 
 265   0.0000       3.717646       101.1623 
 266   0.0000       3.768881       102.5565 
 267   0.0000       3.781827       102.9088 
 268   0.0000       3.810258       103.6824 
 269   0.0000       3.857299       104.9624 
 270   0.0000       3.864054       105.1463 
 271   0.0000       3.871976       105.3618 
 272   0.0000       3.924998       106.8046 
 273   0.0000       3.937506       107.1450 
 274   0.0000       3.951679       107.5307 
 275   0.0000       3.973223       108.1169 
 276   0.0000       4.008353       109.0728 
 277   0.0000       4.029966       109.6609 
 278   0.0000       4.055309       110.3506 
 279   0.0000       4.080031       111.0233 
 280   0.0000       4.091608       111.3383 
 281   0.0000       4.125949       112.2728 
 282   0.0000       4.129768       112.3767 
 283   0.0000       4.182968       113.8243 
 284   0.0000       4.201610       114.3316 
 285   0.0000       4.219228       114.8110 
 286   0.0000       4.240454       115.3886 
 287   0.0000       4.286659       116.6459 
 288   0.0000       4.359267       118.6217 
 289   0.0000       4.397452       119.6608 
 290   0.0000       4.411749       120.0498 
 291   0.0000       4.436987       120.7366 
 292   0.0000       4.464941       121.4972 
 293   0.0000       4.509771       122.7171 
 294   0.0000       4.551970       123.8654 
 295   0.0000       4.577705       124.5657 
 296   0.0000       4.610971       125.4709 
 297   0.0000       4.643988       126.3693 
 298   0.0000       4.751687       129.3000 
 299   0.0000       4.765833       129.6849 
 300   0.0000       4.801175       130.6466 
 301   0.0000       4.816982       131.0767 
 302   0.0000       4.844352       131.8215 
 303   0.0000       4.884026       132.9011 
 304   0.0000       4.910077       133.6100 
 305   0.0000       4.921637       133.9246 
 306   0.0000       4.944426       134.5447 
 307   0.0000       4.992152       135.8434 
 308   0.0000       5.001038       136.0852 
 309   0.0000       5.056863       137.6042 
 310   0.0000       5.064159       137.8028 
 311   0.0000       5.088446       138.4636 
 312   0.0000       5.132122       139.6521 
 313   0.0000       5.208428       141.7285 
 314   0.0000       5.275546       143.5549 
 315   0.0000       5.442179       148.0892 
 316   0.0000       5.468703       148.8110 
 317   0.0000       5.483826       149.2225 
 318   0.0000       5.594636       152.2378 
 319   0.0000       5.647725       153.6824 
 320   0.0000       5.764543       156.8612 
 321   0.0000       6.034726       164.2132 
 322   0.0000       6.071675       165.2187 
 323   0.0000       6.125807       166.6917 
 324   0.0000       6.546722       178.1454 
 325   0.0000       6.685609       181.9247 
 326   0.0000       6.846642       186.3066 
 327   0.0000       7.031052       191.3246 
 328   0.0000       7.194145       195.7626 
 329   0.0000       7.289369       198.3538 
 330   0.0000      22.457874       611.1098 
 331   0.0000      22.506666       612.4375 
 332   0.0000      22.557689       613.8259 
 333   0.0000      22.585967       614.5954 
 334   0.0000      22.619830       615.5169 
 335   0.0000      22.669453       616.8672 
 336   0.0000      32.064262       872.5129 
 337   0.0000      44.088123      1199.6988 

                    ********************************
                    * MULLIKEN POPULATION ANALYSIS *
                    ********************************

-----------------------
MULLIKEN ATOMIC CHARGES
-----------------------
   0 C :   -0.195192
   1 N :   -0.293060
   2 C :   -0.045825
   3 O :   -0.697381
   4 H :    0.253955
   5 H :    0.265294
   6 H :    0.298187
   7 C :   -0.233757
   8 H :    0.136744
   9 H :    0.173290
  10 C :   -0.229979
  11 H :    0.118655
  12 H :    0.119947
  13 H :    0.109268
  14 H :    0.096603
  15 C :   -0.156473
  16 H :    0.092457
  17 C :   -0.119734
  18 H :    0.086636
  19 H :    0.024240
  20 H :    0.055885
  21 H :    0.077761
  22 H :    0.062479
Sum of atomic charges:   -0.0000000

--------------------------------
MULLIKEN REDUCED ORBITAL CHARGES
--------------------------------
  0 C s       :     3.289173  s :     3.289173
      pz      :     1.080477  p :     2.795546
      px      :     0.735557
      py      :     0.979511
      dz2     :     0.015120  d :     0.102503
      dxz     :     0.018959
      dyz     :     0.017504
      dx2y2   :     0.033165
      dxy     :     0.017755
      f0      :     0.001049  f :     0.007970
      f+1     :     0.000887
      f-1     :     0.000790
      f+2     :     0.000977
      f-2     :     0.000841
      f+3     :     0.001674
      f-3     :     0.001752
  1 N s       :     3.429233  s :     3.429233
      pz      :     1.414170  p :     3.818281
      px      :     1.218441
      py      :     1.185670
      dz2     :     0.006047  d :     0.043435
      dxz     :     0.013655
      dyz     :     0.005511
      dx2y2   :     0.009796
      dxy     :     0.008425
      f0      :     0.000399  f :     0.002112
      f+1     :     0.000365
      f-1     :     0.000061
      f+2     :     0.000214
      f-2     :     0.000262
      f+3     :     0.000342
      f-3     :     0.000469
  2 C s       :     3.215208  s :     3.215208
      pz      :     0.886621  p :     2.671048
      px      :     0.965557
      py      :     0.818871
      dz2     :     0.032672  d :     0.148252
      dxz     :     0.039456
      dyz     :     0.019623
      dx2y2   :     0.031222
      dxy     :     0.025280
      f0      :     0.001204  f :     0.011317
      f+1     :     0.000859
      f-1     :     0.001828
      f+2     :     0.002832
      f-2     :     0.002250
      f+3     :     0.001359
      f-3     :     0.000984
  3 O s       :     3.819855  s :     3.819855
      pz      :     1.472623  p :     4.852150
      px      :     1.819476
      py      :     1.560052
      dz2     :     0.004669  d :     0.024031
      dxz     :     0.003451
      dyz     :     0.007625
      dx2y2   :     0.004792
      dxy     :     0.003494
      f0      :     0.000155  f :     0.001345
      f+1     :     0.000125
      f-1     :     0.000351
      f+2     :     0.000308
      f-2     :     0.000188
      f+3     :     0.000095
      f-3     :     0.000123
  4 H s       :     0.712418  s :     0.712418
      pz      :     0.008919  p :     0.033626
      px      :     0.006247
      py      :     0.018461
  5 H s       :     0.700900  s :     0.700900
      pz      :     0.012324  p :     0.033806
      px      :     0.011695
      py      :     0.009787
  6 H s       :     0.618980  s :     0.618980
      pz      :     0.057391  p :     0.082834
      px      :     0.016995
      py      :     0.008448
  7 C s       :     3.258349  s :     3.258349
      pz      :     0.953460  p :     2.879702
      px      :     0.969375
      py      :     0.956867
      dz2     :     0.020187  d :     0.090040
      dxz     :     0.012946
      dyz     :     0.027343
      dx2y2   :     0.012414
      dxy     :     0.017150
      f0      :     0.000869  f :     0.005666
      f+1     :     0.000690
      f-1     :     0.001199
      f+2     :     0.000595
      f-2     :     0.001007
      f+3     :     0.000460
      f-3     :     0.000845
  8 H s       :     0.842554  s :     0.842554
      pz      :     0.011302  p :     0.020702
      px      :     0.004117
      py      :     0.005283
  9 H s       :     0.804939  s :     0.804939
      pz      :     0.008281  p :     0.021771
      px      :     0.003176
      py      :     0.010314
 10 C s       :     3.261511  s :     3.261511
      pz      :     0.883502  p :     2.881028
      px      :     1.040864
      py      :     0.956663
      dz2     :     0.024583  d :     0.081988
      dxz     :     0.017188
      dyz     :     0.014350
      dx2y2   :     0.005625
      dxy     :     0.020243
      f0      :     0.001017  f :     0.005452
      f+1     :     0.000607
      f-1     :     0.001401
      f+2     :     0.000673
      f-2     :     0.001063
      f+3     :     0.000092
      f-3     :     0.000599
 11 H s       :     0.860641  s :     0.860641
      pz      :     0.008259  p :     0.020704
      px      :     0.004428
      py      :     0.008017
 12 H s       :     0.858869  s :     0.858869
      pz      :     0.004267  p :     0.021185
      px      :     0.011148
      py      :     0.005771
 13 H s       :     0.869552  s :     0.869552
      pz      :     0.004615  p :     0.021180
      px      :     0.008358
      py      :     0.008208
 14 H s       :     0.881112  s :     0.881112
      pz      :     0.004217  p :     0.022285
      px      :     0.010665
      py      :     0.007404
 15 C s       :     3.214128  s :     3.214128
      pz      :     0.908191  p :     2.852432
      px      :     0.977752
      py      :     0.966488
      dz2     :     0.017995  d :     0.084289
      dxz     :     0.018739
      dyz     :     0.016241
      dx2y2   :     0.018100
      dxy     :     0.013213
      f0      :     0.000667  f :     0.005625
      f+1     :     0.000826
      f-1     :     0.000588
      f+2     :     0.001652
      f-2     :     0.000999
      f+3     :     0.000491
      f-3     :     0.000402
 16 H s       :     0.886569  s :     0.886569
      pz      :     0.006938  p :     0.020974
      px      :     0.009783
      py      :     0.004254
 17 C s       :     3.168847  s :     3.168847
      pz      :     0.977071  p :     2.858214
      px      :     0.898762
      py      :     0.982381
      dz2     :     0.012665  d :     0.087007
      dxz     :     0.016281
      dyz     :     0.022018
      dx2y2   :     0.024629
      dxy     :     0.011415
      f0      :     0.000159  f :     0.005665
      f+1     :     0.001337
      f-1     :     0.000143
      f+2     :     0.001915
      f-2     :     0.001037
      f+3     :     0.000469
      f-3     :     0.000605
 18 H s       :     0.891042  s :     0.891042
      pz      :     0.004957  p :     0.022321
      px      :     0.005101
      py      :     0.012263
 19 H s       :     0.956946  s :     0.956946
      pz      :     0.004625  p :     0.018814
      px      :     0.004177
      py      :     0.010012
 20 H s       :     0.924253  s :     0.924253
      pz      :     0.007193  p :     0.019862
      px      :     0.009316
      py      :     0.003354
 21 H s       :     0.901215  s :     0.901215
      pz      :     0.008793  p :     0.021024
      px      :     0.004269
      py      :     0.007963
 22 H s       :     0.916879  s :     0.916879
      pz      :     0.006263  p :     0.020641
      px      :     0.004324
      py      :     0.010054


                     *******************************
                     * LOEWDIN POPULATION ANALYSIS *
                     *******************************

----------------------
LOEWDIN ATOMIC CHARGES
----------------------
   0 C :   -0.281054
   1 N :    0.141704
   2 C :   -0.480207
   3 O :   -0.278472
   4 H :    0.188840
   5 H :    0.192171
   6 H :    0.085949
   7 C :   -0.276588
   8 H :    0.129363
   9 H :    0.144990
  10 C :   -0.264489
  11 H :    0.135185
  12 H :    0.147091
  13 H :    0.136009
  14 H :    0.133678
  15 C :   -0.273350
  16 H :    0.128302
  17 C :   -0.284284
  18 H :    0.136890
  19 H :    0.080378
  20 H :    0.104191
  21 H :    0.129683
  22 H :    0.124020

-------------------------------
LOEWDIN REDUCED ORBITAL CHARGES
-------------------------------
  0 C s       :     2.793500  s :     2.793500
      pz      :     1.059200  p :     2.995392
      px      :     0.892588
      py      :     1.043604
      dz2     :     0.068503  d :     0.441238
      dxz     :     0.077654
      dyz     :     0.080181
      dx2y2   :     0.123123
      dxy     :     0.091776
      f0      :     0.005909  f :     0.050923
      f+1     :     0.007122
      f-1     :     0.003587
      f+2     :     0.007373
      f-2     :     0.005409
      f+3     :     0.010534
      f-3     :     0.010990
  1 N s       :     2.981932  s :     2.981932
      pz      :     1.289678  p :     3.701476
      px      :     1.221040
      py      :     1.190757
      dz2     :     0.024675  d :     0.164003
      dxz     :     0.043979
      dyz     :     0.020750
      dx2y2   :     0.041567
      dxy     :     0.033033
      f0      :     0.001609  f :     0.010885
      f+1     :     0.001621
      f-1     :     0.000578
      f+2     :     0.001302
      f-2     :     0.002059
      f+3     :     0.001805
      f-3     :     0.001912
  2 C s       :     2.801961  s :     2.801961
      pz      :     0.984280  p :     2.957877
      px      :     1.027145
      py      :     0.946452
      dz2     :     0.108405  d :     0.641231
      dxz     :     0.164991
      dyz     :     0.133730
      dx2y2   :     0.152849
      dxy     :     0.081256
      f0      :     0.012739  f :     0.079139
      f+1     :     0.006911
      f-1     :     0.014793
      f+2     :     0.011642
      f-2     :     0.013948
      f+3     :     0.010352
      f-3     :     0.008755
  3 O s       :     3.443987  s :     3.443987
      pz      :     1.468539  p :     4.766936
      px      :     1.714792
      py      :     1.583606
      dz2     :     0.015713  d :     0.062942
      dxz     :     0.010275
      dyz     :     0.017553
      dx2y2   :     0.010759
      dxy     :     0.008642
      f0      :     0.000546  f :     0.004607
      f+1     :     0.000418
      f-1     :     0.001272
      f+2     :     0.000920
      f-2     :     0.000732
      f+3     :     0.000328
      f-3     :     0.000389
  4 H s       :     0.711058  s :     0.711058
      pz      :     0.028397  p :     0.100102
      px      :     0.018388
      py      :     0.053316
  5 H s       :     0.708232  s :     0.708232
      pz      :     0.037847  p :     0.099597
      px      :     0.031791
      py      :     0.029960
  6 H s       :     0.642094  s :     0.642094
      pz      :     0.195939  p :     0.271957
      px      :     0.050936
      py      :     0.025082
  7 C s       :     2.778579  s :     2.778579
      pz      :     1.025601  p :     3.063481
      px      :     1.015251
      py      :     1.022630
      dz2     :     0.082003  d :     0.396426
      dxz     :     0.057154
      dyz     :     0.113760
      dx2y2   :     0.056757
      dxy     :     0.086751
      f0      :     0.005683  f :     0.038101
      f+1     :     0.006437
      f-1     :     0.005827
      f+2     :     0.005771
      f-2     :     0.005012
      f+3     :     0.003804
      f-3     :     0.005567
  8 H s       :     0.811559  s :     0.811559
      pz      :     0.031447  p :     0.059077
      px      :     0.012393
      py      :     0.015237
  9 H s       :     0.793371  s :     0.793371
      pz      :     0.024045  p :     0.061639
      px      :     0.010020
      py      :     0.027573
 10 C s       :     2.772084  s :     2.772084
      pz      :     1.009662  p :     3.062687
      px      :     1.026783
      py      :     1.026242
      dz2     :     0.114163  d :     0.391019
      dxz     :     0.064105
      dyz     :     0.086265
      dx2y2   :     0.026345
      dxy     :     0.100143
      f0      :     0.007826  f :     0.038699
      f+1     :     0.006531
      f-1     :     0.006358
      f+2     :     0.006538
      f-2     :     0.005190
      f+3     :     0.001754
      f-3     :     0.004502
 11 H s       :     0.807255  s :     0.807255
      pz      :     0.022147  p :     0.057560
      px      :     0.013343
      py      :     0.022070
 12 H s       :     0.794934  s :     0.794934
      pz      :     0.013149  p :     0.057975
      px      :     0.027465
      py      :     0.017362
 13 H s       :     0.805686  s :     0.805686
      pz      :     0.013577  p :     0.058305
      px      :     0.023454
      py      :     0.021274
 14 H s       :     0.805957  s :     0.805957
      pz      :     0.012816  p :     0.060365
      px      :     0.028721
      py      :     0.018827
 15 C s       :     2.773198  s :     2.773198
      pz      :     1.009438  p :     3.065921
      px      :     1.027330
      py      :     1.029153
      dz2     :     0.070507  d :     0.395149
      dxz     :     0.104335
      dyz     :     0.077810
      dx2y2   :     0.095350
      dxy     :     0.047147
      f0      :     0.007121  f :     0.039081
      f+1     :     0.005819
      f-1     :     0.004505
      f+2     :     0.006147
      f-2     :     0.006165
      f+3     :     0.004601
      f-3     :     0.004724
 16 H s       :     0.813673  s :     0.813673
      pz      :     0.019346  p :     0.058025
      px      :     0.025315
      py      :     0.013364
 17 C s       :     2.790906  s :     2.790906
      pz      :     1.021594  p :     3.069835
      px      :     1.027829
      py      :     1.020413
      dz2     :     0.051144  d :     0.386222
      dxz     :     0.085800
      dyz     :     0.098984
      dx2y2   :     0.099736
      dxy     :     0.050557
      f0      :     0.004226  f :     0.037321
      f+1     :     0.009082
      f-1     :     0.002175
      f+2     :     0.005656
      f-2     :     0.005281
      f+3     :     0.004924
      f-3     :     0.005978
 18 H s       :     0.802661  s :     0.802661
      pz      :     0.015094  p :     0.060449
      px      :     0.015000
      py      :     0.030356
 19 H s       :     0.865895  s :     0.865895
      pz      :     0.013989  p :     0.053727
      px      :     0.012459
      py      :     0.027278
 20 H s       :     0.841387  s :     0.841387
      pz      :     0.020293  p :     0.054423
      px      :     0.024176
      py      :     0.009953
 21 H s       :     0.812374  s :     0.812374
      pz      :     0.022069  p :     0.057943
      px      :     0.013175
      py      :     0.022699
 22 H s       :     0.818491  s :     0.818491
      pz      :     0.016904  p :     0.057489
      px      :     0.013295
      py      :     0.027291


                      *****************************
                      * MAYER POPULATION ANALYSIS *
                      *****************************

  NA   - Mulliken gross atomic population
  ZA   - Total nuclear charge
  QA   - Mulliken gross atomic charge
  VA   - Mayer's total valence
  BVA  - Mayer's bonded valence
  FA   - Mayer's free valence

  ATOM       NA         ZA         QA         VA         BVA        FA
  0 C      6.1952     6.0000    -0.1952     3.8602     3.8602     0.0000
  1 N      7.2931     7.0000    -0.2931     3.2342     3.2342    -0.0000
  2 C      6.0458     6.0000    -0.0458     4.0841     4.0841     0.0000
  3 O      8.6974     8.0000    -0.6974     1.6306     1.6306     0.0000
  4 H      0.7460     1.0000     0.2540     0.9381     0.9381    -0.0000
  5 H      0.7347     1.0000     0.2653     0.9277     0.9277     0.0000
  6 H      0.7018     1.0000     0.2982     1.0513     1.0513    -0.0000
  7 C      6.2338     6.0000    -0.2338     3.8136     3.8136     0.0000
  8 H      0.8633     1.0000     0.1367     0.9630     0.9630     0.0000
  9 H      0.8267     1.0000     0.1733     0.9627     0.9627     0.0000
 10 C      6.2300     6.0000    -0.2300     3.7857     3.7857    -0.0000
 11 H      0.8813     1.0000     0.1187     0.9634     0.9634     0.0000
 12 H      0.8801     1.0000     0.1199     0.9691     0.9691     0.0000
 13 H      0.8907     1.0000     0.1093     0.9697     0.9697    -0.0000
 14 H      0.9034     1.0000     0.0966     0.9795     0.9795    -0.0000
 15 C      6.1565     6.0000    -0.1565     3.8265     3.8265    -0.0000
 16 H      0.9075     1.0000     0.0925     0.9608     0.9608    -0.0000
 17 C      6.1197     6.0000    -0.1197     3.6472     3.6472    -0.0000
 18 H      0.9134     1.0000     0.0866     0.9922     0.9922    -0.0000
 19 H      0.9758     1.0000     0.0242     0.9441     0.9441     0.0000
 20 H      0.9441     1.0000     0.0559     0.9509     0.9509     0.0000
 21 H      0.9222     1.0000     0.0778     0.9764     0.9764     0.0000
 22 H      0.9375     1.0000     0.0625     0.9801     0.9801    -0.0000

  Mayer bond orders larger than 0.100000
B(  0-C ,  1-N ) :   0.8639 B(  0-C ,  7-C ) :   0.9655 B(  0-C ,  8-H ) :   0.9761 
B(  0-C ,  9-H ) :   0.9756 B(  1-N ,  4-H ) :   0.9072 B(  1-N ,  5-H ) :   0.9137 
B(  1-N ,  6-H ) :   0.6204 B(  2-C ,  3-O ) :   1.2294 B(  2-C , 17-C ) :   0.9033 
B(  2-C , 19-H ) :   0.9870 B(  2-C , 20-H ) :   0.9742 B(  3-O ,  6-H ) :   0.4314 
B(  3-O , 17-C ) :  -0.1148 B(  7-C , 10-C ) :   0.9382 B(  7-C , 11-H ) :   0.9856 
B(  7-C , 12-H ) :   0.9721 B( 10-C , 13-H ) :   0.9796 B( 10-C , 14-H ) :   0.9847 
B( 10-C , 15-C ) :   0.9166 B( 15-C , 16-H ) :   0.9729 B( 15-C , 17-C ) :   0.9672 
B( 15-C , 18-H ) :   0.9685 B( 17-C , 21-H ) :   0.9628 B( 17-C , 22-H ) :   0.9624 


-------
TIMINGS
-------

Total SCF time: 0 days 0 hours 0 min 31 sec 

Total time                  ....      31.992 sec
Sum of individual times     ....      31.338 sec  ( 98.0%)

Fock matrix formation       ....      29.189 sec  ( 91.2%)
  Split-RI-J                ....       1.987 sec  (  6.8% of F)
  Chain of spheres X        ....      24.345 sec  ( 83.4% of F)
  XC integration            ....       2.715 sec  (  9.3% of F)
    Basis function eval.    ....       0.610 sec  ( 22.5% of XC)
    Density eval.           ....       0.642 sec  ( 23.6% of XC)
    XC-Functional eval.     ....       0.204 sec  (  7.5% of XC)
    XC-Potential eval.      ....       0.670 sec  ( 24.7% of XC)
Diagonalization             ....       0.235 sec  (  0.7%)
Density matrix formation    ....       0.023 sec  (  0.1%)
Population analysis         ....       0.029 sec  (  0.1%)
Initial guess               ....       0.228 sec  (  0.7%)
Orbital Transformation      ....       0.000 sec  (  0.0%)
Orbital Orthonormalization  ....       0.000 sec  (  0.0%)
DIIS solution               ....       0.133 sec  (  0.4%)
SOSCF solution              ....       0.152 sec  (  0.5%)
Grid generation             ....       1.349 sec  (  4.2%)

Maximum memory used throughout the entire SCF-calculation: 83.9 MB

-------------------------   --------------------
FINAL SINGLE POINT ENERGY      -367.539653688086
-------------------------   --------------------


                            ***************************************
                            *     ORCA property calculations      *
                            ***************************************

                                    ---------------------
                                    Active property flags
                                    ---------------------
   (+) Dipole Moment


------------------------------------------------------------------------------
                       ORCA ELECTRIC PROPERTIES CALCULATION
------------------------------------------------------------------------------

Dipole Moment Calculation                       ... on
Quadrupole Moment Calculation                   ... off
Polarizability Calculation                      ... off
GBWName                                         ... CAMB3LYP_B_wt_wb97.gbw
Electron density file                           ... CAMB3LYP_B_wt_wb97.scfp
The origin for moment calculation is the CENTER OF MASS  = (-0.135098,  9.221078 -4.235783)

-------------
DIPOLE MOMENT
-------------
                                X             Y             Z
Electronic contribution:      2.01575      -1.56733      -1.32547
Nuclear contribution   :     -3.16446       1.92310      -1.11926
                        -----------------------------------------
Total Dipole Moment    :     -1.14872       0.35577      -2.44473
                        -----------------------------------------
Magnitude (a.u.)       :      2.72449
Magnitude (Debye)      :      6.92509



--------------------
Rotational spectrum 
--------------------
 
Rotational constants in cm-1:     0.085554     0.055600     0.038553 
Rotational constants in MHz :  2564.854379  1666.836664  1155.798427 

 Dipole components along the rotational axes: 
x,y,z [a.u.] :    -2.644009    -0.195554     0.627529 
x,y,z [Debye]:    -6.720538    -0.497058     1.595053 

 

Timings for individual modules:

Sum of individual times         ...       33.342 sec (=   0.556 min)
GTO integral calculation        ...        0.888 sec (=   0.015 min)   2.7 %
SCF iterations                  ...       32.455 sec (=   0.541 min)  97.3 %
                             ****ORCA TERMINATED NORMALLY****
TOTAL RUN TIME: 0 days 0 hours 0 minutes 33 seconds 962 msec
