
                                        *****************
                                        * O   R   C   A *
                                        *****************

                                            #,                                       
                                            ###                                      
                                            ####                                     
                                            #####                                    
                                            ######                                   
                                           ########,                                 
                                     ,,################,,,,,                         
                               ,,#################################,,                 
                          ,,##########################################,,             
                       ,#########################################, ''#####,          
                    ,#############################################,,   '####,        
                  ,##################################################,,,,####,       
                ,###########''''           ''''###############################       
              ,#####''   ,,,,##########,,,,          '''####'''          '####       
            ,##' ,,,,###########################,,,                        '##       
           ' ,,###''''                  '''############,,,                           
         ,,##''                                '''############,,,,        ,,,,,,###''
      ,#''                                            '''#######################'''  
     '                                                          ''''####''''         
             ,#######,   #######,   ,#######,      ##                                
            ,#'     '#,  ##    ##  ,#'     '#,    #''#        ######   ,####,        
            ##       ##  ##   ,#'  ##            #'  '#       #        #'  '#        
            ##       ##  #######   ##           ,######,      #####,   #    #        
            '#,     ,#'  ##    ##  '#,     ,#' ,#      #,         ##   #,  ,#        
             '#######'   ##     ##  '#######'  #'      '#     #####' # '####'        



                  #######################################################
                  #                        -***-                        #
                  #          Department of theory and spectroscopy      #
                  #    Directorship and core code : Frank Neese         #
                  #        Max Planck Institute fuer Kohlenforschung    #
                  #                Kaiser Wilhelm Platz 1               #
                  #                 D-45470 Muelheim/Ruhr               #
                  #                      Germany                        #
                  #                                                     #
                  #                  All rights reserved                #
                  #                        -***-                        #
                  #######################################################


                         Program Version 5.0.0 -  RELEASE  -
                                (SVN: $Rev: 19529$)
                ($Date: 2021-06-28 11:36:33 +0200 (Mo, 28 Jun 2021) $)


 With contributions from (in alphabetic order):
   Daniel Aravena         : Magnetic Suceptibility
   Michael Atanasov       : Ab Initio Ligand Field Theory (pilot matlab implementation)
   Alexander A. Auer      : GIAO ZORA, VPT2 properties, NMR spectrum
   Ute Becker             : Parallelization
   Giovanni Bistoni       : ED, misc. LED, open-shell LED, HFLD
   Martin Brehm           : Molecular dynamics
   Dmytro Bykov           : SCF Hessian
   Vijay G. Chilkuri      : MRCI spin determinant printing, contributions to CSF-ICE
   Dipayan Datta          : RHF DLPNO-CCSD density
   Achintya Kumar Dutta   : EOM-CC, STEOM-CC
   Dmitry Ganyushin       : Spin-Orbit,Spin-Spin,Magnetic field MRCI
   Miquel Garcia          : C-PCM Hessian, Gaussian charge scheme
   Yang Guo               : DLPNO-NEVPT2, F12-NEVPT2, CIM, IAO-localization
   Andreas Hansen         : Spin unrestricted coupled pair/coupled cluster methods
   Benjamin Helmich-Paris : MC-RPA, TRAH-SCF, COSX integrals
   Lee Huntington         : MR-EOM, pCC
   Robert Izsak           : Overlap fitted RIJCOSX, COSX-SCS-MP3, EOM
   Marcus Kettner         : VPT2
   Christian Kollmar      : KDIIS, OOCD, Brueckner-CCSD(T), CCSD density, CASPT2, CASPT2-K
   Simone Kossmann        : Meta GGA functionals, TD-DFT gradient, OOMP2, MP2 Hessian
   Martin Krupicka        : Initial AUTO-CI
   Lucas Lang             : DCDCAS
   Marvin Lechner         : AUTO-CI (C++ implementation), FIC-MRCC
   Dagmar Lenk            : GEPOL surface, SMD
   Dimitrios Liakos       : Extrapolation schemes; Compound Job, initial MDCI parallelization
   Dimitrios Manganas     : Further ROCIS development; embedding schemes
   Dimitrios Pantazis     : SARC Basis sets
   Anastasios Papadopoulos: AUTO-CI, single reference methods and gradients
   Taras Petrenko         : DFT Hessian,TD-DFT gradient, ASA, ECA, R-Raman, ABS, FL, XAS/XES, NRVS
   Peter Pinski           : DLPNO-MP2, DLPNO-MP2 Gradient
   Christoph Reimann      : Effective Core Potentials
   Marius Retegan         : Local ZFS, SOC
   Christoph Riplinger    : Optimizer, TS searches, QM/MM, DLPNO-CCSD(T), (RO)-DLPNO pert. Triples
   Tobias Risthaus        : Range-separated hybrids, TD-DFT gradient, RPA, STAB
   Michael Roemelt        : Original ROCIS implementation
   Masaaki Saitow         : Open-shell DLPNO-CCSD energy and density
   Barbara Sandhoefer     : DKH picture change effects
   Avijit Sen             : IP-ROCIS
   Kantharuban Sivalingam : CASSCF convergence, NEVPT2, FIC-MRCI
   Bernardo de Souza      : ESD, SOC TD-DFT
   Georgi Stoychev        : AutoAux, RI-MP2 NMR
   Willem Van den Heuvel  : Paramagnetic NMR
   Boris Wezisla          : Elementary symmetry handling
   Frank Wennmohs         : Technical directorship


 We gratefully acknowledge several colleagues who have allowed us to
 interface, adapt or use parts of their codes:
   Stefan Grimme, W. Hujo, H. Kruse, P. Pracht,  : VdW corrections, initial TS optimization,
                  C. Bannwarth, S. Ehlert          DFT functionals, gCP, sTDA/sTD-DF
   Ed Valeev, F. Pavosevic, A. Kumar             : LibInt (2-el integral package), F12 methods
   Garnet Chan, S. Sharma, J. Yang, R. Olivares  : DMRG
   Ulf Ekstrom                                   : XCFun DFT Library
   Mihaly Kallay                                 : mrcc  (arbitrary order and MRCC methods)
   Jiri Pittner, Ondrej Demel                    : Mk-CCSD
   Frank Weinhold                                : gennbo (NPA and NBO analysis)
   Christopher J. Cramer and Donald G. Truhlar   : smd solvation model
   Lars Goerigk                                  : TD-DFT with DH, B97 family of functionals
   V. Asgeirsson, H. Jonsson                     : NEB implementation
   FAccTs GmbH                                   : IRC, NEB, NEB-TS, DLPNO-Multilevel, CI-OPT
                                                   MM, QMMM, 2- and 3-layer-ONIOM, Crystal-QMMM,
                                                   LR-CPCM, SF, NACMEs, symmetry and pop. for TD-DFT,
                                                   nearIR, NL-DFT gradient (VV10), updates on ESD,
                                                   ML-optimized integration grids
   S Lehtola, MJT Oliveira, MAL Marques          : LibXC Library
   Liviu Ungur et al                             : ANISO software


 Your calculation uses the libint2 library for the computation of 2-el integrals
 For citations please refer to: http://libint.valeyev.net

 Your ORCA version has been built with support for libXC version: 5.1.0
 For citations please refer to: https://tddft.org/programs/libxc/

 This ORCA versions uses:
   CBLAS   interface :  Fast vector & matrix operations
   LAPACKE interface :  Fast linear algebra routines
   SCALAPACK package :  Parallel linear algebra routines
   Shared memory     :  Shared parallel matrices
   BLAS/LAPACK       :  OpenBLAS 0.3.15  USE64BITINT DYNAMIC_ARCH NO_AFFINITY Haswell SINGLE_THREADED
        Core in use  :  Haswell
   Copyright (c) 2011-2014, The OpenBLAS Project


Your calculation utilizes the atom-pairwise dispersion correction
with the zero-damping scheme (D30)
Cite in your paper:
S.Grimme, J.Antony, S.Ehrlich and H.Krieg, J.Chem.Phys., 132, (2010), 154104 
   

XCFun DFT library Copyright 2009-2010 Ulf Ekstrom and contributors.
See http://admol.org/xcfun for more information.
This is free software; see the source code for copying conditions.
There is ABSOLUTELY NO WARRANTY; not even for MERCHANTABILITY or FITNESS FOR A PARTICULAR PURPOSE.
For details see the documentation.
Scientific users of this library should cite U. Ekstrom, L. Visscher, R. Bast, A. J. Thorvaldsen and K. Ruud;
J.Chem.Theor.Comp. 2010, DOI: 10.1021/ct100117s
XCFun Version 0.99 

================================================================================

----- Orbital basis set information -----
Your calculation utilizes the basis: def2-TZVP
   F. Weigend and R. Ahlrichs, Phys. Chem. Chem. Phys. 7, 3297 (2005).

----- AuxJ basis set information -----
Your calculation utilizes the auxiliary basis: def2/J
   F. Weigend, Phys. Chem. Chem. Phys. 8, 1057 (2006).

================================================================================
                                        WARNINGS
                       Please study these warnings very carefully!
================================================================================


INFO   : the flag for use of the SHARK integral package has been found!

================================================================================
                                       INPUT FILE
================================================================================
NAME = A_neg.com
|  1> !wB97X-D3 RIJCOSX def2-TZVP def2/J TightSCF 
|  2> *xyz -1 1 
|  3> C          0.69721        3.22791       -0.52513
|  4> O          1.48929        2.37470        0.19919
|  5> H          0.26505        2.70007       -1.34946
|  6> H          1.28994        4.03943       -0.89255
|  7> H         -0.08148        3.61005        0.10138
|  8> *
|  9> 
| 10> %MaxCore 64000
| 11> %pal nprocs 8
| 12> end  
| 13> 
| 14> %scf
| 15>   MaxIter 150
| 16> end
| 17> 
| 18> 
| 19>                          ****END OF INPUT****
================================================================================

                       ****************************
                       * Single Point Calculation *
                       ****************************

---------------------------------
CARTESIAN COORDINATES (ANGSTROEM)
---------------------------------
  C      0.697210    3.227910   -0.525130
  O      1.489290    2.374700    0.199190
  H      0.265050    2.700070   -1.349460
  H      1.289940    4.039430   -0.892550
  H     -0.081480    3.610050    0.101380

----------------------------
CARTESIAN COORDINATES (A.U.)
----------------------------
  NO LB      ZA    FRAG     MASS         X           Y           Z
   0 C     6.0000    0    12.011    1.317536    6.099866   -0.992352
   1 O     8.0000    0    15.999    2.814350    4.487533    0.376415
   2 H     1.0000    0     1.008    0.500872    5.102393   -2.550110
   3 H     1.0000    0     1.008    2.437633    7.633416   -1.686675
   4 H     1.0000    0     1.008   -0.153975    6.822006    0.191580

--------------------------------
INTERNAL COORDINATES (ANGSTROEM)
--------------------------------
 C      0   0   0     0.000000000000     0.00000000     0.00000000
 O      1   0   0     1.371130005835     0.00000000     0.00000000
 H      1   2   0     1.069998729018   109.47079995     0.00000000
 H      1   2   3     1.069995803590   109.47132852   240.00017844
 H      1   2   3     1.070001811120   109.47120095   120.00022243

---------------------------
INTERNAL COORDINATES (A.U.)
---------------------------
 C      0   0   0     0.000000000000     0.00000000     0.00000000
 O      1   0   0     2.591060205029     0.00000000     0.00000000
 H      1   2   0     2.022004561488   109.47079995     0.00000000
 H      1   2   3     2.021999033230   109.47132852   240.00017844
 H      1   2   3     2.022010385816   109.47120095   120.00022243

---------------------
BASIS SET INFORMATION
---------------------
There are 3 groups of distinct atoms

 Group   1 Type C   : 11s6p2d1f contracted to 5s3p2d1f pattern {62111/411/11/1}
 Group   2 Type O   : 11s6p2d1f contracted to 5s3p2d1f pattern {62111/411/11/1}
 Group   3 Type H   : 5s1p contracted to 3s1p pattern {311/1}

Atom   0C    basis set group =>   1
Atom   1O    basis set group =>   2
Atom   2H    basis set group =>   3
Atom   3H    basis set group =>   3
Atom   4H    basis set group =>   3
---------------------------------
AUXILIARY/J BASIS SET INFORMATION
---------------------------------
There are 3 groups of distinct atoms

 Group   1 Type C   : 12s5p4d2f1g contracted to 6s4p3d1f1g pattern {711111/2111/211/2/1}
 Group   2 Type O   : 12s5p4d2f1g contracted to 6s4p3d1f1g pattern {711111/2111/211/2/1}
 Group   3 Type H   : 5s2p1d contracted to 3s1p1d pattern {311/2/1}

Atom   0C    basis set group =>   1
Atom   1O    basis set group =>   2
Atom   2H    basis set group =>   3
Atom   3H    basis set group =>   3
Atom   4H    basis set group =>   3


           ************************************************************
           *        Program running with 8 parallel MPI-processes     *
           *              working on a common directory               *
           ************************************************************
------------------------------------------------------------------------------
                           ORCA GTO INTEGRAL CALCULATION
                           -- RI-GTO INTEGRALS CHOSEN --
------------------------------------------------------------------------------
------------------------------------------------------------------------------
                   ___                                                        
                  /   \      - P O W E R E D   B Y -                         
                 /     \                                                     
                 |  |  |   _    _      __       _____    __    __             
                 |  |  |  | |  | |    /  \     |  _  \  |  |  /  |          
                  \  \/   | |  | |   /    \    | | | |  |  | /  /          
                 / \  \   | |__| |  /  /\  \   | |_| |  |  |/  /          
                |  |  |   |  __  | /  /__\  \  |    /   |      \           
                |  |  |   | |  | | |   __   |  |    \   |  |\   \          
                \     /   | |  | | |  |  |  |  | |\  \  |  | \   \       
                 \___/    |_|  |_| |__|  |__|  |_| \__\ |__|  \__/        
                                                                              
                      - O R C A' S   B I G   F R I E N D -                    
                                      &                                       
                       - I N T E G R A L  F E E D E R -                       
                                                                              
 v1 FN, 2020, v2 2021                                                         
------------------------------------------------------------------------------


Reading SHARK input file A_neg.SHARKINP.tmp ... ok
----------------------
SHARK INTEGRAL PACKAGE
----------------------

Number of atoms                             ...      5
Number of basis functions                   ...     80
Number of shells                            ...     34
Maximum angular momentum                    ...      3
Integral batch strategy                     ... SHARK/LIBINT Hybrid
RI-J (if used) integral strategy            ... SPLIT-RIJ (Revised 2003 algorithm where possible)
Printlevel                                  ...      1
Contraction scheme used                     ... SEGMENTED contraction
Coulomb Range Separation                    ... NOT USED
Exchange Range Separation                   ... Long Range
   Mu parameter                             ...  0.250000
   Scaling (regular/separated)              ...  0.195728  0.804272
Finite Nucleus Model                        ... NOT USED
Auxiliary Coulomb fitting basis             ... AVAILABLE
   # of basis functions in Aux-J            ...    131
   # of shells in Aux-J                     ...     45
   Maximum angular momentum in Aux-J        ...      4
Auxiliary J/K fitting basis                 ... NOT available
Auxiliary Correlation fitting basis         ... NOT available
Auxiliary 'external' fitting basis          ... NOT available
Integral threshold                          ...     2.500000e-11
Primitive cut-off                           ...     2.500000e-12
Primitive pair pre-selection threshold      ...     2.500000e-12

Calculating pre-screening integrals         ... done (  0.1 sec) Dimension = 34
Organizing shell pair data                  ... done (  0.0 sec)
Shell pair information
Total number of shell pairs                 ...       595
Shell pairs after pre-screening             ...       594
Total number of primitive shell pairs       ...      1764
Primitive shell pairs kept                  ...      1578
          la=0 lb=0:    189 shell pairs
          la=1 lb=0:    171 shell pairs
          la=1 lb=1:     45 shell pairs
          la=2 lb=0:     76 shell pairs
          la=2 lb=1:     36 shell pairs
          la=2 lb=2:     10 shell pairs
          la=3 lb=0:     38 shell pairs
          la=3 lb=1:     18 shell pairs
          la=3 lb=2:      8 shell pairs
          la=3 lb=3:      3 shell pairs

Calculating one electron integrals          ... done (  0.0 sec)
Calculating RI/J V-Matrix + Cholesky decomp.... done (  0.0 sec)
Calculating Nuclear repulsion               ... done (  0.0 sec) ENN=     34.683631012102 Eh

SHARK setup successfully completed in   0.1 seconds

Maximum memory used throughout the entire GTOINT-calculation: 13.7 MB


           ************************************************************
           *        Program running with 8 parallel MPI-processes     *
           *              working on a common directory               *
           ************************************************************
-------------------------------------------------------------------------------
                                 ORCA SCF
-------------------------------------------------------------------------------

------------
SCF SETTINGS
------------
Hamiltonian:
 Density Functional     Method          .... DFT(GTOs)
 Exchange Functional    Exchange        .... WB97X-D3
 Correlation Functional Correlation     .... WB97X-D3
 Gradients option       PostSCFGGA      .... off
 Hybrid DFT is turned on
   Fraction HF Exchange ScalHFX         ....  0.195728
   Scaling of DF-GGA-X  ScalDFX         ....  0.000000
   Scaling of DF-GGA-C  ScalDFC         ....  1.000000
   Scaling of DF-LDA-C  ScalLDAC        ....  1.000000
   Perturbative correction              ....  0.000000
   Density functional embedding theory  .... OFF
 Long-range corrected/Screened/Range-Separated Hybrid DFT is turned on
   Amount of maximum screened exact exchange              ....  0.804272
   Range separation parameter mu (erf(mu*r12)/r12)        ....  0.250000
 RI-approximation to the Coulomb term is turned on
   Number of AuxJ basis functions       .... 131
   RIJ-COSX (HFX calculated with COS-X)).... on


General Settings:
 Integral files         IntName         .... A_neg
 Hartree-Fock type      HFTyp           .... RHF
 Total Charge           Charge          ....   -1
 Multiplicity           Mult            ....    1
 Number of Electrons    NEL             ....   18
 Basis Dimension        Dim             ....   80
 Nuclear Repulsion      ENuc            ....     34.6836310121 Eh

Convergence Acceleration:
 DIIS                   CNVDIIS         .... on
   Start iteration      DIISMaxIt       ....    12
   Startup error        DIISStart       ....  0.200000
   # of expansion vecs  DIISMaxEq       ....     5
   Bias factor          DIISBfac        ....   1.050
   Max. coefficient     DIISMaxC        ....  10.000
 Trust-Rad. Augm. Hess. CNVTRAH         .... auto
   Auto Start mean grad. ratio tolernc. ....  1.125000
   Auto Start start iteration           ....    20
   Auto Start num. interpolation iter.  ....    10
   Max. Number of Micro iterations      ....    16
   Max. Number of Macro iterations      .... Maxiter - #DIIS iter
   Number of Davidson start vectors     ....     2
   Converg. threshold I  (grad. norm)   ....   1.000e-05
   Converg. threshold II (energy diff.) ....   1.000e-08
   Grad. Scal. Fac. for Micro threshold ....   0.100
   Minimum threshold for Micro iter.    ....   0.010
   NR start threshold (gradient norm)   ....   0.001
   Initial trust radius                 ....   0.400
   Minimum AH scaling param. (alpha)    ....   1.000
   Maximum AH scaling param. (alpha)    .... 1000.000
   Orbital update algorithm             .... Taylor
   White noise on init. David. guess    .... on
   Maximum white noise                  ....   0.010
   Quad. conv. algorithm                .... NR
 SOSCF                  CNVSOSCF        .... on
   Start iteration      SOSCFMaxIt      ....   150
   Startup grad/error   SOSCFStart      ....  0.003300
 Level Shifting         CNVShift        .... on
   Level shift para.    LevelShift      ....    0.2500
   Turn off err/grad.   ShiftErr        ....    0.0010
 Zerner damping         CNVZerner       .... off
 Static damping         CNVDamp         .... on
   Fraction old density DampFac         ....    0.7000
   Max. Damping (<1)    DampMax         ....    0.9800
   Min. Damping (>=0)   DampMin         ....    0.0000
   Turn off err/grad.   DampErr         ....    0.1000
 Fernandez-Rico         CNVRico         .... off

SCF Procedure:
 Maximum # iterations   MaxIter         ....   150
 SCF integral mode      SCFMode         .... Direct
   Integral package                     .... SHARK and LIBINT hybrid scheme
 Reset frequency        DirectResetFreq ....    20
 Integral Threshold     Thresh          ....  2.500e-11 Eh
 Primitive CutOff       TCut            ....  2.500e-12 Eh

Convergence Tolerance:
 Convergence Check Mode ConvCheckMode   .... Total+1el-Energy
 Convergence forced     ConvForced      .... 0
 Energy Change          TolE            ....  1.000e-08 Eh
 1-El. energy change                    ....  1.000e-05 Eh
 Orbital Gradient       TolG            ....  1.000e-05
 Orbital Rotation angle TolX            ....  1.000e-05
 DIIS Error             TolErr          ....  5.000e-07


Diagonalization of the overlap matrix:
Smallest eigenvalue                        ... 1.609e-03
Time for diagonalization                   ...    0.003 sec
Threshold for overlap eigenvalues          ... 1.000e-08
Number of eigenvalues below threshold      ... 0
Time for construction of square roots      ...    0.003 sec
Total time needed                          ...    0.006 sec

Time for model grid setup =    0.018 sec

------------------------------
INITIAL GUESS: MODEL POTENTIAL
------------------------------
Loading Hartree-Fock densities                     ... done
Calculating cut-offs                               ... done
Initializing the effective Hamiltonian             ... done
Setting up the integral package (SHARK)            ... done
Starting the Coulomb interaction                   ... done (   0.0 sec)
Reading the grid                                   ... done
Mapping shells                                     ... done
Starting the XC term evaluation                    ... done (   0.0 sec)
  promolecular density results
     # of electrons  =     16.998398500
     EX              =    -14.093011686
     EC              =     -0.541288011
     EX+EC           =    -14.634299698
Transforming the Hamiltonian                       ... done (   0.0 sec)
Diagonalizing the Hamiltonian                      ... done (   0.0 sec)
Back transforming the eigenvectors                 ... done (   0.0 sec)
Now organizing SCF variables                       ... done
                      ------------------
                      INITIAL GUESS DONE (   0.0 sec)
                      ------------------
-------------------
DFT GRID GENERATION
-------------------

General Integration Accuracy     IntAcc      ... 4.388
Radial Grid Type                 RadialGrid  ... OptM3 with GC (2021)
Angular Grid (max. ang.)         AngularGrid ... 4 (Lebedev-302)
Angular grid pruning method      GridPruning ... 4 (adaptive)
Weight generation scheme         WeightScheme... Becke
Basis function cutoff            BFCut       ... 1.0000e-11
Integration weight cutoff        WCut        ... 1.0000e-14
Angular grids for H and He will be reduced by one unit
Partially contracted basis set               ... off
Rotationally invariant grid construction     ... off

Total number of grid points                  ...    22089
Total number of batches                      ...      348
Average number of points per batch           ...       63
Average number of grid points per atom       ...     4418
Time for grid setup =    0.109 sec

--------------------
COSX GRID GENERATION
--------------------

GRIDX 1
-------
General Integration Accuracy     IntAcc      ... 3.816
Radial Grid Type                 RadialGrid  ... OptM3 with GC (2021)
Angular Grid (max. ang.)         AngularGrid ... 1 (Lebedev-50)
Angular grid pruning method      GridPruning ... 4 (adaptive)
Weight generation scheme         WeightScheme... Becke
Basis function cutoff            BFCut       ... 1.0000e-11
Integration weight cutoff        WCut        ... 1.0000e-14
Angular grids for H and He will be reduced by one unit
Partially contracted basis set               ... on
Rotationally invariant grid construction     ... off

Total number of grid points                  ...     2851
Total number of batches                      ...       48
Average number of points per batch           ...       59
Average number of grid points per atom       ...      570
UseSFitting                                  ... on

GRIDX 2
-------
General Integration Accuracy     IntAcc      ... 4.020
Radial Grid Type                 RadialGrid  ... OptM3 with GC (2021)
Angular Grid (max. ang.)         AngularGrid ... 2 (Lebedev-110)
Angular grid pruning method      GridPruning ... 4 (adaptive)
Weight generation scheme         WeightScheme... Becke
Basis function cutoff            BFCut       ... 1.0000e-11
Integration weight cutoff        WCut        ... 1.0000e-14
Angular grids for H and He will be reduced by one unit
Partially contracted basis set               ... on
Rotationally invariant grid construction     ... off

Total number of grid points                  ...     6145
Total number of batches                      ...       99
Average number of points per batch           ...       62
Average number of grid points per atom       ...     1229
UseSFitting                                  ... on

GRIDX 3
-------
General Integration Accuracy     IntAcc      ... 4.338
Radial Grid Type                 RadialGrid  ... OptM3 with GC (2021)
Angular Grid (max. ang.)         AngularGrid ... 3 (Lebedev-194)
Angular grid pruning method      GridPruning ... 4 (adaptive)
Weight generation scheme         WeightScheme... Becke
Basis function cutoff            BFCut       ... 1.0000e-11
Integration weight cutoff        WCut        ... 1.0000e-14
Angular grids for H and He will be reduced by one unit
Partially contracted basis set               ... on
Rotationally invariant grid construction     ... off

Total number of grid points                  ...    13601
Total number of batches                      ...      215
Average number of points per batch           ...       63
Average number of grid points per atom       ...     2720
UseSFitting                                  ... on

Time for X-Grid setup             =    0.078 sec

--------------
SCF ITERATIONS
--------------
ITER       Energy         Delta-E        Max-DP      RMS-DP      [F,P]     Damp
               ***  Starting incremental Fock matrix formation  ***
  0   -114.8530466454   0.000000000000 0.06365091  0.00421421  0.3747732 0.7000
  1   -114.9595878784  -0.106541232991 0.07088433  0.00356351  0.1715575 0.7000
                               ***Turning on DIIS***
  2   -115.0053183569  -0.045730478510 0.14051350  0.00665938  0.0568520 0.0000
  3   -115.0809973040  -0.075678947065 0.01099558  0.00062646  0.1032900 0.7000
  4   -115.0865634450  -0.005566141045 0.03506006  0.00194485  0.0719560 0.0000
  5   -115.0951386796  -0.008575234554 0.00636502  0.00026928  0.0096628 0.0000
                      *** Initiating the SOSCF procedure ***
                           *** Shutting down DIIS ***
                      *** Re-Reading the Fockian *** 
                      *** Removing any level shift *** 
ITER      Energy       Delta-E        Grad      Rot      Max-DP    RMS-DP
  6   -115.09532733  -0.0001886516  0.001274  0.001274  0.005871  0.000200
               *** Restarting incremental Fock matrix formation ***
  7   -115.09534082  -0.0000134921  0.000456  0.000978  0.005477  0.000180
  8   -115.09534824  -0.0000074131  0.000146  0.000623  0.003410  0.000114
  9   -115.09534938  -0.0000011458  0.000151  0.000132  0.000510  0.000021
 10   -115.09534955  -0.0000001717  0.000083  0.000092  0.000510  0.000017
 11   -115.09534962  -0.0000000693  0.000006  0.000013  0.000053  0.000002
 12   -115.09534963  -0.0000000025  0.000005  0.000005  0.000021  0.000001
                  ***Gradient check signals convergence***
              ***Rediagonalizing the Fockian in SOSCF/NRSCF***

               *****************************************************
               *                     SUCCESS                       *
               *           SCF CONVERGED AFTER  13 CYCLES          *
               *****************************************************

Old exchange energy                            =     -4.806884546 Eh
New exchange energy                            =     -4.806881248 Eh
Exchange energy change after final integration =      0.000003298 Eh
Total energy after final integration           =   -115.095346329 Eh
Final COS-X integration done in                =     0.240 sec

----------------
TOTAL SCF ENERGY
----------------

Total Energy       :         -115.09534633 Eh           -3131.90360 eV

Components:
Nuclear Repulsion  :           34.68363101 Eh             943.78958 eV
Electronic Energy  :         -149.77897734 Eh           -4075.69318 eV
One Electron Energy:         -230.67346410 Eh           -6276.94407 eV
Two Electron Energy:           80.89448676 Eh            2201.25089 eV
Max COSX asymmetry :            0.00000125 Eh               0.00003 eV

Virial components:
Potential Energy   :         -229.99921596 Eh           -6258.59685 eV
Kinetic Energy     :          114.90386964 Eh            3126.69325 eV
Virial Ratio       :            2.00166641


DFT components:
N(Alpha)           :        9.000005535070 electrons
N(Beta)            :        9.000005535070 electrons
N(Total)           :       18.000011070140 electrons
E(XC)              :      -10.571842675215 Eh       
DFET-embed. en.    :        0.000000000000 Eh       

---------------
SCF CONVERGENCE
---------------

  Last Energy change         ...   -7.4290e-10  Tolerance :   1.0000e-08
  Last MAX-Density change    ...    7.7716e-16  Tolerance :   1.0000e-07
  Last RMS-Density change    ...    2.9249e-17  Tolerance :   5.0000e-09
  Last Orbital Gradient      ...    1.0248e-06  Tolerance :   1.0000e-05
  Last Orbital Rotation      ...    1.5398e-06  Tolerance :   1.0000e-05

             **** THE GBW FILE WAS UPDATED (A_neg.gbw) ****
             **** DENSITY A_neg.scfp WAS UPDATED ****
             **** ENERGY FILE WAS UPDATED (A_neg.en.tmp) ****
             **** THE GBW FILE WAS UPDATED (A_neg.gbw) ****
             **** DENSITY A_neg.scfp WAS UPDATED ****
----------------
ORBITAL ENERGIES
----------------

  NO   OCC          E(Eh)            E(eV) 
   0   2.0000     -18.839296      -512.6433 
   1   2.0000     -10.043288      -273.2918 
   2   2.0000      -0.749790       -20.4028 
   3   2.0000      -0.495437       -13.4815 
   4   2.0000      -0.282571        -7.6892 
   5   2.0000      -0.282551        -7.6886 
   6   2.0000      -0.173549        -4.7225 
   7   2.0000      -0.019267        -0.5243 
   8   2.0000      -0.019264        -0.5242 
   9   0.0000       0.330165         8.9843 
  10   0.0000       0.403189        10.9713 
  11   0.0000       0.403199        10.9716 
  12   0.0000       0.408396        11.1130 
  13   0.0000       0.514068        13.9885 
  14   0.0000       0.514070        13.9886 
  15   0.0000       0.615515        16.7490 
  16   0.0000       0.730041        19.8654 
  17   0.0000       0.764692        20.8083 
  18   0.0000       0.777400        21.1541 
  19   0.0000       0.777404        21.1542 
  20   0.0000       0.874656        23.8006 
  21   0.0000       0.888998        24.1909 
  22   0.0000       0.889007        24.1911 
  23   0.0000       1.060166        28.8486 
  24   0.0000       1.060179        28.8489 
  25   0.0000       1.137294        30.9473 
  26   0.0000       1.247311        33.9410 
  27   0.0000       1.247326        33.9415 
  28   0.0000       1.379169        37.5291 
  29   0.0000       1.759319        47.8735 
  30   0.0000       1.770346        48.1736 
  31   0.0000       1.770366        48.1741 
  32   0.0000       1.878508        51.1168 
  33   0.0000       1.955011        53.1985 
  34   0.0000       2.006504        54.5997 
  35   0.0000       2.006519        54.6001 
  36   0.0000       2.044459        55.6326 
  37   0.0000       2.044479        55.6331 
  38   0.0000       2.278218        61.9935 
  39   0.0000       2.417999        65.7971 
  40   0.0000       2.418027        65.7979 
  41   0.0000       2.420726        65.8713 
  42   0.0000       2.634146        71.6787 
  43   0.0000       2.634180        71.6797 
  44   0.0000       2.651405        72.1484 
  45   0.0000       2.817494        76.6679 
  46   0.0000       2.817517        76.6685 
  47   0.0000       2.897178        78.8362 
  48   0.0000       2.897216        78.8373 
  49   0.0000       3.131592        85.2150 
  50   0.0000       3.196762        86.9883 
  51   0.0000       3.196780        86.9888 
  52   0.0000       3.354072        91.2689 
  53   0.0000       3.410445        92.8029 
  54   0.0000       3.410507        92.8046 
  55   0.0000       3.600809        97.9830 
  56   0.0000       3.709770       100.9480 
  57   0.0000       3.767523       102.5195 
  58   0.0000       3.767551       102.5203 
  59   0.0000       3.933670       107.0406 
  60   0.0000       3.933720       107.0420 
  61   0.0000       3.969616       108.0188 
  62   0.0000       4.522842       123.0728 
  63   0.0000       4.522937       123.0754 
  64   0.0000       4.718302       128.3915 
  65   0.0000       4.815913       131.0477 
  66   0.0000       5.633673       153.3000 
  67   0.0000       5.645376       153.6185 
  68   0.0000       5.829904       158.6398 
  69   0.0000       5.829927       158.6404 
  70   0.0000       6.264683       170.4707 
  71   0.0000       6.264705       170.4713 
  72   0.0000       6.369219       173.3153 
  73   0.0000       6.809686       185.3010 
  74   0.0000       6.809704       185.3015 
  75   0.0000       7.213896       196.3001 
  76   0.0000       7.213904       196.3003 
  77   0.0000       7.377243       200.7450 
  78   0.0000      22.863720       622.1534 
  79   0.0000      43.959838      1196.2080 

                    ********************************
                    * MULLIKEN POPULATION ANALYSIS *
                    ********************************

-----------------------
MULLIKEN ATOMIC CHARGES
-----------------------
   0 C :   -0.009886
   1 O :   -0.873001
   2 H :   -0.039068
   3 H :   -0.039031
   4 H :   -0.039014
Sum of atomic charges:   -1.0000000

--------------------------------
MULLIKEN REDUCED ORBITAL CHARGES
--------------------------------
  0 C s       :     3.154821  s :     3.154821
      pz      :     0.913006  p :     2.710847
      px      :     0.903539
      py      :     0.894301
      dz2     :     0.030993  d :     0.135662
      dxz     :     0.023635
      dyz     :     0.021381
      dx2y2   :     0.037480
      dxy     :     0.022174
      f0      :     0.000263  f :     0.008557
      f+1     :     0.001116
      f-1     :     0.001709
      f+2     :     0.001566
      f-2     :     0.001601
      f+3     :     0.001278
      f-3     :     0.001025
  1 O s       :     3.850125  s :     3.850125
      pz      :     1.695835  p :     4.997808
      px      :     1.665728
      py      :     1.636245
      dz2     :     0.002983  d :     0.023674
      dxz     :     0.005128
      dyz     :     0.005670
      dx2y2   :     0.003471
      dxy     :     0.006422
      f0      :     0.000147  f :     0.001395
      f+1     :     0.000146
      f-1     :     0.000150
      f+2     :     0.000170
      f-2     :     0.000407
      f+3     :     0.000187
      f-3     :     0.000188
  2 H s       :     1.018455  s :     1.018455
      pz      :     0.009004  p :     0.020614
      px      :     0.005346
      py      :     0.006264
  3 H s       :     1.018416  s :     1.018416
      pz      :     0.004939  p :     0.020614
      px      :     0.006789
      py      :     0.008886
  4 H s       :     1.018396  s :     1.018396
      pz      :     0.007063  p :     0.020618
      px      :     0.008477
      py      :     0.005078


                     *******************************
                     * LOEWDIN POPULATION ANALYSIS *
                     *******************************

----------------------
LOEWDIN ATOMIC CHARGES
----------------------
   0 C :   -0.566862
   1 O :   -0.530337
   2 H :    0.032400
   3 H :    0.032402
   4 H :    0.032396

-------------------------------
LOEWDIN REDUCED ORBITAL CHARGES
-------------------------------
  0 C s       :     2.855483  s :     2.855483
      pz      :     1.032160  p :     3.079603
      px      :     1.026491
      py      :     1.020952
      dz2     :     0.089797  d :     0.563553
      dxz     :     0.128525
      dyz     :     0.115207
      dx2y2   :     0.103241
      dxy     :     0.126783
      f0      :     0.006625  f :     0.068223
      f+1     :     0.008127
      f-1     :     0.012909
      f+2     :     0.010284
      f-2     :     0.009472
      f+3     :     0.011559
      f-3     :     0.009247
  1 O s       :     3.515868  s :     3.515868
      pz      :     1.670933  p :     4.955016
      px      :     1.651546
      py      :     1.632536
      dz2     :     0.008171  d :     0.055412
      dxz     :     0.011408
      dyz     :     0.012394
      dx2y2   :     0.009594
      dxy     :     0.013844
      f0      :     0.000365  f :     0.004042
      f+1     :     0.000490
      f-1     :     0.000494
      f+2     :     0.000583
      f-2     :     0.001000
      f+3     :     0.000531
      f-3     :     0.000579
  2 H s       :     0.906028  s :     0.906028
      pz      :     0.026249  p :     0.061572
      px      :     0.016921
      py      :     0.018402
  3 H s       :     0.906025  s :     0.906025
      pz      :     0.015985  p :     0.061573
      px      :     0.019805
      py      :     0.025783
  4 H s       :     0.906031  s :     0.906031
      pz      :     0.020623  p :     0.061572
      px      :     0.024837
      py      :     0.016112


                      *****************************
                      * MAYER POPULATION ANALYSIS *
                      *****************************

  NA   - Mulliken gross atomic population
  ZA   - Total nuclear charge
  QA   - Mulliken gross atomic charge
  VA   - Mayer's total valence
  BVA  - Mayer's bonded valence
  FA   - Mayer's free valence

  ATOM       NA         ZA         QA         VA         BVA        FA
  0 C      6.0099     6.0000    -0.0099     4.3237     4.3237     0.0000
  1 O      8.8730     8.0000    -0.8730     1.4007     1.4007     0.0000
  2 H      1.0391     1.0000    -0.0391     0.8931     0.8931    -0.0000
  3 H      1.0390     1.0000    -0.0390     0.8932     0.8932     0.0000
  4 H      1.0390     1.0000    -0.0390     0.8932     0.8932    -0.0000

  Mayer bond orders larger than 0.100000
B(  0-C ,  1-O ) :   1.4582 B(  0-C ,  2-H ) :   0.9551 B(  0-C ,  3-H ) :   0.9552 
B(  0-C ,  4-H ) :   0.9552 

-------
TIMINGS
-------

Total SCF time: 0 days 0 hours 0 min 2 sec 

Total time                  ....       2.801 sec
Sum of individual times     ....       2.677 sec  ( 95.6%)

Fock matrix formation       ....       2.404 sec  ( 85.8%)
  Split-RI-J                ....       0.235 sec  (  9.8% of F)
  Chain of spheres X        ....       1.801 sec  ( 74.9% of F)
  XC integration            ....       0.343 sec  ( 14.3% of F)
    Basis function eval.    ....       0.102 sec  ( 29.7% of XC)
    Density eval.           ....       0.056 sec  ( 16.4% of XC)
    XC-Functional eval.     ....       0.064 sec  ( 18.7% of XC)
    XC-Potential eval.      ....       0.071 sec  ( 20.7% of XC)
Diagonalization             ....       0.017 sec  (  0.6%)
Density matrix formation    ....       0.002 sec  (  0.1%)
Population analysis         ....       0.003 sec  (  0.1%)
Initial guess               ....       0.016 sec  (  0.6%)
Orbital Transformation      ....       0.000 sec  (  0.0%)
Orbital Orthonormalization  ....       0.000 sec  (  0.0%)
DIIS solution               ....       0.016 sec  (  0.6%)
SOSCF solution              ....       0.013 sec  (  0.5%)
Grid generation             ....       0.205 sec  (  7.3%)

Maximum memory used throughout the entire SCF-calculation: 59.0 MB


-------------------------------------------------------------------------------
                          DFT DISPERSION CORRECTION                            
                                                                               
                              DFTD3 V3.1  Rev 1                                
                              USING zero damping                               
-------------------------------------------------------------------------------
The omegaB97X-D3 functional is recognized. Fit by Chai et al.
Active option DFTDOPT                   ...         3   

molecular C6(AA) [au] = 170.924158 


            DFT-D V3
 parameters
 s6 scaling factor         :     1.0000 
 rs6 scaling factor        :     1.2810 
 s8 scaling factor         :     1.0000 
 rs8 scaling factor        :     1.0940 
 Damping factor alpha6     :    14.0000 
 Damping factor alpha8     :    16.0000 
 ad hoc parameters k1-k3   :    16.0000     1.3333    -4.0000 

 Edisp/kcal,au: -0.056991247513  -0.000090821324 
 E6   /kcal   :  -0.007357085 
 E8   /kcal   :  -0.049634163 
 % E8         :  87.090851575 

-------------------------   ----------------
Dispersion correction           -0.000090821
-------------------------   ----------------


-------------------------   --------------------
FINAL SINGLE POINT ENERGY      -115.095437150052
-------------------------   --------------------


                            ***************************************
                            *     ORCA property calculations      *
                            ***************************************

                                    ---------------------
                                    Active property flags
                                    ---------------------
   (+) Dipole Moment


------------------------------------------------------------------------------
                       ORCA ELECTRIC PROPERTIES CALCULATION
------------------------------------------------------------------------------

Dipole Moment Calculation                       ... on
Quadrupole Moment Calculation                   ... off
Polarizability Calculation                      ... off
GBWName                                         ... A_neg.gbw
Electron density file                           ... A_neg.scfp
The origin for moment calculation is the CENTER OF MASS  = ( 2.051251,  5.309525 -0.321404)

-------------
DIPOLE MOMENT
-------------
                                X             Y             Z
Electronic contribution:      1.14100      -1.22905       1.04333
Nuclear contribution   :     -1.66672       1.79535      -1.52413
                        -----------------------------------------
Total Dipole Moment    :     -0.52572       0.56630      -0.48080
                        -----------------------------------------
Magnitude (a.u.)       :      0.91008
Magnitude (Debye)      :      2.31323



--------------------
Rotational spectrum 
--------------------
 
Rotational constants in cm-1:     5.477728     0.937442     0.937441 
Rotational constants in MHz : 164218.159175 28103.818547 28103.787504 

 Dipole components along the rotational axes: 
x,y,z [a.u.] :    -0.910077    -0.000050     0.000011 
x,y,z [Debye]:    -2.313233    -0.000127     0.000029 

 

Timings for individual modules:

Sum of individual times         ...        3.677 sec (=   0.061 min)
GTO integral calculation        ...        0.520 sec (=   0.009 min)  14.1 %
SCF iterations                  ...        3.158 sec (=   0.053 min)  85.9 %
                             ****ORCA TERMINATED NORMALLY****
TOTAL RUN TIME: 0 days 0 hours 0 minutes 4 seconds 216 msec
