
                                        *****************
                                        * O   R   C   A *
                                        *****************

                                            #,                                       
                                            ###                                      
                                            ####                                     
                                            #####                                    
                                            ######                                   
                                           ########,                                 
                                     ,,################,,,,,                         
                               ,,#################################,,                 
                          ,,##########################################,,             
                       ,#########################################, ''#####,          
                    ,#############################################,,   '####,        
                  ,##################################################,,,,####,       
                ,###########''''           ''''###############################       
              ,#####''   ,,,,##########,,,,          '''####'''          '####       
            ,##' ,,,,###########################,,,                        '##       
           ' ,,###''''                  '''############,,,                           
         ,,##''                                '''############,,,,        ,,,,,,###''
      ,#''                                            '''#######################'''  
     '                                                          ''''####''''         
             ,#######,   #######,   ,#######,      ##                                
            ,#'     '#,  ##    ##  ,#'     '#,    #''#        ######   ,####,        
            ##       ##  ##   ,#'  ##            #'  '#       #        #'  '#        
            ##       ##  #######   ##           ,######,      #####,   #    #        
            '#,     ,#'  ##    ##  '#,     ,#' ,#      #,         ##   #,  ,#        
             '#######'   ##     ##  '#######'  #'      '#     #####' # '####'        



                  #######################################################
                  #                        -***-                        #
                  #          Department of theory and spectroscopy      #
                  #    Directorship and core code : Frank Neese         #
                  #        Max Planck Institute fuer Kohlenforschung    #
                  #                Kaiser Wilhelm Platz 1               #
                  #                 D-45470 Muelheim/Ruhr               #
                  #                      Germany                        #
                  #                                                     #
                  #                  All rights reserved                #
                  #                        -***-                        #
                  #######################################################


                         Program Version 5.0.0 -  RELEASE  -
                                (SVN: $Rev: 19529$)
                ($Date: 2021-06-28 11:36:33 +0200 (Mo, 28 Jun 2021) $)


 With contributions from (in alphabetic order):
   Daniel Aravena         : Magnetic Suceptibility
   Michael Atanasov       : Ab Initio Ligand Field Theory (pilot matlab implementation)
   Alexander A. Auer      : GIAO ZORA, VPT2 properties, NMR spectrum
   Ute Becker             : Parallelization
   Giovanni Bistoni       : ED, misc. LED, open-shell LED, HFLD
   Martin Brehm           : Molecular dynamics
   Dmytro Bykov           : SCF Hessian
   Vijay G. Chilkuri      : MRCI spin determinant printing, contributions to CSF-ICE
   Dipayan Datta          : RHF DLPNO-CCSD density
   Achintya Kumar Dutta   : EOM-CC, STEOM-CC
   Dmitry Ganyushin       : Spin-Orbit,Spin-Spin,Magnetic field MRCI
   Miquel Garcia          : C-PCM Hessian, Gaussian charge scheme
   Yang Guo               : DLPNO-NEVPT2, F12-NEVPT2, CIM, IAO-localization
   Andreas Hansen         : Spin unrestricted coupled pair/coupled cluster methods
   Benjamin Helmich-Paris : MC-RPA, TRAH-SCF, COSX integrals
   Lee Huntington         : MR-EOM, pCC
   Robert Izsak           : Overlap fitted RIJCOSX, COSX-SCS-MP3, EOM
   Marcus Kettner         : VPT2
   Christian Kollmar      : KDIIS, OOCD, Brueckner-CCSD(T), CCSD density, CASPT2, CASPT2-K
   Simone Kossmann        : Meta GGA functionals, TD-DFT gradient, OOMP2, MP2 Hessian
   Martin Krupicka        : Initial AUTO-CI
   Lucas Lang             : DCDCAS
   Marvin Lechner         : AUTO-CI (C++ implementation), FIC-MRCC
   Dagmar Lenk            : GEPOL surface, SMD
   Dimitrios Liakos       : Extrapolation schemes; Compound Job, initial MDCI parallelization
   Dimitrios Manganas     : Further ROCIS development; embedding schemes
   Dimitrios Pantazis     : SARC Basis sets
   Anastasios Papadopoulos: AUTO-CI, single reference methods and gradients
   Taras Petrenko         : DFT Hessian,TD-DFT gradient, ASA, ECA, R-Raman, ABS, FL, XAS/XES, NRVS
   Peter Pinski           : DLPNO-MP2, DLPNO-MP2 Gradient
   Christoph Reimann      : Effective Core Potentials
   Marius Retegan         : Local ZFS, SOC
   Christoph Riplinger    : Optimizer, TS searches, QM/MM, DLPNO-CCSD(T), (RO)-DLPNO pert. Triples
   Tobias Risthaus        : Range-separated hybrids, TD-DFT gradient, RPA, STAB
   Michael Roemelt        : Original ROCIS implementation
   Masaaki Saitow         : Open-shell DLPNO-CCSD energy and density
   Barbara Sandhoefer     : DKH picture change effects
   Avijit Sen             : IP-ROCIS
   Kantharuban Sivalingam : CASSCF convergence, NEVPT2, FIC-MRCI
   Bernardo de Souza      : ESD, SOC TD-DFT
   Georgi Stoychev        : AutoAux, RI-MP2 NMR
   Willem Van den Heuvel  : Paramagnetic NMR
   Boris Wezisla          : Elementary symmetry handling
   Frank Wennmohs         : Technical directorship


 We gratefully acknowledge several colleagues who have allowed us to
 interface, adapt or use parts of their codes:
   Stefan Grimme, W. Hujo, H. Kruse, P. Pracht,  : VdW corrections, initial TS optimization,
                  C. Bannwarth, S. Ehlert          DFT functionals, gCP, sTDA/sTD-DF
   Ed Valeev, F. Pavosevic, A. Kumar             : LibInt (2-el integral package), F12 methods
   Garnet Chan, S. Sharma, J. Yang, R. Olivares  : DMRG
   Ulf Ekstrom                                   : XCFun DFT Library
   Mihaly Kallay                                 : mrcc  (arbitrary order and MRCC methods)
   Jiri Pittner, Ondrej Demel                    : Mk-CCSD
   Frank Weinhold                                : gennbo (NPA and NBO analysis)
   Christopher J. Cramer and Donald G. Truhlar   : smd solvation model
   Lars Goerigk                                  : TD-DFT with DH, B97 family of functionals
   V. Asgeirsson, H. Jonsson                     : NEB implementation
   FAccTs GmbH                                   : IRC, NEB, NEB-TS, DLPNO-Multilevel, CI-OPT
                                                   MM, QMMM, 2- and 3-layer-ONIOM, Crystal-QMMM,
                                                   LR-CPCM, SF, NACMEs, symmetry and pop. for TD-DFT,
                                                   nearIR, NL-DFT gradient (VV10), updates on ESD,
                                                   ML-optimized integration grids
   S Lehtola, MJT Oliveira, MAL Marques          : LibXC Library
   Liviu Ungur et al                             : ANISO software


 Your calculation uses the libint2 library for the computation of 2-el integrals
 For citations please refer to: http://libint.valeyev.net

 Your ORCA version has been built with support for libXC version: 5.1.0
 For citations please refer to: https://tddft.org/programs/libxc/

 This ORCA versions uses:
   CBLAS   interface :  Fast vector & matrix operations
   LAPACKE interface :  Fast linear algebra routines
   SCALAPACK package :  Parallel linear algebra routines
   Shared memory     :  Shared parallel matrices
   BLAS/LAPACK       :  OpenBLAS 0.3.15  USE64BITINT DYNAMIC_ARCH NO_AFFINITY Haswell SINGLE_THREADED
        Core in use  :  Haswell
   Copyright (c) 2011-2014, The OpenBLAS Project


Your calculation utilizes the atom-pairwise dispersion correction
with the Becke-Johnson damping scheme (D3BJ)
Cite in your paper:
S.Grimme, S.Ehrlich, L.Goerigk, J Comput Chem, (2011), 32, 1456–1465 
S.Grimme, J.Antony, S.Ehrlich and H.Krieg, J.Chem.Phys., 132, (2010), 154104 
   

================================================================================

----- Orbital basis set information -----
Your calculation utilizes the basis: def2-SVP
   F. Weigend and R. Ahlrichs, Phys. Chem. Chem. Phys. 7, 3297 (2005).

----- AuxJ basis set information -----
Your calculation utilizes the auxiliary basis: def2/J
   F. Weigend, Phys. Chem. Chem. Phys. 8, 1057 (2006).

================================================================================
                                        WARNINGS
                       Please study these warnings very carefully!
================================================================================


INFO   : the flag for use of the SHARK integral package has been found!

================================================================================
                                       INPUT FILE
================================================================================
NAME = SVP_B3LYP_C2_wt_dlpno_pos.com
|  1> !B3LYP D3BJ RIJCOSX def2-SVP def2/J TightSCF
|  2> *xyz 0 1 
|  3> C          4.49059        1.15590       -2.46929
|  4> N          4.30539        1.22276       -3.90832
|  5> C          4.63192        2.24637       -4.67096
|  6> C          4.54169        2.14399       -5.98714
|  7> N          5.08409        3.39358       -4.11855
|  8> H          4.92067        3.57050       -3.13587
|  9> H          5.25465        4.19739       -4.70696
| 10> H          3.82453        0.44911       -4.35093
| 11> H          4.34337        1.24932       -6.41665
| 12> H          4.67671        2.95662       -6.57411
| 13> C          5.94213        0.93950       -2.03689
| 14> H          3.86431        0.32853       -2.13661
| 15> H          4.07623        2.04999       -1.98901
| 16> H          6.32982        0.06401       -2.51451
| 17> H          5.98308        0.81426       -0.97504
| 18> H          6.52865        1.78889       -2.31873
| 19> *
| 20> 
| 21> %MaxCore 64000
| 22> 
| 23> %pal nprocs 4
| 24> end  
| 25> 
| 26> %scf
| 27>   MaxIter 150
| 28> end
| 29> 
| 30> 
| 31>                          ****END OF INPUT****
================================================================================

                       ****************************
                       * Single Point Calculation *
                       ****************************

---------------------------------
CARTESIAN COORDINATES (ANGSTROEM)
---------------------------------
  C      4.490590    1.155900   -2.469290
  N      4.305390    1.222760   -3.908320
  C      4.631920    2.246370   -4.670960
  C      4.541690    2.143990   -5.987140
  N      5.084090    3.393580   -4.118550
  H      4.920670    3.570500   -3.135870
  H      5.254650    4.197390   -4.706960
  H      3.824530    0.449110   -4.350930
  H      4.343370    1.249320   -6.416650
  H      4.676710    2.956620   -6.574110
  C      5.942130    0.939500   -2.036890
  H      3.864310    0.328530   -2.136610
  H      4.076230    2.049990   -1.989010
  H      6.329820    0.064010   -2.514510
  H      5.983080    0.814260   -0.975040
  H      6.528650    1.788890   -2.318730

----------------------------
CARTESIAN COORDINATES (A.U.)
----------------------------
  NO LB      ZA    FRAG     MASS         X           Y           Z
   0 C     6.0000    0    12.011    8.485985    2.184334   -4.666282
   1 N     7.0000    0    14.007    8.136008    2.310682   -7.385654
   2 C     6.0000    0    12.011    8.753060    4.245024   -8.826835
   3 C     6.0000    0    12.011    8.582550    4.051554  -11.314055
   4 N     7.0000    0    14.007    9.607538    6.412937   -7.782932
   5 H     1.0000    0     1.008    9.298719    6.747267   -5.925935
   6 H     1.0000    0     1.008    9.929849    7.931918   -8.894865
   7 H     1.0000    0     1.008    7.227314    0.848695   -8.222066
   8 H     1.0000    0     1.008    8.207780    2.360873  -12.125711
   9 H     1.0000    0     1.008    8.837701    5.587202  -12.423267
  10 C     6.0000    0    12.011   11.228998    1.775398   -3.849164
  11 H     1.0000    0     1.008    7.302488    0.620832   -4.037608
  12 H     1.0000    0     1.008    7.702958    3.873920   -3.758684
  13 H     1.0000    0     1.008   11.961626    0.120961   -4.751735
  14 H     1.0000    0     1.008   11.306383    1.538728   -1.842559
  15 H     1.0000    0     1.008   12.337361    3.380512   -4.381765

--------------------------------
INTERNAL COORDINATES (ANGSTROEM)
--------------------------------
 C      0   0   0     0.000000000000     0.00000000     0.00000000
 N      1   0   0     1.452438170973     0.00000000     0.00000000
 C      2   1   0     1.317580753730   125.28453029     0.00000000
 C      3   2   1     1.323235772529   119.91566171   173.18826598
 N      3   2   1     1.351186627043   120.39112332   354.48821383
 H      5   3   2     1.011764184581   119.43884036   342.13850582
 H      5   3   2     1.010656993149   119.58539031   185.29632085
 H      2   1   3     1.012750845075   117.28263783   184.79039578
 H      4   3   2     1.012049441184   120.25788289   351.78722447
 H      4   3   2     1.011499727237   120.39384801   172.23558929
 C      1   2   3     1.529956565266   114.04780337   285.32676705
 H      1   2   3     1.089698920666   105.31614526   163.90058499
 H      1   2   3     1.096248154434   110.38507371    50.41661390
 H     11   1   2     1.070003336724   109.47101574   305.03093902
 H     11   1   2     1.069994104002   109.47140393   185.03055546
 H     11   1   2     1.070001340233   109.47108837    65.03054338

---------------------------
INTERNAL COORDINATES (A.U.)
---------------------------
 C      0   0   0     0.000000000000     0.00000000     0.00000000
 N      1   0   0     2.744710369593     0.00000000     0.00000000
 C      2   1   0     2.489866783875   125.28453029     0.00000000
 C      3   2   1     2.500553220687   119.91566171   173.18826598
 N      3   2   1     2.553372680928   120.39112332   354.48821383
 H      5   3   2     1.911957220967   119.43884036   342.13850582
 H      5   3   2     1.909864932383   119.58539031   185.29632085
 H      2   1   3     1.913821739089   117.28263783   184.79039578
 H      4   3   2     1.912496277825   120.25788289   351.78722447
 H      4   3   2     1.911457469013   120.39384801   172.23558929
 C      1   2   3     2.891198905147   114.04780337   285.32676705
 H      1   2   3     2.059232528488   105.31614526   163.90058499
 H      1   2   3     2.071608786697   110.38507371    50.41661390
 H     11   1   2     2.022013268790   109.47101574   305.03093902
 H     11   1   2     2.021995821475   109.47140393   185.03055546
 H     11   1   2     2.022009495969   109.47108837    65.03054338

---------------------
BASIS SET INFORMATION
---------------------
There are 3 groups of distinct atoms

 Group   1 Type C   : 7s4p1d contracted to 3s2p1d pattern {511/31/1}
 Group   2 Type N   : 7s4p1d contracted to 3s2p1d pattern {511/31/1}
 Group   3 Type H   : 4s1p contracted to 2s1p pattern {31/1}

Atom   0C    basis set group =>   1
Atom   1N    basis set group =>   2
Atom   2C    basis set group =>   1
Atom   3C    basis set group =>   1
Atom   4N    basis set group =>   2
Atom   5H    basis set group =>   3
Atom   6H    basis set group =>   3
Atom   7H    basis set group =>   3
Atom   8H    basis set group =>   3
Atom   9H    basis set group =>   3
Atom  10C    basis set group =>   1
Atom  11H    basis set group =>   3
Atom  12H    basis set group =>   3
Atom  13H    basis set group =>   3
Atom  14H    basis set group =>   3
Atom  15H    basis set group =>   3
---------------------------------
AUXILIARY/J BASIS SET INFORMATION
---------------------------------
There are 3 groups of distinct atoms

 Group   1 Type C   : 12s5p4d2f1g contracted to 6s4p3d1f1g pattern {711111/2111/211/2/1}
 Group   2 Type N   : 12s5p4d2f1g contracted to 6s4p3d1f1g pattern {711111/2111/211/2/1}
 Group   3 Type H   : 5s2p1d contracted to 3s1p1d pattern {311/2/1}

Atom   0C    basis set group =>   1
Atom   1N    basis set group =>   2
Atom   2C    basis set group =>   1
Atom   3C    basis set group =>   1
Atom   4N    basis set group =>   2
Atom   5H    basis set group =>   3
Atom   6H    basis set group =>   3
Atom   7H    basis set group =>   3
Atom   8H    basis set group =>   3
Atom   9H    basis set group =>   3
Atom  10C    basis set group =>   1
Atom  11H    basis set group =>   3
Atom  12H    basis set group =>   3
Atom  13H    basis set group =>   3
Atom  14H    basis set group =>   3
Atom  15H    basis set group =>   3


           ************************************************************
           *        Program running with 4 parallel MPI-processes     *
           *              working on a common directory               *
           ************************************************************
------------------------------------------------------------------------------
                           ORCA GTO INTEGRAL CALCULATION
                           -- RI-GTO INTEGRALS CHOSEN --
------------------------------------------------------------------------------
------------------------------------------------------------------------------
                   ___                                                        
                  /   \      - P O W E R E D   B Y -                         
                 /     \                                                     
                 |  |  |   _    _      __       _____    __    __             
                 |  |  |  | |  | |    /  \     |  _  \  |  |  /  |          
                  \  \/   | |  | |   /    \    | | | |  |  | /  /          
                 / \  \   | |__| |  /  /\  \   | |_| |  |  |/  /          
                |  |  |   |  __  | /  /__\  \  |    /   |      \           
                |  |  |   | |  | | |   __   |  |    \   |  |\   \          
                \     /   | |  | | |  |  |  |  | |\  \  |  | \   \       
                 \___/    |_|  |_| |__|  |__|  |_| \__\ |__|  \__/        
                                                                              
                      - O R C A' S   B I G   F R I E N D -                    
                                      &                                       
                       - I N T E G R A L  F E E D E R -                       
                                                                              
 v1 FN, 2020, v2 2021                                                         
------------------------------------------------------------------------------


Reading SHARK input file SVP_B3LYP_C2_wt_dlpno_pos.SHARKINP.tmp ... ok
----------------------
SHARK INTEGRAL PACKAGE
----------------------

Number of atoms                             ...     16
Number of basis functions                   ...    134
Number of shells                            ...     66
Maximum angular momentum                    ...      2
Integral batch strategy                     ... SHARK/LIBINT Hybrid
RI-J (if used) integral strategy            ... SPLIT-RIJ (Revised 2003 algorithm where possible)
Printlevel                                  ...      1
Contraction scheme used                     ... SEGMENTED contraction
Coulomb Range Separation                    ... NOT USED
Exchange Range Separation                   ... NOT USED
Finite Nucleus Model                        ... NOT USED
Auxiliary Coulomb fitting basis             ... AVAILABLE
   # of basis functions in Aux-J            ...    404
   # of shells in Aux-J                     ...    140
   Maximum angular momentum in Aux-J        ...      4
Auxiliary J/K fitting basis                 ... NOT available
Auxiliary Correlation fitting basis         ... NOT available
Auxiliary 'external' fitting basis          ... NOT available
Integral threshold                          ...     2.500000e-11
Primitive cut-off                           ...     2.500000e-12
Primitive pair pre-selection threshold      ...     2.500000e-12

Calculating pre-screening integrals         ... done (  0.0 sec) Dimension = 66
Organizing shell pair data                  ... done (  0.0 sec)
Shell pair information
Total number of shell pairs                 ...      2211
Shell pairs after pre-screening             ...      2147
Total number of primitive shell pairs       ...      7611
Primitive shell pairs kept                  ...      5727
          la=0 lb=0:    722 shell pairs
          la=1 lb=0:    811 shell pairs
          la=1 lb=1:    241 shell pairs
          la=2 lb=0:    222 shell pairs
          la=2 lb=1:    130 shell pairs
          la=2 lb=2:     21 shell pairs

Calculating one electron integrals          ... done (  0.0 sec)
Calculating RI/J V-Matrix + Cholesky decomp.... done (  0.0 sec)
Calculating Nuclear repulsion               ... done (  0.0 sec) ENN=    250.563393314476 Eh

SHARK setup successfully completed in   0.1 seconds

Maximum memory used throughout the entire GTOINT-calculation: 8.9 MB


           ************************************************************
           *        Program running with 4 parallel MPI-processes     *
           *              working on a common directory               *
           ************************************************************
-------------------------------------------------------------------------------
                                 ORCA SCF
-------------------------------------------------------------------------------

------------
SCF SETTINGS
------------
Hamiltonian:
 Density Functional     Method          .... DFT(GTOs)
 Exchange Functional    Exchange        .... B88
   X-Alpha parameter    XAlpha          ....  0.666667
   Becke's b parameter  XBeta           ....  0.004200
 Correlation Functional Correlation     .... LYP
 LDA part of GGA corr.  LDAOpt          .... VWN-5
 Gradients option       PostSCFGGA      .... off
 Hybrid DFT is turned on
   Fraction HF Exchange ScalHFX         ....  0.200000
   Scaling of DF-GGA-X  ScalDFX         ....  0.720000
   Scaling of DF-GGA-C  ScalDFC         ....  0.810000
   Scaling of DF-LDA-C  ScalLDAC        ....  1.000000
   Perturbative correction              ....  0.000000
   Density functional embedding theory  .... OFF
   NL short-range parameter             ....  4.800000
 RI-approximation to the Coulomb term is turned on
   Number of AuxJ basis functions       .... 404
   RIJ-COSX (HFX calculated with COS-X)).... on


General Settings:
 Integral files         IntName         .... SVP_B3LYP_C2_wt_dlpno_pos
 Hartree-Fock type      HFTyp           .... RHF
 Total Charge           Charge          ....    0
 Multiplicity           Mult            ....    1
 Number of Electrons    NEL             ....   48
 Basis Dimension        Dim             ....  134
 Nuclear Repulsion      ENuc            ....    250.5633933145 Eh

Convergence Acceleration:
 DIIS                   CNVDIIS         .... on
   Start iteration      DIISMaxIt       ....    12
   Startup error        DIISStart       ....  0.200000
   # of expansion vecs  DIISMaxEq       ....     5
   Bias factor          DIISBfac        ....   1.050
   Max. coefficient     DIISMaxC        ....  10.000
 Trust-Rad. Augm. Hess. CNVTRAH         .... auto
   Auto Start mean grad. ratio tolernc. ....  1.125000
   Auto Start start iteration           ....    20
   Auto Start num. interpolation iter.  ....    10
   Max. Number of Micro iterations      ....    16
   Max. Number of Macro iterations      .... Maxiter - #DIIS iter
   Number of Davidson start vectors     ....     2
   Converg. threshold I  (grad. norm)   ....   1.000e-05
   Converg. threshold II (energy diff.) ....   1.000e-08
   Grad. Scal. Fac. for Micro threshold ....   0.100
   Minimum threshold for Micro iter.    ....   0.010
   NR start threshold (gradient norm)   ....   0.001
   Initial trust radius                 ....   0.400
   Minimum AH scaling param. (alpha)    ....   1.000
   Maximum AH scaling param. (alpha)    .... 1000.000
   Orbital update algorithm             .... Taylor
   White noise on init. David. guess    .... on
   Maximum white noise                  ....   0.010
   Quad. conv. algorithm                .... NR
 SOSCF                  CNVSOSCF        .... on
   Start iteration      SOSCFMaxIt      ....   150
   Startup grad/error   SOSCFStart      ....  0.003300
 Level Shifting         CNVShift        .... on
   Level shift para.    LevelShift      ....    0.2500
   Turn off err/grad.   ShiftErr        ....    0.0010
 Zerner damping         CNVZerner       .... off
 Static damping         CNVDamp         .... on
   Fraction old density DampFac         ....    0.7000
   Max. Damping (<1)    DampMax         ....    0.9800
   Min. Damping (>=0)   DampMin         ....    0.0000
   Turn off err/grad.   DampErr         ....    0.1000
 Fernandez-Rico         CNVRico         .... off

SCF Procedure:
 Maximum # iterations   MaxIter         ....   150
 SCF integral mode      SCFMode         .... Direct
   Integral package                     .... SHARK and LIBINT hybrid scheme
 Reset frequency        DirectResetFreq ....    20
 Integral Threshold     Thresh          ....  2.500e-11 Eh
 Primitive CutOff       TCut            ....  2.500e-12 Eh

Convergence Tolerance:
 Convergence Check Mode ConvCheckMode   .... Total+1el-Energy
 Convergence forced     ConvForced      .... 0
 Energy Change          TolE            ....  1.000e-08 Eh
 1-El. energy change                    ....  1.000e-05 Eh
 Orbital Gradient       TolG            ....  1.000e-05
 Orbital Rotation angle TolX            ....  1.000e-05
 DIIS Error             TolErr          ....  5.000e-07


Diagonalization of the overlap matrix:
Smallest eigenvalue                        ... 1.677e-03
Time for diagonalization                   ...    0.005 sec
Threshold for overlap eigenvalues          ... 1.000e-08
Number of eigenvalues below threshold      ... 0
Time for construction of square roots      ...    0.004 sec
Total time needed                          ...    0.009 sec

Time for model grid setup =    0.079 sec

------------------------------
INITIAL GUESS: MODEL POTENTIAL
------------------------------
Loading Hartree-Fock densities                     ... done
Calculating cut-offs                               ... done
Initializing the effective Hamiltonian             ... done
Setting up the integral package (SHARK)            ... done
Starting the Coulomb interaction                   ... done (   0.0 sec)
Reading the grid                                   ... done
Mapping shells                                     ... done
Starting the XC term evaluation                    ... done (   0.1 sec)
  promolecular density results
     # of electrons  =     47.995829168
     EX              =    -36.784660414
     EC              =     -1.577162839
     EX+EC           =    -38.361823253
Transforming the Hamiltonian                       ... done (   0.0 sec)
Diagonalizing the Hamiltonian                      ... done (   0.0 sec)
Back transforming the eigenvectors                 ... done (   0.0 sec)
Now organizing SCF variables                       ... done
                      ------------------
                      INITIAL GUESS DONE (   0.2 sec)
                      ------------------
-------------------
DFT GRID GENERATION
-------------------

General Integration Accuracy     IntAcc      ... 4.388
Radial Grid Type                 RadialGrid  ... OptM3 with GC (2021)
Angular Grid (max. ang.)         AngularGrid ... 4 (Lebedev-302)
Angular grid pruning method      GridPruning ... 4 (adaptive)
Weight generation scheme         WeightScheme... Becke
Basis function cutoff            BFCut       ... 1.0000e-11
Integration weight cutoff        WCut        ... 1.0000e-14
Angular grids for H and He will be reduced by one unit
Partially contracted basis set               ... off
Rotationally invariant grid construction     ... off

Total number of grid points                  ...    68321
Total number of batches                      ...     1075
Average number of points per batch           ...       63
Average number of grid points per atom       ...     4270
Time for grid setup =    0.386 sec

--------------------
COSX GRID GENERATION
--------------------

GRIDX 1
-------
General Integration Accuracy     IntAcc      ... 3.816
Radial Grid Type                 RadialGrid  ... OptM3 with GC (2021)
Angular Grid (max. ang.)         AngularGrid ... 1 (Lebedev-50)
Angular grid pruning method      GridPruning ... 4 (adaptive)
Weight generation scheme         WeightScheme... Becke
Basis function cutoff            BFCut       ... 1.0000e-11
Integration weight cutoff        WCut        ... 1.0000e-14
Angular grids for H and He will be reduced by one unit
Partially contracted basis set               ... on
Rotationally invariant grid construction     ... off

Total number of grid points                  ...     8792
Total number of batches                      ...      147
Average number of points per batch           ...       59
Average number of grid points per atom       ...      550
UseSFitting                                  ... on

GRIDX 2
-------
General Integration Accuracy     IntAcc      ... 4.020
Radial Grid Type                 RadialGrid  ... OptM3 with GC (2021)
Angular Grid (max. ang.)         AngularGrid ... 2 (Lebedev-110)
Angular grid pruning method      GridPruning ... 4 (adaptive)
Weight generation scheme         WeightScheme... Becke
Basis function cutoff            BFCut       ... 1.0000e-11
Integration weight cutoff        WCut        ... 1.0000e-14
Angular grids for H and He will be reduced by one unit
Partially contracted basis set               ... on
Rotationally invariant grid construction     ... off

Total number of grid points                  ...    18442
Total number of batches                      ...      297
Average number of points per batch           ...       62
Average number of grid points per atom       ...     1153
UseSFitting                                  ... on

GRIDX 3
-------
General Integration Accuracy     IntAcc      ... 4.338
Radial Grid Type                 RadialGrid  ... OptM3 with GC (2021)
Angular Grid (max. ang.)         AngularGrid ... 3 (Lebedev-194)
Angular grid pruning method      GridPruning ... 4 (adaptive)
Weight generation scheme         WeightScheme... Becke
Basis function cutoff            BFCut       ... 1.0000e-11
Integration weight cutoff        WCut        ... 1.0000e-14
Angular grids for H and He will be reduced by one unit
Partially contracted basis set               ... on
Rotationally invariant grid construction     ... off

Total number of grid points                  ...    40323
Total number of batches                      ...      637
Average number of points per batch           ...       63
Average number of grid points per atom       ...     2520
UseSFitting                                  ... on

Time for X-Grid setup             =    0.305 sec

--------------
SCF ITERATIONS
--------------
ITER       Energy         Delta-E        Max-DP      RMS-DP      [F,P]     Damp
               ***  Starting incremental Fock matrix formation  ***
  0   -267.2420580715   0.000000000000 0.10672030  0.00320669  0.2418671 0.7000
  1   -267.3763979712  -0.134339899730 0.07803893  0.00232205  0.1279996 0.7000
                               ***Turning on DIIS***
  2   -267.4323397413  -0.055941770063 0.13669944  0.00393359  0.0503256 0.0000
  3   -267.5090549287  -0.076715187480 0.04723159  0.00157477  0.0763316 0.0000
  4   -267.5316098871  -0.022554958306 0.01480943  0.00050698  0.0174132 0.0000
  5   -267.5328140011  -0.001204114051 0.00657122  0.00019602  0.0051639 0.0000
                      *** Initiating the SOSCF procedure ***
                           *** Shutting down DIIS ***
                      *** Re-Reading the Fockian *** 
                      *** Removing any level shift *** 
ITER      Energy       Delta-E        Grad      Rot      Max-DP    RMS-DP
  6   -267.53290845  -0.0000944495  0.000450  0.000450  0.003038  0.000079
               *** Restarting incremental Fock matrix formation ***
  7   -267.53290650   0.0000019542  0.000204  0.000862  0.002789  0.000065
  8   -267.53290753  -0.0000010381  0.000079  0.000146  0.000432  0.000012
  9   -267.53290767  -0.0000001354  0.000040  0.000109  0.000316  0.000008
 10   -267.53290773  -0.0000000576  0.000010  0.000033  0.000043  0.000001
 11   -267.53290773   0.0000000025  0.000013  0.000019  0.000031  0.000001
                  ***Gradient check signals convergence***
              ***Rediagonalizing the Fockian in SOSCF/NRSCF***

               *****************************************************
               *                     SUCCESS                       *
               *           SCF CONVERGED AFTER  12 CYCLES          *
               *****************************************************

Old exchange energy                            =     -7.530146875 Eh
New exchange energy                            =     -7.530144548 Eh
Exchange energy change after final integration =      0.000002328 Eh
Total energy after final integration           =   -267.532905400 Eh
Final COS-X integration done in                =     1.205 sec

----------------
TOTAL SCF ENERGY
----------------

Total Energy       :         -267.53290540 Eh           -7279.94046 eV

Components:
Nuclear Repulsion  :          250.56339331 Eh            6818.17656 eV
Electronic Energy  :         -518.09629871 Eh          -14098.11702 eV
One Electron Energy:         -856.67921615 Eh          -23311.42660 eV
Two Electron Energy:          338.58291743 Eh            9213.30958 eV
Max COSX asymmetry :            0.00000283 Eh               0.00008 eV

Virial components:
Potential Energy   :         -532.85399725 Eh          -14499.69442 eV
Kinetic Energy     :          265.32109185 Eh            7219.75395 eV
Virial Ratio       :            2.00833637


DFT components:
N(Alpha)           :       23.999965459027 electrons
N(Beta)            :       23.999965459027 electrons
N(Total)           :       47.999930918054 electrons
E(X)               :      -29.862024824296 Eh       
E(C)               :       -1.869112585227 Eh       
E(XC)              :      -31.731137409523 Eh       
DFET-embed. en.    :        0.000000000000 Eh       

---------------
SCF CONVERGENCE
---------------

  Last Energy change         ...   -2.7142e-09  Tolerance :   1.0000e-08
  Last MAX-Density change    ...    3.1086e-15  Tolerance :   1.0000e-07
  Last RMS-Density change    ...    5.1021e-17  Tolerance :   5.0000e-09
  Last Orbital Gradient      ...    1.2651e-06  Tolerance :   1.0000e-05
  Last Orbital Rotation      ...    1.6494e-06  Tolerance :   1.0000e-05

             **** THE GBW FILE WAS UPDATED (SVP_B3LYP_C2_wt_dlpno_pos.gbw) ****
             **** DENSITY SVP_B3LYP_C2_wt_dlpno_pos.scfp WAS UPDATED ****
             **** ENERGY FILE WAS UPDATED (SVP_B3LYP_C2_wt_dlpno_pos.en.tmp) ****
             **** THE GBW FILE WAS UPDATED (SVP_B3LYP_C2_wt_dlpno_pos.gbw) ****
             **** DENSITY SVP_B3LYP_C2_wt_dlpno_pos.scfp WAS UPDATED ****
----------------
ORBITAL ENERGIES
----------------

  NO   OCC          E(Eh)            E(eV) 
   0   2.0000     -14.319020      -389.6404 
   1   2.0000     -14.318725      -389.6323 
   2   2.0000     -10.219784      -278.0945 
   3   2.0000     -10.217479      -278.0317 
   4   2.0000     -10.169660      -276.7305 
   5   2.0000     -10.087009      -274.4815 
   6   2.0000      -0.949751       -25.8440 
   7   2.0000      -0.863430       -23.4951 
   8   2.0000      -0.757464       -20.6117 
   9   2.0000      -0.686990       -18.6939 
  10   2.0000      -0.619299       -16.8520 
  11   2.0000      -0.587150       -15.9772 
  12   2.0000      -0.526085       -14.3155 
  13   2.0000      -0.490035       -13.3345 
  14   2.0000      -0.473508       -12.8848 
  15   2.0000      -0.441794       -12.0218 
  16   2.0000      -0.416960       -11.3461 
  17   2.0000      -0.395584       -10.7644 
  18   2.0000      -0.374548       -10.1920 
  19   2.0000      -0.369043       -10.0422 
  20   2.0000      -0.353867        -9.6292 
  21   2.0000      -0.346491        -9.4285 
  22   2.0000      -0.244200        -6.6450 
  23   2.0000      -0.151083        -4.1112 
  24   0.0000       0.043953         1.1960 
  25   0.0000       0.069231         1.8839 
  26   0.0000       0.085617         2.3298 
  27   0.0000       0.102774         2.7966 
  28   0.0000       0.113553         3.0899 
  29   0.0000       0.125842         3.4243 
  30   0.0000       0.140119         3.8128 
  31   0.0000       0.157446         4.2843 
  32   0.0000       0.170611         4.6426 
  33   0.0000       0.172490         4.6937 
  34   0.0000       0.183120         4.9830 
  35   0.0000       0.222910         6.0657 
  36   0.0000       0.238623         6.4933 
  37   0.0000       0.300419         8.1748 
  38   0.0000       0.350731         9.5439 
  39   0.0000       0.387785        10.5522 
  40   0.0000       0.416790        11.3414 
  41   0.0000       0.423832        11.5331 
  42   0.0000       0.456299        12.4165 
  43   0.0000       0.465729        12.6731 
  44   0.0000       0.478238        13.0135 
  45   0.0000       0.505244        13.7484 
  46   0.0000       0.528237        14.3741 
  47   0.0000       0.565067        15.3763 
  48   0.0000       0.568758        15.4767 
  49   0.0000       0.595633        16.2080 
  50   0.0000       0.616810        16.7843 
  51   0.0000       0.645785        17.5727 
  52   0.0000       0.647437        17.6177 
  53   0.0000       0.666815        18.1450 
  54   0.0000       0.678868        18.4729 
  55   0.0000       0.690878        18.7997 
  56   0.0000       0.703502        19.1433 
  57   0.0000       0.717371        19.5207 
  58   0.0000       0.734667        19.9913 
  59   0.0000       0.743276        20.2256 
  60   0.0000       0.764559        20.8047 
  61   0.0000       0.768849        20.9214 
  62   0.0000       0.823088        22.3974 
  63   0.0000       0.835161        22.7259 
  64   0.0000       0.866762        23.5858 
  65   0.0000       0.892428        24.2842 
  66   0.0000       0.916099        24.9283 
  67   0.0000       0.958074        26.0705 
  68   0.0000       0.974608        26.5204 
  69   0.0000       1.067997        29.0617 
  70   0.0000       1.093833        29.7647 
  71   0.0000       1.148671        31.2569 
  72   0.0000       1.214523        33.0489 
  73   0.0000       1.240978        33.7687 
  74   0.0000       1.263292        34.3759 
  75   0.0000       1.301529        35.4164 
  76   0.0000       1.326789        36.1038 
  77   0.0000       1.377821        37.4924 
  78   0.0000       1.415267        38.5114 
  79   0.0000       1.449444        39.4414 
  80   0.0000       1.461661        39.7738 
  81   0.0000       1.533749        41.7354 
  82   0.0000       1.578474        42.9525 
  83   0.0000       1.680376        45.7254 
  84   0.0000       1.702226        46.3199 
  85   0.0000       1.723235        46.8916 
  86   0.0000       1.745509        47.4977 
  87   0.0000       1.752898        47.6988 
  88   0.0000       1.788683        48.6725 
  89   0.0000       1.793826        48.8125 
  90   0.0000       1.812383        49.3174 
  91   0.0000       1.835275        49.9404 
  92   0.0000       1.853446        50.4348 
  93   0.0000       1.878001        51.1030 
  94   0.0000       1.890317        51.4381 
  95   0.0000       1.893218        51.5171 
  96   0.0000       1.902545        51.7709 
  97   0.0000       1.916519        52.1511 
  98   0.0000       1.952176        53.1214 
  99   0.0000       1.977283        53.8046 
 100   0.0000       2.014000        54.8037 
 101   0.0000       2.044709        55.6394 
 102   0.0000       2.104562        57.2680 
 103   0.0000       2.147294        58.4308 
 104   0.0000       2.210373        60.1473 
 105   0.0000       2.231459        60.7211 
 106   0.0000       2.279324        62.0236 
 107   0.0000       2.303548        62.6827 
 108   0.0000       2.352202        64.0067 
 109   0.0000       2.359425        64.2032 
 110   0.0000       2.396813        65.2206 
 111   0.0000       2.416677        65.7611 
 112   0.0000       2.461464        66.9798 
 113   0.0000       2.481659        67.5294 
 114   0.0000       2.551656        69.4341 
 115   0.0000       2.571442        69.9725 
 116   0.0000       2.635226        71.7081 
 117   0.0000       2.657266        72.3079 
 118   0.0000       2.739955        74.5580 
 119   0.0000       2.773752        75.4776 
 120   0.0000       2.825150        76.8762 
 121   0.0000       2.907266        79.1107 
 122   0.0000       2.926930        79.6458 
 123   0.0000       2.948550        80.2341 
 124   0.0000       2.970369        80.8278 
 125   0.0000       3.005783        81.7915 
 126   0.0000       3.043596        82.8205 
 127   0.0000       3.071809        83.5882 
 128   0.0000       3.086154        83.9785 
 129   0.0000       3.170309        86.2685 
 130   0.0000       3.220274        87.6281 
 131   0.0000       3.274049        89.0914 
 132   0.0000       3.637907        98.9925 
 133   0.0000       3.680695       100.1568 

                    ********************************
                    * MULLIKEN POPULATION ANALYSIS *
                    ********************************

-----------------------
MULLIKEN ATOMIC CHARGES
-----------------------
   0 C :    0.068147
   1 N :   -0.115946
   2 C :   -0.041709
   3 C :   -0.051801
   4 N :   -0.078029
   5 H :    0.095667
   6 H :    0.112510
   7 H :    0.113561
   8 H :   -0.078995
   9 H :   -0.079352
  10 C :    0.063806
  11 H :   -0.004958
  12 H :   -0.006563
  13 H :    0.004837
  14 H :   -0.003039
  15 H :    0.001865
Sum of atomic charges:   -0.0000000

--------------------------------
MULLIKEN REDUCED ORBITAL CHARGES
--------------------------------
  0 C s       :     2.998262  s :     2.998262
      pz      :     0.838418  p :     2.880795
      px      :     1.023265
      py      :     1.019112
      dz2     :     0.015907  d :     0.052796
      dxz     :     0.013316
      dyz     :     0.008329
      dx2y2   :     0.005952
      dxy     :     0.009290
  1 N s       :     3.293399  s :     3.293399
      pz      :     1.053703  p :     3.800359
      px      :     1.585445
      py      :     1.161211
      dz2     :     0.005526  d :     0.022188
      dxz     :     0.004194
      dyz     :     0.007440
      dx2y2   :     0.002149
      dxy     :     0.002881
  2 C s       :     2.990574  s :     2.990574
      pz      :     1.008352  p :     2.957590
      px      :     0.946682
      py      :     1.002556
      dz2     :     0.014598  d :     0.093545
      dxz     :     0.022428
      dyz     :     0.025237
      dx2y2   :     0.015962
      dxy     :     0.015322
  3 C s       :     2.993277  s :     2.993277
      pz      :     0.926404  p :     3.033379
      px      :     1.326462
      py      :     0.780513
      dz2     :     0.008352  d :     0.025145
      dxz     :     0.004744
      dyz     :     0.008836
      dx2y2   :     0.002607
      dxy     :     0.000606
  4 N s       :     3.273348  s :     3.273348
      pz      :     1.001819  p :     3.788554
      px      :     1.694417
      py      :     1.092318
      dz2     :     0.003892  d :     0.016126
      dxz     :     0.001636
      dyz     :     0.005076
      dx2y2   :     0.002912
      dxy     :     0.002611
  5 H s       :     0.858061  s :     0.858061
      pz      :     0.023377  p :     0.046272
      px      :     0.014012
      py      :     0.008884
  6 H s       :     0.842218  s :     0.842218
      pz      :     0.013629  p :     0.045271
      px      :     0.013530
      py      :     0.018112
  7 H s       :     0.841558  s :     0.841558
      pz      :     0.010265  p :     0.044882
      px      :     0.016068
      py      :     0.018548
  8 H s       :     1.049054  s :     1.049054
      pz      :     0.007405  p :     0.029940
      px      :     0.009263
      py      :     0.013273
  9 H s       :     1.049444  s :     1.049444
      pz      :     0.008939  p :     0.029908
      px      :     0.009134
      py      :     0.011835
 10 C s       :     2.933531  s :     2.933531
      pz      :     0.974708  p :     2.973413
      px      :     0.979352
      py      :     1.019353
      dz2     :     0.008821  d :     0.029251
      dxz     :     0.003077
      dyz     :     0.003589
      dx2y2   :     0.005440
      dxy     :     0.008324
 11 H s       :     0.983246  s :     0.983246
      pz      :     0.003897  p :     0.021712
      px      :     0.007496
      py      :     0.010320
 12 H s       :     0.984958  s :     0.984958
      pz      :     0.004865  p :     0.021606
      px      :     0.005952
      py      :     0.010789
 13 H s       :     0.970745  s :     0.970745
      pz      :     0.007232  p :     0.024417
      px      :     0.005694
      py      :     0.011491
 14 H s       :     0.978382  s :     0.978382
      pz      :     0.014431  p :     0.024657
      px      :     0.004665
      py      :     0.005561
 15 H s       :     0.973041  s :     0.973041
      pz      :     0.006232  p :     0.025095
      px      :     0.007641
      py      :     0.011222


                     *******************************
                     * LOEWDIN POPULATION ANALYSIS *
                     *******************************

----------------------
LOEWDIN ATOMIC CHARGES
----------------------
   0 C :    0.032792
   1 N :   -0.021043
   2 C :    0.034872
   3 C :   -0.247041
   4 N :   -0.025673
   5 H :    0.059750
   6 H :    0.080478
   7 H :    0.083368
   8 H :   -0.012510
   9 H :   -0.012704
  10 C :   -0.055762
  11 H :    0.021413
  12 H :    0.006292
  13 H :    0.020717
  14 H :    0.018466
  15 H :    0.016586

-------------------------------
LOEWDIN REDUCED ORBITAL CHARGES
-------------------------------
  0 C s       :     2.826469  s :     2.826469
      pz      :     0.902029  p :     3.018101
      px      :     1.047871
      py      :     1.068200
      dz2     :     0.037195  d :     0.122639
      dxz     :     0.029800
      dyz     :     0.018670
      dx2y2   :     0.016183
      dxy     :     0.020792
  1 N s       :     3.018292  s :     3.018292
      pz      :     1.146494  p :     3.945915
      px      :     1.552452
      py      :     1.246968
      dz2     :     0.015767  d :     0.056837
      dxz     :     0.009274
      dyz     :     0.019683
      dx2y2   :     0.005225
      dxy     :     0.006887
  2 C s       :     2.792894  s :     2.792894
      pz      :     1.079182  p :     2.953091
      px      :     0.935989
      py      :     0.937920
      dz2     :     0.036676  d :     0.219143
      dxz     :     0.049774
      dyz     :     0.062936
      dx2y2   :     0.035591
      dxy     :     0.034166
  3 C s       :     2.814742  s :     2.814742
      pz      :     1.024640  p :     3.358867
      px      :     1.284987
      py      :     1.049240
      dz2     :     0.025039  d :     0.073431
      dxz     :     0.010244
      dyz     :     0.028220
      dx2y2   :     0.008272
      dxy     :     0.001656
  4 N s       :     3.019327  s :     3.019327
      pz      :     1.138976  p :     3.962766
      px      :     1.644669
      py      :     1.179121
      dz2     :     0.012127  d :     0.043580
      dxz     :     0.003515
      dyz     :     0.015844
      dx2y2   :     0.006437
      dxy     :     0.005657
  5 H s       :     0.813496  s :     0.813496
      pz      :     0.062284  p :     0.126753
      px      :     0.043932
      py      :     0.020537
  6 H s       :     0.797709  s :     0.797709
      pz      :     0.032829  p :     0.121813
      px      :     0.041460
      py      :     0.047525
  7 H s       :     0.793569  s :     0.793569
      pz      :     0.026866  p :     0.123063
      px      :     0.047184
      py      :     0.049013
  8 H s       :     0.924101  s :     0.924101
      pz      :     0.019867  p :     0.088409
      px      :     0.032777
      py      :     0.035765
  9 H s       :     0.924249  s :     0.924249
      pz      :     0.024079  p :     0.088454
      px      :     0.032206
      py      :     0.032170
 10 C s       :     2.825721  s :     2.825721
      pz      :     1.056066  p :     3.155767
      px      :     1.027756
      py      :     1.071945
      dz2     :     0.022514  d :     0.074273
      dxz     :     0.008257
      dyz     :     0.009047
      dx2y2   :     0.015118
      dxy     :     0.019337
 11 H s       :     0.914204  s :     0.914204
      pz      :     0.012957  p :     0.064383
      px      :     0.022632
      py      :     0.028794
 12 H s       :     0.928447  s :     0.928447
      pz      :     0.016476  p :     0.065261
      px      :     0.017757
      py      :     0.031028
 13 H s       :     0.909845  s :     0.909845
      pz      :     0.019031  p :     0.069438
      px      :     0.018487
      py      :     0.031920
 14 H s       :     0.911905  s :     0.911905
      pz      :     0.040553  p :     0.069628
      px      :     0.014801
      py      :     0.014275
 15 H s       :     0.912706  s :     0.912706
      pz      :     0.015782  p :     0.070708
      px      :     0.023484
      py      :     0.031442


                      *****************************
                      * MAYER POPULATION ANALYSIS *
                      *****************************

  NA   - Mulliken gross atomic population
  ZA   - Total nuclear charge
  QA   - Mulliken gross atomic charge
  VA   - Mayer's total valence
  BVA  - Mayer's bonded valence
  FA   - Mayer's free valence

  ATOM       NA         ZA         QA         VA         BVA        FA
  0 C      5.9319     6.0000     0.0681     4.1258     4.1258    -0.0000
  1 N      7.1159     7.0000    -0.1159     3.2179     3.2179     0.0000
  2 C      6.0417     6.0000    -0.0417     4.4606     4.4606    -0.0000
  3 C      6.0518     6.0000    -0.0518     3.7086     3.7086     0.0000
  4 N      7.0780     7.0000    -0.0780     3.1804     3.1804    -0.0000
  5 H      0.9043     1.0000     0.0957     1.0132     1.0132    -0.0000
  6 H      0.8875     1.0000     0.1125     1.0035     1.0035    -0.0000
  7 H      0.8864     1.0000     0.1136     1.0003     1.0003     0.0000
  8 H      1.0790     1.0000    -0.0790     0.9850     0.9850    -0.0000
  9 H      1.0794     1.0000    -0.0794     0.9841     0.9841     0.0000
 10 C      5.9362     6.0000     0.0638     3.9435     3.9435     0.0000
 11 H      1.0050     1.0000    -0.0050     0.9783     0.9783    -0.0000
 12 H      1.0066     1.0000    -0.0066     0.9759     0.9759    -0.0000
 13 H      0.9952     1.0000     0.0048     1.0037     1.0037     0.0000
 14 H      1.0030     1.0000    -0.0030     0.9906     0.9906    -0.0000
 15 H      0.9981     1.0000     0.0019     1.0230     1.0230     0.0000

  Mayer bond orders larger than 0.100000
B(  0-C ,  1-N ) :   1.0370 B(  0-C , 10-C ) :   1.0900 B(  0-C , 11-H ) :   0.9494 
B(  0-C , 12-H ) :   0.9447 B(  1-N ,  2-C ) :   1.2039 B(  1-N ,  7-H ) :   0.9304 
B(  2-C ,  3-C ) :   1.7584 B(  2-C ,  4-N ) :   1.2121 B(  3-C ,  8-H ) :   0.9249 
B(  3-C ,  9-H ) :   0.9250 B(  4-N ,  5-H ) :   0.9467 B(  4-N ,  6-H ) :   0.9436 
B( 10-C , 13-H ) :   0.9632 B( 10-C , 14-H ) :   0.9584 B( 10-C , 15-H ) :   0.9634 


-------
TIMINGS
-------

Total SCF time: 0 days 0 hours 0 min 10 sec 

Total time                  ....      10.390 sec
Sum of individual times     ....      10.242 sec  ( 98.6%)

Fock matrix formation       ....       9.308 sec  ( 89.6%)
  Split-RI-J                ....       0.825 sec  (  8.9% of F)
  Chain of spheres X        ....       6.523 sec  ( 70.1% of F)
  XC integration            ....       1.935 sec  ( 20.8% of F)
    Basis function eval.    ....       0.824 sec  ( 42.6% of XC)
    Density eval.           ....       0.405 sec  ( 20.9% of XC)
    XC-Functional eval.     ....       0.203 sec  ( 10.5% of XC)
    XC-Potential eval.      ....       0.379 sec  ( 19.6% of XC)
Diagonalization             ....       0.029 sec  (  0.3%)
Density matrix formation    ....       0.002 sec  (  0.0%)
Population analysis         ....       0.005 sec  (  0.1%)
Initial guess               ....       0.087 sec  (  0.8%)
Orbital Transformation      ....       0.000 sec  (  0.0%)
Orbital Orthonormalization  ....       0.000 sec  (  0.0%)
DIIS solution               ....       0.023 sec  (  0.2%)
SOSCF solution              ....       0.018 sec  (  0.2%)
Grid generation             ....       0.770 sec  (  7.4%)

Maximum memory used throughout the entire SCF-calculation: 50.5 MB


-------------------------------------------------------------------------------
                          DFT DISPERSION CORRECTION                            
                                                                               
                              DFTD3 V3.1  Rev 1                                
                          USING Becke-Johnson damping                          
-------------------------------------------------------------------------------
The B3LYP functional is recognized
Active option DFTDOPT                   ...         4   

molecular C6(AA) [au] = 1935.517335 


            DFT-D V3
 parameters
 s6 scaling factor         :     1.0000 
 a1 scaling factor         :     0.3981 
 s8 scaling factor         :     1.9889 
 a2 scaling factor         :     4.4211 
 ad hoc parameters k1-k3   :    16.0000     1.3333    -4.0000 

 Edisp/kcal,au: -13.222718856141  -0.021071741531 
 E6   /kcal   :  -6.549493475 
 E8   /kcal   :  -6.673225381 
 % E8         :  50.467876186 

-------------------------   ----------------
Dispersion correction           -0.021071742
-------------------------   ----------------


-------------------------   --------------------
FINAL SINGLE POINT ENERGY      -267.553977141780
-------------------------   --------------------


                            ***************************************
                            *     ORCA property calculations      *
                            ***************************************

                                    ---------------------
                                    Active property flags
                                    ---------------------
   (+) Dipole Moment


------------------------------------------------------------------------------
                       ORCA ELECTRIC PROPERTIES CALCULATION
------------------------------------------------------------------------------

Dipole Moment Calculation                       ... on
Quadrupole Moment Calculation                   ... off
Polarizability Calculation                      ... off
GBWName                                         ... SVP_B3LYP_C2_wt_dlpno_pos.gbw
Electron density file                           ... SVP_B3LYP_C2_wt_dlpno_pos.scfp
The origin for moment calculation is the CENTER OF MASS  = ( 9.152913,  3.513864 -7.238997)

-------------
DIPOLE MOMENT
-------------
                                X             Y             Z
Electronic contribution:     -1.43778       1.13778      -1.95257
Nuclear contribution   :      1.28075      -1.05140       2.98955
                        -----------------------------------------
Total Dipole Moment    :     -0.15704       0.08638       1.03698
                        -----------------------------------------
Magnitude (a.u.)       :      1.05236
Magnitude (Debye)      :      2.67488



--------------------
Rotational spectrum 
--------------------
 
Rotational constants in cm-1:     0.229858     0.078444     0.067377 
Rotational constants in MHz :  6890.979812  2351.691803  2019.910665 

 Dipole components along the rotational axes: 
x,y,z [a.u.] :     0.851093     0.330333     0.523430 
x,y,z [Debye]:     2.163307     0.839640     1.330453 

 

Timings for individual modules:

Sum of individual times         ...       10.925 sec (=   0.182 min)
GTO integral calculation        ...        0.334 sec (=   0.006 min)   3.1 %
SCF iterations                  ...       10.591 sec (=   0.177 min)  96.9 %
                             ****ORCA TERMINATED NORMALLY****
TOTAL RUN TIME: 0 days 0 hours 0 minutes 11 seconds 296 msec
