
                                        *****************
                                        * O   R   C   A *
                                        *****************

                                            #,                                       
                                            ###                                      
                                            ####                                     
                                            #####                                    
                                            ######                                   
                                           ########,                                 
                                     ,,################,,,,,                         
                               ,,#################################,,                 
                          ,,##########################################,,             
                       ,#########################################, ''#####,          
                    ,#############################################,,   '####,        
                  ,##################################################,,,,####,       
                ,###########''''           ''''###############################       
              ,#####''   ,,,,##########,,,,          '''####'''          '####       
            ,##' ,,,,###########################,,,                        '##       
           ' ,,###''''                  '''############,,,                           
         ,,##''                                '''############,,,,        ,,,,,,###''
      ,#''                                            '''#######################'''  
     '                                                          ''''####''''         
             ,#######,   #######,   ,#######,      ##                                
            ,#'     '#,  ##    ##  ,#'     '#,    #''#        ######   ,####,        
            ##       ##  ##   ,#'  ##            #'  '#       #        #'  '#        
            ##       ##  #######   ##           ,######,      #####,   #    #        
            '#,     ,#'  ##    ##  '#,     ,#' ,#      #,         ##   #,  ,#        
             '#######'   ##     ##  '#######'  #'      '#     #####' # '####'        



                  #######################################################
                  #                        -***-                        #
                  #          Department of theory and spectroscopy      #
                  #    Directorship and core code : Frank Neese         #
                  #        Max Planck Institute fuer Kohlenforschung    #
                  #                Kaiser Wilhelm Platz 1               #
                  #                 D-45470 Muelheim/Ruhr               #
                  #                      Germany                        #
                  #                                                     #
                  #                  All rights reserved                #
                  #                        -***-                        #
                  #######################################################


                         Program Version 5.0.0 -  RELEASE  -
                                (SVN: $Rev: 19529$)
                ($Date: 2021-06-28 11:36:33 +0200 (Mo, 28 Jun 2021) $)


 With contributions from (in alphabetic order):
   Daniel Aravena         : Magnetic Suceptibility
   Michael Atanasov       : Ab Initio Ligand Field Theory (pilot matlab implementation)
   Alexander A. Auer      : GIAO ZORA, VPT2 properties, NMR spectrum
   Ute Becker             : Parallelization
   Giovanni Bistoni       : ED, misc. LED, open-shell LED, HFLD
   Martin Brehm           : Molecular dynamics
   Dmytro Bykov           : SCF Hessian
   Vijay G. Chilkuri      : MRCI spin determinant printing, contributions to CSF-ICE
   Dipayan Datta          : RHF DLPNO-CCSD density
   Achintya Kumar Dutta   : EOM-CC, STEOM-CC
   Dmitry Ganyushin       : Spin-Orbit,Spin-Spin,Magnetic field MRCI
   Miquel Garcia          : C-PCM Hessian, Gaussian charge scheme
   Yang Guo               : DLPNO-NEVPT2, F12-NEVPT2, CIM, IAO-localization
   Andreas Hansen         : Spin unrestricted coupled pair/coupled cluster methods
   Benjamin Helmich-Paris : MC-RPA, TRAH-SCF, COSX integrals
   Lee Huntington         : MR-EOM, pCC
   Robert Izsak           : Overlap fitted RIJCOSX, COSX-SCS-MP3, EOM
   Marcus Kettner         : VPT2
   Christian Kollmar      : KDIIS, OOCD, Brueckner-CCSD(T), CCSD density, CASPT2, CASPT2-K
   Simone Kossmann        : Meta GGA functionals, TD-DFT gradient, OOMP2, MP2 Hessian
   Martin Krupicka        : Initial AUTO-CI
   Lucas Lang             : DCDCAS
   Marvin Lechner         : AUTO-CI (C++ implementation), FIC-MRCC
   Dagmar Lenk            : GEPOL surface, SMD
   Dimitrios Liakos       : Extrapolation schemes; Compound Job, initial MDCI parallelization
   Dimitrios Manganas     : Further ROCIS development; embedding schemes
   Dimitrios Pantazis     : SARC Basis sets
   Anastasios Papadopoulos: AUTO-CI, single reference methods and gradients
   Taras Petrenko         : DFT Hessian,TD-DFT gradient, ASA, ECA, R-Raman, ABS, FL, XAS/XES, NRVS
   Peter Pinski           : DLPNO-MP2, DLPNO-MP2 Gradient
   Christoph Reimann      : Effective Core Potentials
   Marius Retegan         : Local ZFS, SOC
   Christoph Riplinger    : Optimizer, TS searches, QM/MM, DLPNO-CCSD(T), (RO)-DLPNO pert. Triples
   Tobias Risthaus        : Range-separated hybrids, TD-DFT gradient, RPA, STAB
   Michael Roemelt        : Original ROCIS implementation
   Masaaki Saitow         : Open-shell DLPNO-CCSD energy and density
   Barbara Sandhoefer     : DKH picture change effects
   Avijit Sen             : IP-ROCIS
   Kantharuban Sivalingam : CASSCF convergence, NEVPT2, FIC-MRCI
   Bernardo de Souza      : ESD, SOC TD-DFT
   Georgi Stoychev        : AutoAux, RI-MP2 NMR
   Willem Van den Heuvel  : Paramagnetic NMR
   Boris Wezisla          : Elementary symmetry handling
   Frank Wennmohs         : Technical directorship


 We gratefully acknowledge several colleagues who have allowed us to
 interface, adapt or use parts of their codes:
   Stefan Grimme, W. Hujo, H. Kruse, P. Pracht,  : VdW corrections, initial TS optimization,
                  C. Bannwarth, S. Ehlert          DFT functionals, gCP, sTDA/sTD-DF
   Ed Valeev, F. Pavosevic, A. Kumar             : LibInt (2-el integral package), F12 methods
   Garnet Chan, S. Sharma, J. Yang, R. Olivares  : DMRG
   Ulf Ekstrom                                   : XCFun DFT Library
   Mihaly Kallay                                 : mrcc  (arbitrary order and MRCC methods)
   Jiri Pittner, Ondrej Demel                    : Mk-CCSD
   Frank Weinhold                                : gennbo (NPA and NBO analysis)
   Christopher J. Cramer and Donald G. Truhlar   : smd solvation model
   Lars Goerigk                                  : TD-DFT with DH, B97 family of functionals
   V. Asgeirsson, H. Jonsson                     : NEB implementation
   FAccTs GmbH                                   : IRC, NEB, NEB-TS, DLPNO-Multilevel, CI-OPT
                                                   MM, QMMM, 2- and 3-layer-ONIOM, Crystal-QMMM,
                                                   LR-CPCM, SF, NACMEs, symmetry and pop. for TD-DFT,
                                                   nearIR, NL-DFT gradient (VV10), updates on ESD,
                                                   ML-optimized integration grids
   S Lehtola, MJT Oliveira, MAL Marques          : LibXC Library
   Liviu Ungur et al                             : ANISO software


 Your calculation uses the libint2 library for the computation of 2-el integrals
 For citations please refer to: http://libint.valeyev.net

 Your ORCA version has been built with support for libXC version: 5.1.0
 For citations please refer to: https://tddft.org/programs/libxc/

 This ORCA versions uses:
   CBLAS   interface :  Fast vector & matrix operations
   LAPACKE interface :  Fast linear algebra routines
   SCALAPACK package :  Parallel linear algebra routines
   Shared memory     :  Shared parallel matrices
   BLAS/LAPACK       :  OpenBLAS 0.3.15  USE64BITINT DYNAMIC_ARCH NO_AFFINITY Haswell SINGLE_THREADED
        Core in use  :  Haswell
   Copyright (c) 2011-2014, The OpenBLAS Project




***************************************
The coordinates will be read from file: D4.xyz
***************************************


Your calculation utilizes the atom-pairwise dispersion correction
with the Becke-Johnson damping scheme (D3BJ)
Cite in your paper:
S.Grimme, S.Ehrlich, L.Goerigk, J Comput Chem, (2011), 32, 1456–1465 
S.Grimme, J.Antony, S.Ehrlich and H.Krieg, J.Chem.Phys., 132, (2010), 154104 
   

================================================================================

----- Orbital basis set information -----
Your calculation utilizes the basis: def2-SVPD
   F. Weigend and R. Ahlrichs, Phys. Chem. Chem. Phys. 7, 3297 (2005).
   D. Rappoport and F. Furche, J. Chem. Phys. 133 134105 (2010).

----- AuxJ basis set information -----
Your calculation utilizes the auxiliary basis: def2/J
   F. Weigend, Phys. Chem. Chem. Phys. 8, 1057 (2006).

================================================================================
                                        WARNINGS
                       Please study these warnings very carefully!
================================================================================



WARNING: Found flag for RIJCOSX approximation but no HF exchange needed!
  ===> : RIJCOSX  will be disabled and Split-RI-J is turned on

INFO   : the flag for use of the SHARK integral package has been found!

================================================================================
                                       INPUT FILE
================================================================================
NAME = 28Oct_SVPD_BLYP_D4_wb97.com
|  1> !BLYP D3BJ RIJCOSX def2-SVPD def2/J TightSCF xyzfile                                                                                         
|  2> 
|  3> *xyzfile 0 1 D4.xyz
|  4> 
|  5> %MaxCore 64000
|  6> 
|  7> %pal nprocs 4                                                                                                                                                  
|  8> end  
|  9> 
| 10> %scf
| 11>   MaxIter 150
| 12> end
| 13> 
| 14> 
| 15>                          ****END OF INPUT****
================================================================================

                       ****************************
                       * Single Point Calculation *
                       ****************************

---------------------------------
CARTESIAN COORDINATES (ANGSTROEM)
---------------------------------
  C      2.234473   -2.989754   -2.397622
  C      2.756799   -2.945553   -3.765029
  C     -1.104325    0.251374   -2.860056
  C     -0.711893    0.842517   -4.218344
  H      0.154626    1.499800   -4.130909
  H     -1.538134    1.459222   -4.582671
  C     -0.397624   -0.205875   -5.288018
  C      1.987208   -2.590451   -4.818975
  N      0.743221   -3.017493   -4.913524
  N      2.499636   -1.848598   -5.803241
  H      3.309780   -1.292818   -5.558947
  H      1.801025   -1.304298   -6.289129
  H      3.716116   -2.628797   -3.829533
  H      0.395828   -3.627747   -4.185024
  H      0.039201   -2.454383   -5.371367
  O      0.617165   -0.005348   -5.998273
  F     -1.133173   -1.221380   -5.341465
  C      2.191199   -1.619503   -1.715492
  H      2.872783   -3.666368   -1.828014
  H      1.246188   -3.447444   -2.407842
  C      1.298729   -0.554314   -2.359773
  H      1.872917   -1.787955   -0.681310
  H      3.216809   -1.238432   -1.654428
  C     -0.196255   -0.863365   -2.325763
  H      1.612531   -0.371346   -3.393065
  H      1.480944    0.388638   -1.834444
  H     -0.404105   -1.761825   -2.909448
  H     -0.490439   -1.087880   -1.294131
  H     -1.143842    1.066711   -2.129680
  H     -2.114401   -0.156834   -2.930323

----------------------------
CARTESIAN COORDINATES (A.U.)
----------------------------
  NO LB      ZA    FRAG     MASS         X           Y           Z
   0 C     6.0000    0    12.011    4.222543   -5.649816   -4.530848
   1 C     6.0000    0    12.011    5.209595   -5.566289   -7.114873
   2 C     6.0000    0    12.011   -2.086873    0.475028   -5.404722
   3 C     6.0000    0    12.011   -1.345283    1.592127   -7.971516
   4 H     1.0000    0     1.008    0.292200    2.834211   -7.806286
   5 H     1.0000    0     1.008   -2.906652    2.757530   -8.659992
   6 C     6.0000    0    12.011   -0.751401   -0.389047   -9.992907
   7 C     6.0000    0    12.011    3.755279   -4.895244   -9.106543
   8 N     7.0000    0    14.007    1.404485   -5.702235   -9.285215
   9 N     7.0000    0    14.007    4.723627   -3.493344  -10.966537
  10 H     1.0000    0     1.008    6.254578   -2.443072  -10.504887
  11 H     1.0000    0     1.008    3.403445   -2.464767  -11.884731
  12 H     1.0000    0     1.008    7.022441   -4.967706   -7.236769
  13 H     1.0000    0     1.008    0.748006   -6.855448   -7.908548
  14 H     1.0000    0     1.008    0.074080   -4.638111  -10.150413
  15 O     8.0000    0    15.999    1.166273   -0.010106  -11.335093
  16 F     9.0000    0    18.998   -2.141387   -2.308074  -10.093907
  17 C     6.0000    0    12.011    4.140767   -3.060418   -3.241811
  18 H     1.0000    0     1.008    5.428773   -6.928432   -3.454445
  19 H     1.0000    0     1.008    2.354955   -6.514725   -4.550162
  20 C     6.0000    0    12.011    2.454243   -1.047501   -4.459324
  21 H     1.0000    0     1.008    3.539301   -3.378746   -1.287489
  22 H     1.0000    0     1.008    6.078888   -2.340297   -3.126415
  23 C     6.0000    0    12.011   -0.370868   -1.631524   -4.395056
  24 H     1.0000    0     1.008    3.047241   -0.701741   -6.411963
  25 H     1.0000    0     1.008    2.798579    0.734420   -3.466597
  26 H     1.0000    0     1.008   -0.763647   -3.329367   -5.498059
  27 H     1.0000    0     1.008   -0.926795   -2.055796   -2.445553
  28 H     1.0000    0     1.008   -2.161548    2.015792   -4.024513
  29 H     1.0000    0     1.008   -3.995640   -0.296373   -5.537508

--------------------------------
INTERNAL COORDINATES (ANGSTROEM)
--------------------------------
 C      0   0   0     0.000000000000     0.00000000     0.00000000
 C      1   0   0     1.464438225876     0.00000000     0.00000000
 C      1   2   0     4.676145129276    98.12927291     0.00000000
 C      3   1   2     1.532449663024    99.91462131   348.31309700
 H      4   3   1     1.091109561698   111.39025959   283.89265125
 H      4   3   1     1.093495439559   108.62484397   166.67912614
 C      4   3   1     1.530389765639   114.06976040    46.19796968
 C      2   1   3     1.352468525377   122.18202950   332.12698446
 N      8   2   1     1.318638167115   120.50800772   318.92382051
 N      8   2   1     1.334806580019   120.13920908   141.74971933
 H     10   8   2     1.012375870590   115.74621574   337.06348414
 H     10   8   2     1.010151241361   112.87083799   206.24146608
 H      2   1   3     1.012316375193   114.01286739   115.96418648
 H      9   8   2     1.011832723100   117.87797810   358.89717874
 H      9   8   2     1.011116910562   120.59529148   149.18306403
 O      7   4   3     1.254778981721   116.88713641   223.97730908
 F      7   4   3     1.255045716386   117.62699891    40.66785663
 C      1   2   3     1.531261091561   113.51716415   306.50017999
 H      1   2   3     1.090733497968   107.31452929   184.97158571
 H      1   2   3     1.089170204566   109.12058142    70.56520786
 C     18   1   2     1.531740549402   116.83240064    61.84859762
 H     18   1   2     1.095086016226   106.93324123   184.96028215
 H     18   1   2     1.095819174782   108.03263762   298.48283650
 C     21  18   1     1.526973371423   114.85536009    65.69540509
 H     21  18   1     1.095281264436   110.24604822   301.31032456
 H     21  18   1     1.094683112767   107.46873106   187.23902369
 H     24  21  18     1.091383863395   109.94769458   296.45428662
 H     24  21  18     1.096000392918   108.97875853    52.80812729
 H      3   1   2     1.095346916976   118.40828837   231.18872133
 H      3   1   2     1.091707330182   114.06755658   104.31710724

---------------------------
INTERNAL COORDINATES (A.U.)
---------------------------
 C      0   0   0     0.000000000000     0.00000000     0.00000000
 C      1   0   0     2.767387186951     0.00000000     0.00000000
 C      1   2   0     8.836633656801    98.12927291     0.00000000
 C      3   1   2     2.895910177136    99.91462131   348.31309700
 H      4   3   1     2.061898253712   111.39025959   283.89265125
 H      4   3   1     2.066406909459   108.62484397   166.67912614
 C      4   3   1     2.892017535214   114.06976040    46.19796968
 C      2   1   3     2.555795117711   122.18202950   332.12698446
 N      8   2   1     2.491865005583   120.50800772   318.92382051
 N      8   2   1     2.522418877992   120.13920908   141.74971933
 H     10   8   2     1.913113140005   115.74621574   337.06348414
 H     10   8   2     1.908909200014   112.87083799   206.24146608
 H      2   1   3     1.913000709999   114.01286739   115.96418648
 H      9   8   2     1.912086739998   117.87797810   358.89717874
 H      9   8   2     1.910734050338   120.59529148   149.18306403
 O      7   4   3     2.371188634054   116.88713641   223.97730908
 F      7   4   3     2.371692689521   117.62699891    40.66785663
 C      1   2   3     2.893664102580   113.51716415   306.50017999
 H      1   2   3     2.061187596254   107.31452929   184.97158571
 H      1   2   3     2.058233399856   109.12058142    70.56520786
 C     18   1   2     2.894570146592   116.83240064    61.84859762
 H     18   1   2     2.069412663755   106.93324123   184.96028215
 H     18   1   2     2.070798132638   108.03263762   298.48283650
 C     21  18   1     2.885561485780   114.85536009    65.69540509
 H     21  18   1     2.069781629399   110.24604822   301.31032456
 H     21  18   1     2.068651286558   107.46873106   187.23902369
 H     24  21  18     2.062416608797   109.94769458   296.45428662
 H     24  21  18     2.071140585285   108.97875853    52.80812729
 H      3   1   2     2.069905694719   118.40828837   231.18872133
 H      3   1   2     2.063027872438   114.06755658   104.31710724

---------------------
BASIS SET INFORMATION
---------------------
There are 5 groups of distinct atoms

 Group   1 Type C   : 8s4p2d contracted to 4s2p2d pattern {5111/31/11}
 Group   2 Type H   : 4s2p contracted to 2s2p pattern {31/11}
 Group   3 Type N   : 8s4p2d contracted to 4s2p2d pattern {5111/31/11}
 Group   4 Type O   : 8s5p2d contracted to 4s3p2d pattern {5111/311/11}
 Group   5 Type F   : 8s5p2d contracted to 4s3p2d pattern {5111/311/11}

Atom   0C    basis set group =>   1
Atom   1C    basis set group =>   1
Atom   2C    basis set group =>   1
Atom   3C    basis set group =>   1
Atom   4H    basis set group =>   2
Atom   5H    basis set group =>   2
Atom   6C    basis set group =>   1
Atom   7C    basis set group =>   1
Atom   8N    basis set group =>   3
Atom   9N    basis set group =>   3
Atom  10H    basis set group =>   2
Atom  11H    basis set group =>   2
Atom  12H    basis set group =>   2
Atom  13H    basis set group =>   2
Atom  14H    basis set group =>   2
Atom  15O    basis set group =>   4
Atom  16F    basis set group =>   5
Atom  17C    basis set group =>   1
Atom  18H    basis set group =>   2
Atom  19H    basis set group =>   2
Atom  20C    basis set group =>   1
Atom  21H    basis set group =>   2
Atom  22H    basis set group =>   2
Atom  23C    basis set group =>   1
Atom  24H    basis set group =>   2
Atom  25H    basis set group =>   2
Atom  26H    basis set group =>   2
Atom  27H    basis set group =>   2
Atom  28H    basis set group =>   2
Atom  29H    basis set group =>   2
---------------------------------
AUXILIARY/J BASIS SET INFORMATION
---------------------------------
There are 5 groups of distinct atoms

 Group   1 Type C   : 12s5p4d2f1g contracted to 6s4p3d1f1g pattern {711111/2111/211/2/1}
 Group   2 Type H   : 5s2p1d contracted to 3s1p1d pattern {311/2/1}
 Group   3 Type N   : 12s5p4d2f1g contracted to 6s4p3d1f1g pattern {711111/2111/211/2/1}
 Group   4 Type O   : 12s5p4d2f1g contracted to 6s4p3d1f1g pattern {711111/2111/211/2/1}
 Group   5 Type F   : 12s5p4d2f1g contracted to 6s4p3d1f1g pattern {711111/2111/211/2/1}

Atom   0C    basis set group =>   1
Atom   1C    basis set group =>   1
Atom   2C    basis set group =>   1
Atom   3C    basis set group =>   1
Atom   4H    basis set group =>   2
Atom   5H    basis set group =>   2
Atom   6C    basis set group =>   1
Atom   7C    basis set group =>   1
Atom   8N    basis set group =>   3
Atom   9N    basis set group =>   3
Atom  10H    basis set group =>   2
Atom  11H    basis set group =>   2
Atom  12H    basis set group =>   2
Atom  13H    basis set group =>   2
Atom  14H    basis set group =>   2
Atom  15O    basis set group =>   4
Atom  16F    basis set group =>   5
Atom  17C    basis set group =>   1
Atom  18H    basis set group =>   2
Atom  19H    basis set group =>   2
Atom  20C    basis set group =>   1
Atom  21H    basis set group =>   2
Atom  22H    basis set group =>   2
Atom  23C    basis set group =>   1
Atom  24H    basis set group =>   2
Atom  25H    basis set group =>   2
Atom  26H    basis set group =>   2
Atom  27H    basis set group =>   2
Atom  28H    basis set group =>   2
Atom  29H    basis set group =>   2


           ************************************************************
           *        Program running with 4 parallel MPI-processes     *
           *              working on a common directory               *
           ************************************************************
------------------------------------------------------------------------------
                           ORCA GTO INTEGRAL CALCULATION
                           -- RI-GTO INTEGRALS CHOSEN --
------------------------------------------------------------------------------
------------------------------------------------------------------------------
                   ___                                                        
                  /   \      - P O W E R E D   B Y -                         
                 /     \                                                     
                 |  |  |   _    _      __       _____    __    __             
                 |  |  |  | |  | |    /  \     |  _  \  |  |  /  |          
                  \  \/   | |  | |   /    \    | | | |  |  | /  /          
                 / \  \   | |__| |  /  /\  \   | |_| |  |  |/  /          
                |  |  |   |  __  | /  /__\  \  |    /   |      \           
                |  |  |   | |  | | |   __   |  |    \   |  |\   \          
                \     /   | |  | | |  |  |  |  | |\  \  |  | \   \       
                 \___/    |_|  |_| |__|  |__|  |_| \__\ |__|  \__/        
                                                                              
                      - O R C A' S   B I G   F R I E N D -                    
                                      &                                       
                       - I N T E G R A L  F E E D E R -                       
                                                                              
 v1 FN, 2020, v2 2021                                                         
------------------------------------------------------------------------------


Reading SHARK input file 28Oct_SVPD_BLYP_D4_wb97.SHARKINP.tmp ... ok
----------------------
SHARK INTEGRAL PACKAGE
----------------------

Number of atoms                             ...     30
Number of basis functions                   ...    402
Number of shells                            ...    174
Maximum angular momentum                    ...      2
Integral batch strategy                     ... SHARK/LIBINT Hybrid
RI-J (if used) integral strategy            ... SPLIT-RIJ (Revised 2003 algorithm where possible)
Printlevel                                  ...      1
Contraction scheme used                     ... SEGMENTED contraction
Coulomb Range Separation                    ... NOT USED
Exchange Range Separation                   ... NOT USED
Finite Nucleus Model                        ... NOT USED
Auxiliary Coulomb fitting basis             ... AVAILABLE
   # of basis functions in Aux-J            ...    824
   # of shells in Aux-J                     ...    280
   Maximum angular momentum in Aux-J        ...      4
Auxiliary J/K fitting basis                 ... NOT available
Auxiliary Correlation fitting basis         ... NOT available
Auxiliary 'external' fitting basis          ... NOT available
Integral threshold                          ...     2.500000e-11
Primitive cut-off                           ...     2.500000e-12
Primitive pair pre-selection threshold      ...     2.500000e-12

Calculating pre-screening integrals         ... done (  0.1 sec) Dimension = 174
Organizing shell pair data                  ... done (  0.1 sec)
Shell pair information
Total number of shell pairs                 ...     15225
Shell pairs after pre-screening             ...     14447
Total number of primitive shell pairs       ...     41261
Primitive shell pairs kept                  ...     30309
          la=0 lb=0:   3524 shell pairs
          la=1 lb=0:   5050 shell pairs
          la=1 lb=1:   1859 shell pairs
          la=2 lb=0:   2125 shell pairs
          la=2 lb=1:   1547 shell pairs
          la=2 lb=2:    342 shell pairs

Calculating one electron integrals          ... done (  0.0 sec)
Calculating RI/J V-Matrix + Cholesky decomp.... done (  0.1 sec)
Calculating Nuclear repulsion               ... done (  0.0 sec) ENN=    907.669209659289 Eh

SHARK setup successfully completed in   0.4 seconds

Maximum memory used throughout the entire GTOINT-calculation: 22.7 MB


           ************************************************************
           *        Program running with 4 parallel MPI-processes     *
           *              working on a common directory               *
           ************************************************************
-------------------------------------------------------------------------------
                                 ORCA SCF
-------------------------------------------------------------------------------

------------
SCF SETTINGS
------------
Hamiltonian:
 Density Functional     Method          .... DFT(GTOs)
 Exchange Functional    Exchange        .... B88
   X-Alpha parameter    XAlpha          ....  0.666667
   Becke's b parameter  XBeta           ....  0.004200
 Correlation Functional Correlation     .... LYP
 Gradients option       PostSCFGGA      .... off
   Density functional embedding theory  .... OFF
   NL short-range parameter             ....  4.000000
 RI-approximation to the Coulomb term is turned on
   Number of AuxJ basis functions       .... 824


General Settings:
 Integral files         IntName         .... 28Oct_SVPD_BLYP_D4_wb97
 Hartree-Fock type      HFTyp           .... RHF
 Total Charge           Charge          ....    0
 Multiplicity           Mult            ....    1
 Number of Electrons    NEL             ....  102
 Basis Dimension        Dim             ....  402
 Nuclear Repulsion      ENuc            ....    907.6692096593 Eh

Convergence Acceleration:
 DIIS                   CNVDIIS         .... on
   Start iteration      DIISMaxIt       ....    12
   Startup error        DIISStart       ....  0.200000
   # of expansion vecs  DIISMaxEq       ....     5
   Bias factor          DIISBfac        ....   1.050
   Max. coefficient     DIISMaxC        ....  10.000
 Trust-Rad. Augm. Hess. CNVTRAH         .... auto
   Auto Start mean grad. ratio tolernc. ....  1.125000
   Auto Start start iteration           ....    20
   Auto Start num. interpolation iter.  ....    10
   Max. Number of Micro iterations      ....    16
   Max. Number of Macro iterations      .... Maxiter - #DIIS iter
   Number of Davidson start vectors     ....     2
   Converg. threshold I  (grad. norm)   ....   1.000e-05
   Converg. threshold II (energy diff.) ....   1.000e-08
   Grad. Scal. Fac. for Micro threshold ....   0.100
   Minimum threshold for Micro iter.    ....   0.010
   NR start threshold (gradient norm)   ....   0.001
   Initial trust radius                 ....   0.400
   Minimum AH scaling param. (alpha)    ....   1.000
   Maximum AH scaling param. (alpha)    .... 1000.000
   Orbital update algorithm             .... Taylor
   White noise on init. David. guess    .... on
   Maximum white noise                  ....   0.010
   Quad. conv. algorithm                .... NR
 SOSCF                  CNVSOSCF        .... on
   Start iteration      SOSCFMaxIt      ....   150
   Startup grad/error   SOSCFStart      ....  0.003300
 Level Shifting         CNVShift        .... on
   Level shift para.    LevelShift      ....    0.2500
   Turn off err/grad.   ShiftErr        ....    0.0010
 Zerner damping         CNVZerner       .... off
 Static damping         CNVDamp         .... on
   Fraction old density DampFac         ....    0.7000
   Max. Damping (<1)    DampMax         ....    0.9800
   Min. Damping (>=0)   DampMin         ....    0.0000
   Turn off err/grad.   DampErr         ....    0.1000
 Fernandez-Rico         CNVRico         .... off

SCF Procedure:
 Maximum # iterations   MaxIter         ....   150
 SCF integral mode      SCFMode         .... Direct
   Integral package                     .... SHARK and LIBINT hybrid scheme
 Reset frequency        DirectResetFreq ....    20
 Integral Threshold     Thresh          ....  2.500e-11 Eh
 Primitive CutOff       TCut            ....  2.500e-12 Eh

Convergence Tolerance:
 Convergence Check Mode ConvCheckMode   .... Total+1el-Energy
 Convergence forced     ConvForced      .... 0
 Energy Change          TolE            ....  1.000e-08 Eh
 1-El. energy change                    ....  1.000e-05 Eh
 Orbital Gradient       TolG            ....  1.000e-05
 Orbital Rotation angle TolX            ....  1.000e-05
 DIIS Error             TolErr          ....  5.000e-07


Diagonalization of the overlap matrix:
Smallest eigenvalue                        ... 3.716e-05
Time for diagonalization                   ...    0.040 sec
Threshold for overlap eigenvalues          ... 1.000e-08
Number of eigenvalues below threshold      ... 0
Time for construction of square roots      ...    0.027 sec
Total time needed                          ...    0.069 sec

Time for model grid setup =    0.339 sec

------------------------------
INITIAL GUESS: MODEL POTENTIAL
------------------------------
Loading Hartree-Fock densities                     ... done
Calculating cut-offs                               ... done
Initializing the effective Hamiltonian             ... done
Setting up the integral package (SHARK)            ... done
Starting the Coulomb interaction                   ... done (   0.3 sec)
Reading the grid                                   ... done
Mapping shells                                     ... done
Starting the XC term evaluation                    ... done (   0.4 sec)
  promolecular density results
     # of electrons  =    101.994139611
     EX              =    -82.873142393
     EC              =     -3.460033684
     EX+EC           =    -86.333176077
Transforming the Hamiltonian                       ... done (   0.0 sec)
Diagonalizing the Hamiltonian                      ... done (   0.0 sec)
Back transforming the eigenvectors                 ... done (   0.0 sec)
Now organizing SCF variables                       ... done
                      ------------------
                      INITIAL GUESS DONE (   1.1 sec)
                      ------------------
-------------------
DFT GRID GENERATION
-------------------

General Integration Accuracy     IntAcc      ... 4.388
Radial Grid Type                 RadialGrid  ... OptM3 with GC (2021)
Angular Grid (max. ang.)         AngularGrid ... 4 (Lebedev-302)
Angular grid pruning method      GridPruning ... 4 (adaptive)
Weight generation scheme         WeightScheme... Becke
Basis function cutoff            BFCut       ... 1.0000e-11
Integration weight cutoff        WCut        ... 1.0000e-14
Angular grids for H and He will be reduced by one unit
Partially contracted basis set               ... off
Rotationally invariant grid construction     ... off

Total number of grid points                  ...   134685
Total number of batches                      ...     2120
Average number of points per batch           ...       63
Average number of grid points per atom       ...     4490
Time for grid setup =    1.196 sec

--------------
SCF ITERATIONS
--------------
ITER       Energy         Delta-E        Max-DP      RMS-DP      [F,P]     Damp
               ***  Starting incremental Fock matrix formation  ***
  0   -636.4696035037   0.000000000000 1.08513610  0.00600661  0.2525037 0.7000
  1   -636.7536429668  -0.284039463058 0.94112257  0.00502800  0.0961060 0.7000
                               ***Turning on DIIS***
  2   -636.8337555617  -0.080112594897 1.18110943  0.00735323  0.0415528 0.0000
  3   -636.9755218949  -0.141766333197 0.82790238  0.00421399  0.0593767 0.0000
  4   -637.0126924140  -0.037170519165 0.28474048  0.00164586  0.0497095 0.0000
  5   -637.0190008009  -0.006308386863 0.11883915  0.00078171  0.0088599 0.0000
  6   -637.0193445898  -0.000343788907 0.04484844  0.00034540  0.0040023 0.0000
                      *** Initiating the SOSCF procedure ***
                           *** Shutting down DIIS ***
                      *** Re-Reading the Fockian *** 
                      *** Removing any level shift *** 
ITER      Energy       Delta-E        Grad      Rot      Max-DP    RMS-DP
  7   -637.01941547  -0.0000708758  0.000896  0.000896  0.019439  0.000152
               *** Restarting incremental Fock matrix formation ***
  8   -637.01943536  -0.0000198949  0.000744  0.014875  0.033931  0.000258
  9   -637.01944841  -0.0000130471  0.000410  0.003713  0.022997  0.000129
 10   -637.01945075  -0.0000023395  0.000431  0.004599  0.011451  0.000102
 11   -637.01945792  -0.0000071748  0.000233  0.000943  0.008040  0.000046
 12   -637.01945589   0.0000020273  0.000313  0.001376  0.007803  0.000043
 13   -637.01945974  -0.0000038405  0.000103  0.000427  0.001326  0.000016
 14   -637.01945887   0.0000008691  0.000216  0.000449  0.001280  0.000013
 15   -637.01945995  -0.0000010844  0.000018  0.000065  0.001474  0.000009
 16   -637.01945990   0.0000000488  0.000026  0.000038  0.000921  0.000006
 17   -637.01945998  -0.0000000738  0.000003  0.000012  0.000259  0.000002
 18   -637.01945997   0.0000000052  0.000005  0.000008  0.000299  0.000002
                  ***Gradient check signals convergence***
              ***Rediagonalizing the Fockian in SOSCF/NRSCF***

               *****************************************************
               *                     SUCCESS                       *
               *           SCF CONVERGED AFTER  19 CYCLES          *
               *****************************************************


----------------
TOTAL SCF ENERGY
----------------

Total Energy       :         -637.01945997 Eh          -17334.18076 eV

Components:
Nuclear Repulsion  :          907.66920966 Eh           24698.93486 eV
Electronic Energy  :        -1544.68866963 Eh          -42033.11562 eV
One Electron Energy:        -2668.40065932 Eh          -72610.87341 eV
Two Electron Energy:         1123.71198969 Eh           30577.75778 eV

Virial components:
Potential Energy   :        -1268.59568766 Eh          -34520.24364 eV
Kinetic Energy     :          631.57622768 Eh           17186.06288 eV
Virial Ratio       :            2.00861849


DFT components:
N(Alpha)           :       50.999956109234 electrons
N(Beta)            :       50.999956109234 electrons
N(Total)           :      101.999912218469 electrons
E(X)               :      -84.453517822782 Eh       
E(C)               :       -3.472667026003 Eh       
E(XC)              :      -87.926184848785 Eh       
DFET-embed. en.    :        0.000000000000 Eh       

---------------
SCF CONVERGENCE
---------------

  Last Energy change         ...   -3.9784e-09  Tolerance :   1.0000e-08
  Last MAX-Density change    ...    2.0331e-04  Tolerance :   1.0000e-07
  Last RMS-Density change    ...    2.3152e-06  Tolerance :   5.0000e-09
  Last Orbital Gradient      ...    6.6161e-07  Tolerance :   1.0000e-05
  Last Orbital Rotation      ...    1.8103e-06  Tolerance :   1.0000e-05

             **** THE GBW FILE WAS UPDATED (28Oct_SVPD_BLYP_D4_wb97.gbw) ****
             **** DENSITY 28Oct_SVPD_BLYP_D4_wb97.scfp WAS UPDATED ****
             **** ENERGY FILE WAS UPDATED (28Oct_SVPD_BLYP_D4_wb97.en.tmp) ****
             **** THE GBW FILE WAS UPDATED (28Oct_SVPD_BLYP_D4_wb97.gbw) ****
             **** DENSITY 28Oct_SVPD_BLYP_D4_wb97.scfp WAS UPDATED ****
----------------
ORBITAL ENERGIES
----------------

  NO   OCC          E(Eh)            E(eV) 
   0   2.0000     -24.406123      -664.1244 
   1   2.0000     -18.824174      -512.2318 
   2   2.0000     -14.017004      -381.4221 
   3   2.0000     -14.002928      -381.0390 
   4   2.0000     -10.115108      -275.2461 
   5   2.0000      -9.962003      -271.0799 
   6   2.0000      -9.955623      -270.9063 
   7   2.0000      -9.942815      -270.5578 
   8   2.0000      -9.925751      -270.0934 
   9   2.0000      -9.916053      -269.8295 
  10   2.0000      -9.905889      -269.5530 
  11   2.0000      -9.897517      -269.3251 
  12   2.0000      -9.842625      -267.8314 
  13   2.0000      -1.230371       -33.4801 
  14   2.0000      -0.960834       -26.1456 
  15   2.0000      -0.861327       -23.4379 
  16   2.0000      -0.775214       -21.0946 
  17   2.0000      -0.745684       -20.2911 
  18   2.0000      -0.705640       -19.2014 
  19   2.0000      -0.671247       -18.2656 
  20   2.0000      -0.629022       -17.1166 
  21   2.0000      -0.614697       -16.7268 
  22   2.0000      -0.583933       -15.8896 
  23   2.0000      -0.546726       -14.8772 
  24   2.0000      -0.530611       -14.4386 
  25   2.0000      -0.519000       -14.1227 
  26   2.0000      -0.505421       -13.7532 
  27   2.0000      -0.498810       -13.5733 
  28   2.0000      -0.466342       -12.6898 
  29   2.0000      -0.458568       -12.4783 
  30   2.0000      -0.434049       -11.8111 
  31   2.0000      -0.429317       -11.6823 
  32   2.0000      -0.421441       -11.4680 
  33   2.0000      -0.404086       -10.9957 
  34   2.0000      -0.389036       -10.5862 
  35   2.0000      -0.386514       -10.5176 
  36   2.0000      -0.377860       -10.2821 
  37   2.0000      -0.355626        -9.6771 
  38   2.0000      -0.349891        -9.5210 
  39   2.0000      -0.344664        -9.3788 
  40   2.0000      -0.339245        -9.2313 
  41   2.0000      -0.318220        -8.6592 
  42   2.0000      -0.314279        -8.5520 
  43   2.0000      -0.303156        -8.2493 
  44   2.0000      -0.295587        -8.0433 
  45   2.0000      -0.283042        -7.7020 
  46   2.0000      -0.273699        -7.4477 
  47   2.0000      -0.266501        -7.2519 
  48   2.0000      -0.262228        -7.1356 
  49   2.0000      -0.214509        -5.8371 
  50   2.0000      -0.120680        -3.2839 
  51   0.0000      -0.088790        -2.4161 
  52   0.0000      -0.015460        -0.4207 
  53   0.0000       0.007429         0.2021 
  54   0.0000       0.014536         0.3955 
  55   0.0000       0.015203         0.4137 
  56   0.0000       0.027522         0.7489 
  57   0.0000       0.038766         1.0549 
  58   0.0000       0.039793         1.0828 
  59   0.0000       0.046339         1.2609 
  60   0.0000       0.050977         1.3871 
  61   0.0000       0.064212         1.7473 
  62   0.0000       0.073571         2.0020 
  63   0.0000       0.078104         2.1253 
  64   0.0000       0.084155         2.2900 
  65   0.0000       0.088127         2.3981 
  66   0.0000       0.092666         2.5216 
  67   0.0000       0.097822         2.6619 
  68   0.0000       0.103792         2.8243 
  69   0.0000       0.110594         3.0094 
  70   0.0000       0.113374         3.0851 
  71   0.0000       0.117161         3.1881 
  72   0.0000       0.120786         3.2867 
  73   0.0000       0.126074         3.4306 
  74   0.0000       0.131907         3.5894 
  75   0.0000       0.142878         3.8879 
  76   0.0000       0.146381         3.9832 
  77   0.0000       0.151021         4.1095 
  78   0.0000       0.153623         4.1803 
  79   0.0000       0.160549         4.3687 
  80   0.0000       0.162920         4.4333 
  81   0.0000       0.174872         4.7585 
  82   0.0000       0.178023         4.8443 
  83   0.0000       0.181035         4.9262 
  84   0.0000       0.192329         5.2335 
  85   0.0000       0.197222         5.3667 
  86   0.0000       0.201835         5.4922 
  87   0.0000       0.205689         5.5971 
  88   0.0000       0.207366         5.6427 
  89   0.0000       0.216079         5.8798 
  90   0.0000       0.219568         5.9747 
  91   0.0000       0.229550         6.2464 
  92   0.0000       0.232511         6.3270 
  93   0.0000       0.235597         6.4109 
  94   0.0000       0.237488         6.4624 
  95   0.0000       0.248012         6.7487 
  96   0.0000       0.256928         6.9914 
  97   0.0000       0.263567         7.1720 
  98   0.0000       0.267942         7.2911 
  99   0.0000       0.270843         7.3700 
 100   0.0000       0.273238         7.4352 
 101   0.0000       0.280230         7.6255 
 102   0.0000       0.287106         7.8125 
 103   0.0000       0.288295         7.8449 
 104   0.0000       0.293540         7.9876 
 105   0.0000       0.297753         8.1023 
 106   0.0000       0.300612         8.1801 
 107   0.0000       0.304523         8.2865 
 108   0.0000       0.309906         8.4330 
 109   0.0000       0.314975         8.5709 
 110   0.0000       0.315993         8.5986 
 111   0.0000       0.323445         8.8014 
 112   0.0000       0.326104         8.8737 
 113   0.0000       0.328781         8.9466 
 114   0.0000       0.334068         9.0904 
 115   0.0000       0.340745         9.2721 
 116   0.0000       0.343381         9.3439 
 117   0.0000       0.345489         9.4012 
 118   0.0000       0.347302         9.4506 
 119   0.0000       0.352737         9.5985 
 120   0.0000       0.357213         9.7203 
 121   0.0000       0.365989         9.9591 
 122   0.0000       0.368169        10.0184 
 123   0.0000       0.370887        10.0924 
 124   0.0000       0.375748        10.2246 
 125   0.0000       0.376275        10.2390 
 126   0.0000       0.380250        10.3471 
 127   0.0000       0.382274        10.4022 
 128   0.0000       0.386506        10.5174 
 129   0.0000       0.394632        10.7385 
 130   0.0000       0.395416        10.7598 
 131   0.0000       0.401494        10.9252 
 132   0.0000       0.414093        11.2680 
 133   0.0000       0.415673        11.3110 
 134   0.0000       0.424061        11.5393 
 135   0.0000       0.424443        11.5497 
 136   0.0000       0.430010        11.7012 
 137   0.0000       0.436190        11.8693 
 138   0.0000       0.442890        12.0517 
 139   0.0000       0.445844        12.1320 
 140   0.0000       0.446406        12.1473 
 141   0.0000       0.448575        12.2063 
 142   0.0000       0.455384        12.3916 
 143   0.0000       0.458161        12.4672 
 144   0.0000       0.463563        12.6142 
 145   0.0000       0.468773        12.7560 
 146   0.0000       0.471309        12.8250 
 147   0.0000       0.477699        12.9988 
 148   0.0000       0.480297        13.0695 
 149   0.0000       0.485598        13.2138 
 150   0.0000       0.491986        13.3876 
 151   0.0000       0.497633        13.5413 
 152   0.0000       0.501600        13.6492 
 153   0.0000       0.505084        13.7440 
 154   0.0000       0.506305        13.7773 
 155   0.0000       0.515198        14.0193 
 156   0.0000       0.522152        14.2085 
 157   0.0000       0.528169        14.3722 
 158   0.0000       0.532613        14.4931 
 159   0.0000       0.535497        14.5716 
 160   0.0000       0.537767        14.6334 
 161   0.0000       0.543707        14.7950 
 162   0.0000       0.550580        14.9820 
 163   0.0000       0.551681        15.0120 
 164   0.0000       0.557270        15.1641 
 165   0.0000       0.557984        15.1835 
 166   0.0000       0.566074        15.4036 
 167   0.0000       0.570244        15.5171 
 168   0.0000       0.576487        15.6870 
 169   0.0000       0.579696        15.7743 
 170   0.0000       0.584835        15.9142 
 171   0.0000       0.590722        16.0744 
 172   0.0000       0.597476        16.2582 
 173   0.0000       0.599681        16.3182 
 174   0.0000       0.601702        16.3731 
 175   0.0000       0.609410        16.5829 
 176   0.0000       0.613557        16.6957 
 177   0.0000       0.618581        16.8324 
 178   0.0000       0.623475        16.9656 
 179   0.0000       0.632956        17.2236 
 180   0.0000       0.634525        17.2663 
 181   0.0000       0.638537        17.3755 
 182   0.0000       0.645970        17.5777 
 183   0.0000       0.647848        17.6288 
 184   0.0000       0.659839        17.9551 
 185   0.0000       0.663892        18.0654 
 186   0.0000       0.673984        18.3400 
 187   0.0000       0.675896        18.3921 
 188   0.0000       0.680475        18.5167 
 189   0.0000       0.689397        18.7595 
 190   0.0000       0.698674        19.0119 
 191   0.0000       0.705879        19.2079 
 192   0.0000       0.714404        19.4399 
 193   0.0000       0.727660        19.8006 
 194   0.0000       0.733188        19.9511 
 195   0.0000       0.741371        20.1737 
 196   0.0000       0.744782        20.2666 
 197   0.0000       0.762018        20.7356 
 198   0.0000       0.763682        20.7809 
 199   0.0000       0.776040        21.1171 
 200   0.0000       0.780375        21.2351 
 201   0.0000       0.782239        21.2858 
 202   0.0000       0.789985        21.4966 
 203   0.0000       0.799155        21.7461 
 204   0.0000       0.803089        21.8532 
 205   0.0000       0.819693        22.3050 
 206   0.0000       0.832779        22.6611 
 207   0.0000       0.839201        22.8358 
 208   0.0000       0.841542        22.8995 
 209   0.0000       0.843791        22.9607 
 210   0.0000       0.857804        23.3420 
 211   0.0000       0.864997        23.5378 
 212   0.0000       0.871013        23.7015 
 213   0.0000       0.884208        24.0605 
 214   0.0000       0.885490        24.0954 
 215   0.0000       0.901465        24.5301 
 216   0.0000       0.920998        25.0616 
 217   0.0000       0.925799        25.1923 
 218   0.0000       0.940382        25.5891 
 219   0.0000       0.948574        25.8120 
 220   0.0000       0.960328        26.1318 
 221   0.0000       0.966436        26.2980 
 222   0.0000       0.975087        26.5335 
 223   0.0000       0.984604        26.7924 
 224   0.0000       0.990275        26.9468 
 225   0.0000       1.002671        27.2841 
 226   0.0000       1.008205        27.4347 
 227   0.0000       1.011604        27.5271 
 228   0.0000       1.018649        27.7189 
 229   0.0000       1.020784        27.7769 
 230   0.0000       1.025003        27.8917 
 231   0.0000       1.034314        28.1451 
 232   0.0000       1.040718        28.3194 
 233   0.0000       1.051556        28.6143 
 234   0.0000       1.065008        28.9803 
 235   0.0000       1.081539        29.4302 
 236   0.0000       1.083386        29.4804 
 237   0.0000       1.089693        29.6521 
 238   0.0000       1.099991        29.9323 
 239   0.0000       1.106968        30.1221 
 240   0.0000       1.111481        30.2449 
 241   0.0000       1.124025        30.5863 
 242   0.0000       1.133451        30.8428 
 243   0.0000       1.137937        30.9649 
 244   0.0000       1.156086        31.4587 
 245   0.0000       1.163249        31.6536 
 246   0.0000       1.173616        31.9357 
 247   0.0000       1.175408        31.9845 
 248   0.0000       1.189989        32.3812 
 249   0.0000       1.195607        32.5341 
 250   0.0000       1.215805        33.0837 
 251   0.0000       1.235426        33.6176 
 252   0.0000       1.237261        33.6676 
 253   0.0000       1.247211        33.9383 
 254   0.0000       1.259783        34.2804 
 255   0.0000       1.282687        34.9037 
 256   0.0000       1.293705        35.2035 
 257   0.0000       1.296223        35.2720 
 258   0.0000       1.310484        35.6601 
 259   0.0000       1.326073        36.0843 
 260   0.0000       1.336764        36.3752 
 261   0.0000       1.352289        36.7977 
 262   0.0000       1.369377        37.2626 
 263   0.0000       1.418647        38.6033 
 264   0.0000       1.440901        39.2089 
 265   0.0000       1.446821        39.3700 
 266   0.0000       1.467561        39.9344 
 267   0.0000       1.495298        40.6891 
 268   0.0000       1.499244        40.7965 
 269   0.0000       1.505148        40.9572 
 270   0.0000       1.518364        41.3168 
 271   0.0000       1.527628        41.5689 
 272   0.0000       1.541832        41.9554 
 273   0.0000       1.563507        42.5452 
 274   0.0000       1.576207        42.8908 
 275   0.0000       1.590800        43.2879 
 276   0.0000       1.607632        43.7459 
 277   0.0000       1.625908        44.2432 
 278   0.0000       1.640675        44.6450 
 279   0.0000       1.654425        45.0192 
 280   0.0000       1.659129        45.1472 
 281   0.0000       1.677778        45.6546 
 282   0.0000       1.699294        46.2401 
 283   0.0000       1.708297        46.4851 
 284   0.0000       1.716193        46.7000 
 285   0.0000       1.723528        46.8996 
 286   0.0000       1.742329        47.4112 
 287   0.0000       1.745265        47.4911 
 288   0.0000       1.765145        48.0320 
 289   0.0000       1.771142        48.1952 
 290   0.0000       1.787695        48.6456 
 291   0.0000       1.806794        49.1654 
 292   0.0000       1.821061        49.5536 
 293   0.0000       1.832747        49.8716 
 294   0.0000       1.836008        49.9603 
 295   0.0000       1.842746        50.1437 
 296   0.0000       1.856409        50.5154 
 297   0.0000       1.861511        50.6543 
 298   0.0000       1.869417        50.8694 
 299   0.0000       1.887729        51.3677 
 300   0.0000       1.893233        51.5175 
 301   0.0000       1.897203        51.6255 
 302   0.0000       1.905449        51.8499 
 303   0.0000       1.917095        52.1668 
 304   0.0000       1.932305        52.5807 
 305   0.0000       1.936712        52.7006 
 306   0.0000       1.945545        52.9410 
 307   0.0000       1.947880        53.0045 
 308   0.0000       1.959347        53.3165 
 309   0.0000       1.971584        53.6495 
 310   0.0000       1.985796        54.0363 
 311   0.0000       1.992103        54.2079 
 312   0.0000       1.998016        54.3688 
 313   0.0000       2.003681        54.5229 
 314   0.0000       2.016762        54.8789 
 315   0.0000       2.026588        55.1463 
 316   0.0000       2.036393        55.4131 
 317   0.0000       2.044201        55.6255 
 318   0.0000       2.054164        55.8967 
 319   0.0000       2.066964        56.2449 
 320   0.0000       2.072814        56.4041 
 321   0.0000       2.084733        56.7285 
 322   0.0000       2.105307        57.2883 
 323   0.0000       2.115400        57.5629 
 324   0.0000       2.117470        57.6193 
 325   0.0000       2.135758        58.1169 
 326   0.0000       2.149016        58.4777 
 327   0.0000       2.154961        58.6395 
 328   0.0000       2.172269        59.1104 
 329   0.0000       2.186341        59.4934 
 330   0.0000       2.198979        59.8373 
 331   0.0000       2.214815        60.2682 
 332   0.0000       2.228056        60.6285 
 333   0.0000       2.250981        61.2523 
 334   0.0000       2.258743        61.4635 
 335   0.0000       2.272427        61.8359 
 336   0.0000       2.281280        62.0768 
 337   0.0000       2.288518        62.2737 
 338   0.0000       2.296885        62.5014 
 339   0.0000       2.302906        62.6653 
 340   0.0000       2.325208        63.2721 
 341   0.0000       2.338330        63.6292 
 342   0.0000       2.361988        64.2730 
 343   0.0000       2.372398        64.5562 
 344   0.0000       2.389585        65.0239 
 345   0.0000       2.409273        65.5596 
 346   0.0000       2.424838        65.9832 
 347   0.0000       2.440440        66.4078 
 348   0.0000       2.456720        66.8507 
 349   0.0000       2.465116        67.0792 
 350   0.0000       2.474794        67.3426 
 351   0.0000       2.490002        67.7564 
 352   0.0000       2.508481        68.2592 
 353   0.0000       2.527662        68.7812 
 354   0.0000       2.545253        69.2599 
 355   0.0000       2.555357        69.5348 
 356   0.0000       2.566646        69.8420 
 357   0.0000       2.589149        70.4543 
 358   0.0000       2.594864        70.6098 
 359   0.0000       2.599413        70.7336 
 360   0.0000       2.642931        71.9178 
 361   0.0000       2.658535        72.3424 
 362   0.0000       2.666889        72.5697 
 363   0.0000       2.683665        73.0262 
 364   0.0000       2.707314        73.6698 
 365   0.0000       2.726598        74.1945 
 366   0.0000       2.743066        74.6426 
 367   0.0000       2.796256        76.0900 
 368   0.0000       2.821173        76.7680 
 369   0.0000       2.846550        77.4586 
 370   0.0000       2.861258        77.8588 
 371   0.0000       2.894534        78.7643 
 372   0.0000       2.916608        79.3649 
 373   0.0000       2.924444        79.5782 
 374   0.0000       2.945879        80.1615 
 375   0.0000       2.965389        80.6923 
 376   0.0000       2.994159        81.4752 
 377   0.0000       3.029794        82.4449 
 378   0.0000       3.051867        83.0455 
 379   0.0000       3.060527        83.2812 
 380   0.0000       3.062597        83.3375 
 381   0.0000       3.072996        83.6205 
 382   0.0000       3.107508        84.5596 
 383   0.0000       3.126221        85.0688 
 384   0.0000       3.126686        85.0814 
 385   0.0000       3.158084        85.9358 
 386   0.0000       3.176206        86.4290 
 387   0.0000       3.192055        86.8602 
 388   0.0000       3.211242        87.3823 
 389   0.0000       3.230317        87.9014 
 390   0.0000       3.274105        89.0929 
 391   0.0000       3.289003        89.4983 
 392   0.0000       3.344208        91.0005 
 393   0.0000       3.369041        91.6763 
 394   0.0000       3.398630        92.4814 
 395   0.0000       3.414965        92.9259 
 396   0.0000       3.455703        94.0345 
 397   0.0000       3.498986        95.2123 
 398   0.0000       3.627199        98.7011 
 399   0.0000       3.691121       100.4405 
 400   0.0000       3.726258       101.3966 
 401   0.0000       4.001145       108.8767 

                    ********************************
                    * MULLIKEN POPULATION ANALYSIS *
                    ********************************

-----------------------
MULLIKEN ATOMIC CHARGES
-----------------------
   0 C :    0.656472
   1 C :   -0.042404
   2 C :    0.860464
   3 C :    0.524023
   4 H :    0.067819
   5 H :   -0.439665
   6 C :    0.416557
   7 C :    0.127427
   8 N :    0.555917
   9 N :    0.359029
  10 H :    0.059968
  11 H :   -0.254416
  12 H :   -0.319976
  13 H :    0.003510
  14 H :   -0.560296
  15 O :   -0.377647
  16 F :   -0.402974
  17 C :    0.742993
  18 H :   -0.336925
  19 H :   -0.306913
  20 C :    0.287499
  21 H :   -0.155416
  22 H :   -0.248459
  23 C :    0.289131
  24 H :   -0.294883
  25 H :   -0.262680
  26 H :   -0.344024
  27 H :   -0.249703
  28 H :   -0.255378
  29 H :   -0.099047
Sum of atomic charges:    0.0000000

--------------------------------
MULLIKEN REDUCED ORBITAL CHARGES
--------------------------------
  0 C s       :     2.390714  s :     2.390714
      pz      :     0.908266  p :     2.480685
      px      :     0.683712
      py      :     0.888706
      dz2     :     0.112642  d :     0.472129
      dxz     :     0.128158
      dyz     :     0.159655
      dx2y2   :    -0.019499
      dxy     :     0.091173
  1 C s       :     2.926881  s :     2.926881
      pz      :     0.937687  p :     2.760411
      px      :     0.726908
      py      :     1.095816
      dz2     :     0.151051  d :     0.355112
      dxz     :     0.040172
      dyz     :     0.089211
      dx2y2   :     0.078355
      dxy     :    -0.003678
  2 C s       :     2.408284  s :     2.408284
      pz      :     0.770081  p :     2.400671
      px      :     0.845527
      py      :     0.785063
      dz2     :     0.064646  d :     0.330581
      dxz     :     0.024725
      dyz     :     0.158938
      dx2y2   :     0.085091
      dxy     :    -0.002818
  3 C s       :     2.516843  s :     2.516843
      pz      :     0.940204  p :     2.635215
      px      :     0.764773
      py      :     0.930238
      dz2     :     0.123241  d :     0.323920
      dxz     :     0.113975
      dyz     :     0.044859
      dx2y2   :     0.009354
      dxy     :     0.032490
  4 H s       :     0.956027  s :     0.956027
      pz      :    -0.017154  p :    -0.023846
      px      :    -0.026283
      py      :     0.019591
  5 H s       :     1.439097  s :     1.439097
      pz      :    -0.002717  p :     0.000568
      px      :     0.000005
      py      :     0.003281
  6 C s       :     3.095508  s :     3.095508
      pz      :     0.747009  p :     2.188238
      px      :     0.724635
      py      :     0.716593
      dz2     :     0.085789  d :     0.299698
      dxz     :     0.023669
      dyz     :     0.031584
      dx2y2   :     0.019764
      dxy     :     0.138892
  7 C s       :     2.929401  s :     2.929401
      pz      :     0.752550  p :     2.617459
      px      :     0.953456
      py      :     0.911453
      dz2     :     0.017518  d :     0.325713
      dxz     :    -0.072907
      dyz     :     0.157121
      dx2y2   :     0.097066
      dxy     :     0.126914
  8 N s       :     2.886377  s :     2.886377
      pz      :     1.309946  p :     3.518859
      px      :     0.948643
      py      :     1.260271
      dz2     :     0.011034  d :     0.038847
      dxz     :     0.012535
      dyz     :    -0.010442
      dx2y2   :     0.022418
      dxy     :     0.003303
  9 N s       :     3.115143  s :     3.115143
      pz      :     1.247048  p :     3.502529
      px      :     1.041145
      py      :     1.214336
      dz2     :     0.020838  d :     0.023300
      dxz     :    -0.003441
      dyz     :     0.003600
      dx2y2   :     0.012327
      dxy     :    -0.010025
 10 H s       :     0.936528  s :     0.936528
      pz      :    -0.001076  p :     0.003504
      px      :     0.007876
      py      :    -0.003296
 11 H s       :     1.154645  s :     1.154645
      pz      :     0.079282  p :     0.099771
      px      :     0.004842
      py      :     0.015647
 12 H s       :     1.205655  s :     1.205655
      pz      :     0.013172  p :     0.114322
      px      :     0.058491
      py      :     0.042659
 13 H s       :     1.014801  s :     1.014801
      pz      :    -0.019760  p :    -0.018310
      px      :    -0.022557
      py      :     0.024006
 14 H s       :     1.435951  s :     1.435951
      pz      :     0.070174  p :     0.124345
      px      :     0.055844
      py      :    -0.001672
 15 O s       :     3.829548  s :     3.829548
      pz      :     1.458255  p :     4.504631
      px      :     1.345441
      py      :     1.700935
      dz2     :     0.010415  d :     0.043468
      dxz     :     0.009612
      dyz     :     0.013173
      dx2y2   :     0.008762
      dxy     :     0.001507
 16 F s       :     4.050477  s :     4.050477
      pz      :     1.933770  p :     5.317640
      px      :     1.762059
      py      :     1.621811
      dz2     :     0.001520  d :     0.034858
      dxz     :     0.006176
      dyz     :     0.010334
      dx2y2   :     0.014327
      dxy     :     0.002501
 17 C s       :     2.421975  s :     2.421975
      pz      :     0.817830  p :     2.427435
      px      :     0.713485
      py      :     0.896120
      dz2     :     0.149425  d :     0.407597
      dxz     :    -0.022171
      dyz     :     0.048517
      dx2y2   :     0.161547
      dxy     :     0.070278
 18 H s       :     1.341444  s :     1.341444
      pz      :    -0.011610  p :    -0.004520
      px      :    -0.009979
      py      :     0.017070
 19 H s       :     1.260684  s :     1.260684
      pz      :     0.001212  p :     0.046230
      px      :     0.041725
      py      :     0.003293
 20 C s       :     2.537366  s :     2.537366
      pz      :     0.807630  p :     2.502741
      px      :     0.953265
      py      :     0.741846
      dz2     :     0.058548  d :     0.672394
      dxz     :     0.161282
      dyz     :     0.119928
      dx2y2   :     0.184241
      dxy     :     0.148395
 21 H s       :     1.195572  s :     1.195572
      pz      :     0.047087  p :    -0.040157
      px      :    -0.045618
      py      :    -0.041626
 22 H s       :     1.283650  s :     1.283650
      pz      :    -0.055815  p :    -0.035191
      px      :     0.039363
      py      :    -0.018740
 23 C s       :     2.490325  s :     2.490325
      pz      :     0.662270  p :     2.539223
      px      :     1.007861
      py      :     0.869092
      dz2     :     0.065313  d :     0.681321
      dxz     :     0.126093
      dyz     :     0.037963
      dx2y2   :     0.215280
      dxy     :     0.236672
 24 H s       :     1.306027  s :     1.306027
      pz      :     0.026332  p :    -0.011144
      px      :    -0.011233
      py      :    -0.026244
 25 H s       :     1.286453  s :     1.286453
      pz      :    -0.041257  p :    -0.023773
      px      :    -0.024686
      py      :     0.042170
 26 H s       :     1.257217  s :     1.257217
      pz      :     0.034605  p :     0.086807
      px      :    -0.019564
      py      :     0.071765
 27 H s       :     1.268646  s :     1.268646
      pz      :     0.027730  p :    -0.018943
      px      :    -0.007791
      py      :    -0.038883
 28 H s       :     1.280197  s :     1.280197
      pz      :     0.017501  p :    -0.024819
      px      :    -0.031656
      py      :    -0.010664
 29 H s       :     1.160697  s :     1.160697
      pz      :    -0.043182  p :    -0.061649
      px      :     0.040040
      py      :    -0.058508


                     *******************************
                     * LOEWDIN POPULATION ANALYSIS *
                     *******************************

----------------------
LOEWDIN ATOMIC CHARGES
----------------------
   0 C :   -0.052697
   1 C :   -0.001925
   2 C :   -0.012399
   3 C :    0.069456
   4 H :    0.031532
   5 H :    0.034015
   6 C :   -0.010753
   7 C :   -0.232893
   8 N :    0.247690
   9 N :    0.238578
  10 H :    0.003615
  11 H :   -0.098074
  12 H :   -0.061187
  13 H :   -0.003349
  14 H :   -0.076570
  15 O :   -0.106039
  16 F :   -0.012275
  17 C :   -0.013155
  18 H :    0.005042
  19 H :   -0.015051
  20 C :   -0.015558
  21 H :    0.011231
  22 H :    0.017744
  23 C :   -0.018486
  24 H :    0.000182
  25 H :    0.020394
  26 H :   -0.014374
  27 H :    0.024984
  28 H :    0.022603
  29 H :    0.017719

-------------------------------
LOEWDIN REDUCED ORBITAL CHARGES
-------------------------------
  0 C s       :     2.680188  s :     2.680188
      pz      :     0.904634  p :     2.671105
      px      :     0.887247
      py      :     0.879224
      dz2     :     0.147218  d :     0.701404
      dxz     :     0.124076
      dyz     :     0.211173
      dx2y2   :     0.086400
      dxy     :     0.132537
  1 C s       :     2.703458  s :     2.703458
      pz      :     0.883147  p :     2.709091
      px      :     0.901814
      py      :     0.924130
      dz2     :     0.178381  d :     0.589375
      dxz     :     0.149784
      dyz     :     0.136462
      dx2y2   :     0.070719
      dxy     :     0.054028
  2 C s       :     2.686797  s :     2.686797
      pz      :     0.868266  p :     2.670369
      px      :     0.900495
      py      :     0.901607
      dz2     :     0.135668  d :     0.655233
      dxz     :     0.097431
      dyz     :     0.187491
      dx2y2   :     0.132144
      dxy     :     0.102500
  3 C s       :     2.684413  s :     2.684413
      pz      :     0.869558  p :     2.663784
      px      :     0.916741
      py      :     0.877485
      dz2     :     0.155491  d :     0.582347
      dxz     :     0.119636
      dyz     :     0.141668
      dx2y2   :     0.050415
      dxy     :     0.115137
  4 H s       :     0.709207  s :     0.709207
      pz      :     0.066865  p :     0.259262
      px      :     0.109821
      py      :     0.082575
  5 H s       :     0.717549  s :     0.717549
      pz      :     0.067458  p :     0.248436
      px      :     0.100832
      py      :     0.080146
  6 C s       :     2.642085  s :     2.642085
      pz      :     0.778489  p :     2.309688
      px      :     0.780048
      py      :     0.751151
      dz2     :     0.191691  d :     1.058981
      dxz     :     0.192534
      dyz     :     0.185559
      dx2y2   :     0.219867
      dxy     :     0.269330
  7 C s       :     2.630505  s :     2.630505
      pz      :     0.878789  p :     2.521350
      px      :     0.864244
      py      :     0.778317
      dz2     :     0.230420  d :     1.081037
      dxz     :     0.255649
      dyz     :     0.184712
      dx2y2   :     0.195160
      dxy     :     0.215097
  8 N s       :     2.913482  s :     2.913482
      pz      :     1.200783  p :     3.463010
      px      :     1.066572
      py      :     1.195656
      dz2     :     0.038007  d :     0.375817
      dxz     :     0.102128
      dyz     :     0.037958
      dx2y2   :     0.080947
      dxy     :     0.116777
  9 N s       :     2.943388  s :     2.943388
      pz      :     1.210171  p :     3.457202
      px      :     1.079509
      py      :     1.167521
      dz2     :     0.098973  d :     0.360832
      dxz     :     0.061713
      dyz     :     0.070028
      dx2y2   :     0.040862
      dxy     :     0.089256
 10 H s       :     0.656996  s :     0.656996
      pz      :     0.101157  p :     0.339389
      px      :     0.124691
      py      :     0.113542
 11 H s       :     0.624129  s :     0.624129
      pz      :     0.126055  p :     0.473945
      px      :     0.175053
      py      :     0.172836
 12 H s       :     0.752119  s :     0.752119
      pz      :     0.074163  p :     0.309068
      px      :     0.117330
      py      :     0.117575
 13 H s       :     0.643676  s :     0.643676
      pz      :     0.161835  p :     0.359674
      px      :     0.080544
      py      :     0.117295
 14 H s       :     0.623252  s :     0.623252
      pz      :     0.125390  p :     0.453318
      px      :     0.152994
      py      :     0.174933
 15 O s       :     3.433877  s :     3.433877
      pz      :     1.452550  p :     4.408017
      px      :     1.372811
      py      :     1.582656
      dz2     :     0.048808  d :     0.264145
      dxz     :     0.072134
      dyz     :     0.028036
      dx2y2   :     0.041342
      dxy     :     0.073824
 16 F s       :     3.586118  s :     3.586118
      pz      :     1.810393  p :     5.165265
      px      :     1.718636
      py      :     1.636237
      dz2     :     0.030798  d :     0.260892
      dxz     :     0.025895
      dyz     :     0.048917
      dx2y2   :     0.066143
      dxy     :     0.089139
 17 C s       :     2.695864  s :     2.695864
      pz      :     0.886094  p :     2.659033
      px      :     0.886733
      py      :     0.886206
      dz2     :     0.160844  d :     0.658257
      dxz     :     0.061546
      dyz     :     0.122571
      dx2y2   :     0.163292
      dxy     :     0.150005
 18 H s       :     0.733569  s :     0.733569
      pz      :     0.091636  p :     0.261389
      px      :     0.087226
      py      :     0.082527
 19 H s       :     0.722947  s :     0.722947
      pz      :     0.087077  p :     0.292104
      px      :     0.128772
      py      :     0.076255
 20 C s       :     2.682651  s :     2.682651
      pz      :     0.897630  p :     2.659401
      px      :     0.875730
      py      :     0.886041
      dz2     :     0.115106  d :     0.673506
      dxz     :     0.136588
      dyz     :     0.105435
      dx2y2   :     0.171875
      dxy     :     0.144502
 21 H s       :     0.731042  s :     0.731042
      pz      :     0.117599  p :     0.257727
      px      :     0.077306
      py      :     0.062822
 22 H s       :     0.729588  s :     0.729588
      pz      :     0.067708  p :     0.252668
      px      :     0.117204
      py      :     0.067756
 23 C s       :     2.682712  s :     2.682712
      pz      :     0.893250  p :     2.663642
      px      :     0.884699
      py      :     0.885693
      dz2     :     0.108099  d :     0.672131
      dxz     :     0.132748
      dyz     :     0.096402
      dx2y2   :     0.171745
      dxy     :     0.163138
 24 H s       :     0.707634  s :     0.707634
      pz      :     0.138686  p :     0.292185
      px      :     0.072093
      py      :     0.081405
 25 H s       :     0.728673  s :     0.728673
      pz      :     0.080969  p :     0.250933
      px      :     0.062192
      py      :     0.107772
 26 H s       :     0.715219  s :     0.715219
      pz      :     0.111478  p :     0.299155
      px      :     0.071706
      py      :     0.115971
 27 H s       :     0.727246  s :     0.727246
      pz      :     0.117966  p :     0.247770
      px      :     0.064737
      py      :     0.065068
 28 H s       :     0.728175  s :     0.728175
      pz      :     0.087059  p :     0.249222
      px      :     0.066638
      py      :     0.095525
 29 H s       :     0.728031  s :     0.728031
      pz      :     0.064795  p :     0.254251
      px      :     0.114169
      py      :     0.075287


                      *****************************
                      * MAYER POPULATION ANALYSIS *
                      *****************************

  NA   - Mulliken gross atomic population
  ZA   - Total nuclear charge
  QA   - Mulliken gross atomic charge
  VA   - Mayer's total valence
  BVA  - Mayer's bonded valence
  FA   - Mayer's free valence

  ATOM       NA         ZA         QA         VA         BVA        FA
  0 C      5.3435     6.0000     0.6565     4.5865     4.5865    -0.0000
  1 C      6.0424     6.0000    -0.0424     3.9724     3.9724    -0.0000
  2 C      5.1395     6.0000     0.8605     4.0957     4.0957     0.0000
  3 C      5.4760     6.0000     0.5240     4.2583     4.2583     0.0000
  4 H      0.9322     1.0000     0.0678     0.8484     0.8484    -0.0000
  5 H      1.4397     1.0000    -0.4397     0.8743     0.8743     0.0000
  6 C      5.5834     6.0000     0.4166     4.3620     4.3620     0.0000
  7 C      5.8726     6.0000     0.1274     4.2160     4.2160    -0.0000
  8 N      6.4441     7.0000     0.5559     3.6774     3.6774    -0.0000
  9 N      6.6410     7.0000     0.3590     3.2699     3.2699    -0.0000
 10 H      0.9400     1.0000     0.0600     0.7058     0.7058     0.0000
 11 H      1.2544     1.0000    -0.2544     1.0831     1.0831     0.0000
 12 H      1.3200     1.0000    -0.3200     1.3617     1.3617     0.0000
 13 H      0.9965     1.0000     0.0035     0.7536     0.7536    -0.0000
 14 H      1.5603     1.0000    -0.5603     0.9139     0.9139    -0.0000
 15 O      8.3776     8.0000    -0.3776     2.0166     2.0166     0.0000
 16 F      9.4030     9.0000    -0.4030     1.0443     1.0443    -0.0000
 17 C      5.2570     6.0000     0.7430     4.1820     4.1820     0.0000
 18 H      1.3369     1.0000    -0.3369     0.9495     0.9495    -0.0000
 19 H      1.3069     1.0000    -0.3069     1.0149     1.0149    -0.0000
 20 C      5.7125     6.0000     0.2875     5.0495     5.0495    -0.0000
 21 H      1.1554     1.0000    -0.1554     0.8232     0.8232     0.0000
 22 H      1.2485     1.0000    -0.2485     0.8768     0.8768     0.0000
 23 C      5.7109     6.0000     0.2891     4.9965     4.9965     0.0000
 24 H      1.2949     1.0000    -0.2949     1.0504     1.0504     0.0000
 25 H      1.2627     1.0000    -0.2627     0.9089     0.9089     0.0000
 26 H      1.3440     1.0000    -0.3440     1.1099     1.1099     0.0000
 27 H      1.2497     1.0000    -0.2497     0.8783     0.8783     0.0000
 28 H      1.2554     1.0000    -0.2554     0.8577     0.8577     0.0000
 29 H      1.0990     1.0000    -0.0990     0.7851     0.7851    -0.0000

  Mayer bond orders larger than 0.100000
B(  0-C ,  1-C ) :   1.1634 B(  0-C ,  7-C ) :   0.1613 B(  0-C , 12-H ) :   0.4569 
B(  0-C , 17-C ) :   1.0972 B(  0-C , 18-H ) :   0.5147 B(  0-C , 19-H ) :   0.6029 
B(  0-C , 20-C ) :   0.1110 B(  0-C , 21-H ) :   0.2761 B(  0-C , 22-H ) :   0.2380 
B(  1-C ,  7-C ) :   1.3328 B(  1-C ,  8-N ) :   0.1779 B(  1-C ,  9-N ) :   0.3529 
B(  1-C , 12-H ) :   0.3549 B(  1-C , 17-C ) :   0.1052 B(  1-C , 18-H ) :   0.2867 
B(  1-C , 19-H ) :   0.2917 B(  2-C ,  3-C ) :   1.1100 B(  2-C ,  4-H ) :   0.1265 
B(  2-C ,  5-H ) :   0.2154 B(  2-C ,  6-C ) :   0.1073 B(  2-C , 23-C ) :   1.1810 
B(  2-C , 26-H ) :   0.1500 B(  2-C , 28-H ) :   0.6359 B(  2-C , 29-H ) :   0.4803 
B(  3-C ,  4-H ) :   0.7517 B(  3-C ,  5-H ) :   0.5820 B(  3-C ,  6-C ) :   1.1546 
B(  3-C , 23-C ) :   0.1700 B(  3-C , 28-H ) :   0.1999 B(  3-C , 29-H ) :   0.1249 
B(  4-H ,  5-H ) :  -0.1540 B(  4-H ,  6-C ) :   0.2649 B(  5-H ,  6-C ) :   0.2367 
B(  5-H , 24-H ) :  -0.1093 B(  6-C , 15-O ) :   1.7287 B(  6-C , 16-F ) :   0.6811 
B(  7-C ,  8-N ) :   1.1312 B(  7-C ,  9-N ) :   0.9489 B(  7-C , 11-H ) :   0.1632 
B(  7-C , 12-H ) :   0.4443 B(  8-N ,  9-N ) :   0.1409 B(  8-N , 13-H ) :   0.8920 
B(  8-N , 14-H ) :   1.0758 B(  9-N , 10-H ) :   0.8467 B(  9-N , 11-H ) :   0.7755 
B( 11-H , 12-H ) :   0.1155 B( 11-H , 15-O ) :   0.1212 B( 13-H , 14-H ) :  -0.2438 
B( 14-H , 16-F ) :   0.1091 B( 15-O , 16-F ) :   0.1119 B( 17-C , 18-H ) :   0.1488 
B( 17-C , 19-H ) :   0.1660 B( 17-C , 20-C ) :   1.1927 B( 17-C , 21-H ) :   0.6282 
B( 17-C , 22-H ) :   0.4907 B( 17-C , 24-H ) :   0.1544 B( 20-C , 21-H ) :   0.2046 
B( 20-C , 22-H ) :   0.3742 B( 20-C , 23-C ) :   1.2555 B( 20-C , 24-H ) :   0.7535 
B( 20-C , 25-H ) :   0.6139 B( 20-C , 26-H ) :   0.1996 B( 20-C , 27-H ) :   0.2694 
B( 21-H , 22-H ) :  -0.1976 B( 23-C , 24-H ) :   0.2136 B( 23-C , 25-H ) :   0.2510 
B( 23-C , 26-H ) :   0.7485 B( 23-C , 27-H ) :   0.6040 B( 23-C , 28-H ) :   0.2177 
B( 23-C , 29-H ) :   0.3476 B( 28-H , 29-H ) :  -0.1849 

-------
TIMINGS
-------

Total SCF time: 0 days 0 hours 0 min 43 sec 

Total time                  ....      43.866 sec
Sum of individual times     ....      43.353 sec  ( 98.8%)

Fock matrix formation       ....      39.914 sec  ( 91.0%)
  Split-RI-J                ....      12.519 sec  ( 31.4% of F)
  XC integration            ....      27.194 sec  ( 68.1% of F)
    Basis function eval.    ....       7.460 sec  ( 27.4% of XC)
    Density eval.           ....       9.014 sec  ( 33.1% of XC)
    XC-Functional eval.     ....       0.521 sec  (  1.9% of XC)
    XC-Potential eval.      ....       9.240 sec  ( 34.0% of XC)
Diagonalization             ....       0.387 sec  (  0.9%)
Density matrix formation    ....       0.035 sec  (  0.1%)
Population analysis         ....       0.037 sec  (  0.1%)
Initial guess               ....       0.808 sec  (  1.8%)
Orbital Transformation      ....       0.000 sec  (  0.0%)
Orbital Orthonormalization  ....       0.000 sec  (  0.0%)
DIIS solution               ....       0.204 sec  (  0.5%)
SOSCF solution              ....       0.432 sec  (  1.0%)
Grid generation             ....       1.535 sec  (  3.5%)

Maximum memory used throughout the entire SCF-calculation: 61.5 MB


-------------------------------------------------------------------------------
                          DFT DISPERSION CORRECTION                            
                                                                               
                              DFTD3 V3.1  Rev 1                                
                          USING Becke-Johnson damping                          
-------------------------------------------------------------------------------
The BLYP functional is recognized
Active option DFTDOPT                   ...         4   

molecular C6(AA) [au] = 7125.235194 


            DFT-D V3
 parameters
 s6 scaling factor         :     1.0000 
 a1 scaling factor         :     0.4298 
 s8 scaling factor         :     2.6996 
 a2 scaling factor         :     4.2359 
 ad hoc parameters k1-k3   :    16.0000     1.3333    -4.0000 

 Edisp/kcal,au: -44.017488195353  -0.070146324987 
 E6   /kcal   : -18.354140347 
 E8   /kcal   : -25.663347848 
 % E8         :  58.302617665 

-------------------------   ----------------
Dispersion correction           -0.070146325
-------------------------   ----------------


-------------------------   --------------------
FINAL SINGLE POINT ENERGY      -637.089606299206
-------------------------   --------------------


                            ***************************************
                            *     ORCA property calculations      *
                            ***************************************

                                    ---------------------
                                    Active property flags
                                    ---------------------
   (+) Dipole Moment


------------------------------------------------------------------------------
                       ORCA ELECTRIC PROPERTIES CALCULATION
------------------------------------------------------------------------------

Dipole Moment Calculation                       ... on
Quadrupole Moment Calculation                   ... off
Polarizability Calculation                      ... off
GBWName                                         ... 28Oct_SVPD_BLYP_D4_wb97.gbw
Electron density file                           ... 28Oct_SVPD_BLYP_D4_wb97.scfp
The origin for moment calculation is the CENTER OF MASS  = ( 1.472794, -2.411676 -7.632545)

-------------
DIPOLE MOMENT
-------------
                                X             Y             Z
Electronic contribution:     -5.85437       0.06583     -13.43013
Nuclear contribution   :      4.38568       1.15960      13.97148
                        -----------------------------------------
Total Dipole Moment    :     -1.46868       1.22543       0.54134
                        -----------------------------------------
Magnitude (a.u.)       :      1.98791
Magnitude (Debye)      :      5.05286



--------------------
Rotational spectrum 
--------------------
 
Rotational constants in cm-1:     0.032892     0.023844     0.017123 
Rotational constants in MHz :   986.091711   714.821905   513.334630 

 Dipole components along the rotational axes: 
x,y,z [a.u.] :     1.648978     1.105129     0.106455 
x,y,z [Debye]:     4.191369     2.809015     0.270587 

 

Timings for individual modules:

Sum of individual times         ...       44.887 sec (=   0.748 min)
GTO integral calculation        ...        0.691 sec (=   0.012 min)   1.5 %
SCF iterations                  ...       44.196 sec (=   0.737 min)  98.5 %
                             ****ORCA TERMINATED NORMALLY****
TOTAL RUN TIME: 0 days 0 hours 0 minutes 45 seconds 547 msec
