
                                        *****************
                                        * O   R   C   A *
                                        *****************

                                            #,                                       
                                            ###                                      
                                            ####                                     
                                            #####                                    
                                            ######                                   
                                           ########,                                 
                                     ,,################,,,,,                         
                               ,,#################################,,                 
                          ,,##########################################,,             
                       ,#########################################, ''#####,          
                    ,#############################################,,   '####,        
                  ,##################################################,,,,####,       
                ,###########''''           ''''###############################       
              ,#####''   ,,,,##########,,,,          '''####'''          '####       
            ,##' ,,,,###########################,,,                        '##       
           ' ,,###''''                  '''############,,,                           
         ,,##''                                '''############,,,,        ,,,,,,###''
      ,#''                                            '''#######################'''  
     '                                                          ''''####''''         
             ,#######,   #######,   ,#######,      ##                                
            ,#'     '#,  ##    ##  ,#'     '#,    #''#        ######   ,####,        
            ##       ##  ##   ,#'  ##            #'  '#       #        #'  '#        
            ##       ##  #######   ##           ,######,      #####,   #    #        
            '#,     ,#'  ##    ##  '#,     ,#' ,#      #,         ##   #,  ,#        
             '#######'   ##     ##  '#######'  #'      '#     #####' # '####'        



                  #######################################################
                  #                        -***-                        #
                  #          Department of theory and spectroscopy      #
                  #    Directorship and core code : Frank Neese         #
                  #        Max Planck Institute fuer Kohlenforschung    #
                  #                Kaiser Wilhelm Platz 1               #
                  #                 D-45470 Muelheim/Ruhr               #
                  #                      Germany                        #
                  #                                                     #
                  #                  All rights reserved                #
                  #                        -***-                        #
                  #######################################################


                         Program Version 5.0.0 -  RELEASE  -
                                (SVN: $Rev: 19529$)
                ($Date: 2021-06-28 11:36:33 +0200 (Mo, 28 Jun 2021) $)


 With contributions from (in alphabetic order):
   Daniel Aravena         : Magnetic Suceptibility
   Michael Atanasov       : Ab Initio Ligand Field Theory (pilot matlab implementation)
   Alexander A. Auer      : GIAO ZORA, VPT2 properties, NMR spectrum
   Ute Becker             : Parallelization
   Giovanni Bistoni       : ED, misc. LED, open-shell LED, HFLD
   Martin Brehm           : Molecular dynamics
   Dmytro Bykov           : SCF Hessian
   Vijay G. Chilkuri      : MRCI spin determinant printing, contributions to CSF-ICE
   Dipayan Datta          : RHF DLPNO-CCSD density
   Achintya Kumar Dutta   : EOM-CC, STEOM-CC
   Dmitry Ganyushin       : Spin-Orbit,Spin-Spin,Magnetic field MRCI
   Miquel Garcia          : C-PCM Hessian, Gaussian charge scheme
   Yang Guo               : DLPNO-NEVPT2, F12-NEVPT2, CIM, IAO-localization
   Andreas Hansen         : Spin unrestricted coupled pair/coupled cluster methods
   Benjamin Helmich-Paris : MC-RPA, TRAH-SCF, COSX integrals
   Lee Huntington         : MR-EOM, pCC
   Robert Izsak           : Overlap fitted RIJCOSX, COSX-SCS-MP3, EOM
   Marcus Kettner         : VPT2
   Christian Kollmar      : KDIIS, OOCD, Brueckner-CCSD(T), CCSD density, CASPT2, CASPT2-K
   Simone Kossmann        : Meta GGA functionals, TD-DFT gradient, OOMP2, MP2 Hessian
   Martin Krupicka        : Initial AUTO-CI
   Lucas Lang             : DCDCAS
   Marvin Lechner         : AUTO-CI (C++ implementation), FIC-MRCC
   Dagmar Lenk            : GEPOL surface, SMD
   Dimitrios Liakos       : Extrapolation schemes; Compound Job, initial MDCI parallelization
   Dimitrios Manganas     : Further ROCIS development; embedding schemes
   Dimitrios Pantazis     : SARC Basis sets
   Anastasios Papadopoulos: AUTO-CI, single reference methods and gradients
   Taras Petrenko         : DFT Hessian,TD-DFT gradient, ASA, ECA, R-Raman, ABS, FL, XAS/XES, NRVS
   Peter Pinski           : DLPNO-MP2, DLPNO-MP2 Gradient
   Christoph Reimann      : Effective Core Potentials
   Marius Retegan         : Local ZFS, SOC
   Christoph Riplinger    : Optimizer, TS searches, QM/MM, DLPNO-CCSD(T), (RO)-DLPNO pert. Triples
   Tobias Risthaus        : Range-separated hybrids, TD-DFT gradient, RPA, STAB
   Michael Roemelt        : Original ROCIS implementation
   Masaaki Saitow         : Open-shell DLPNO-CCSD energy and density
   Barbara Sandhoefer     : DKH picture change effects
   Avijit Sen             : IP-ROCIS
   Kantharuban Sivalingam : CASSCF convergence, NEVPT2, FIC-MRCI
   Bernardo de Souza      : ESD, SOC TD-DFT
   Georgi Stoychev        : AutoAux, RI-MP2 NMR
   Willem Van den Heuvel  : Paramagnetic NMR
   Boris Wezisla          : Elementary symmetry handling
   Frank Wennmohs         : Technical directorship


 We gratefully acknowledge several colleagues who have allowed us to
 interface, adapt or use parts of their codes:
   Stefan Grimme, W. Hujo, H. Kruse, P. Pracht,  : VdW corrections, initial TS optimization,
                  C. Bannwarth, S. Ehlert          DFT functionals, gCP, sTDA/sTD-DF
   Ed Valeev, F. Pavosevic, A. Kumar             : LibInt (2-el integral package), F12 methods
   Garnet Chan, S. Sharma, J. Yang, R. Olivares  : DMRG
   Ulf Ekstrom                                   : XCFun DFT Library
   Mihaly Kallay                                 : mrcc  (arbitrary order and MRCC methods)
   Jiri Pittner, Ondrej Demel                    : Mk-CCSD
   Frank Weinhold                                : gennbo (NPA and NBO analysis)
   Christopher J. Cramer and Donald G. Truhlar   : smd solvation model
   Lars Goerigk                                  : TD-DFT with DH, B97 family of functionals
   V. Asgeirsson, H. Jonsson                     : NEB implementation
   FAccTs GmbH                                   : IRC, NEB, NEB-TS, DLPNO-Multilevel, CI-OPT
                                                   MM, QMMM, 2- and 3-layer-ONIOM, Crystal-QMMM,
                                                   LR-CPCM, SF, NACMEs, symmetry and pop. for TD-DFT,
                                                   nearIR, NL-DFT gradient (VV10), updates on ESD,
                                                   ML-optimized integration grids
   S Lehtola, MJT Oliveira, MAL Marques          : LibXC Library
   Liviu Ungur et al                             : ANISO software


 Your calculation uses the libint2 library for the computation of 2-el integrals
 For citations please refer to: http://libint.valeyev.net

 Your ORCA version has been built with support for libXC version: 5.1.0
 For citations please refer to: https://tddft.org/programs/libxc/

 This ORCA versions uses:
   CBLAS   interface :  Fast vector & matrix operations
   LAPACKE interface :  Fast linear algebra routines
   SCALAPACK package :  Parallel linear algebra routines
   Shared memory     :  Shared parallel matrices
   BLAS/LAPACK       :  OpenBLAS 0.3.15  USE64BITINT DYNAMIC_ARCH NO_AFFINITY Haswell SINGLE_THREADED
        Core in use  :  Haswell
   Copyright (c) 2011-2014, The OpenBLAS Project


================================================================================

----- Orbital basis set information -----
Your calculation utilizes the basis: aug-cc-pVTZ 
    H, B-Ne : Obtained from the ccRepo (grant-hill.group.shef.ac.uk/ccrepo) Feb. 2017
              R. A. Kendall, T. H. Dunning, Jr., R. J. Harrison, J. Chem. Phys. 96, 6796 (1992)
         He : Obtained from the ccRepo (grant-hill.group.shef.ac.uk/ccrepo) Feb. 2017
              D. E. Woon, T. H. Dunning, Jr., J. Chem. Phys. 100, 2975 (1994)
  Li-Be, Na : Obtained from the ccRepo (grant-hill.group.shef.ac.uk/ccrepo) Feb. 2017
              B. P. Prascher, D. E. Woon, K. A. Peterson, T. H. Dunning, Jr., A. K. Wilson, Theor. Chem. Acc. 128, 69 (2011)
         Mg : Obtained from the Peterson Research Group Website (tyr0.chem.wsu.edu/~kipeters) Feb. 2017
              B. P. Prascher, D. E. Woon, K. A. Peterson, T. H. Dunning, Jr., A. K. Wilson, Theor. Chem. Acc. 128, 69 (2011)
      Al-Ar : Obtained from the ccRepo (grant-hill.group.shef.ac.uk/ccrepo) Feb. 2017
              D. E. Woon, T. H. Dunning, Jr., J. Chem. Phys. 98, 1358 (1993)
      Sc-Zn : Obtained from the ccRepo (grant-hill.group.shef.ac.uk/ccrepo) Feb. 2017
              N. B. Balabanov, K. A. Peterson, J. Chem. Phys. 123, 064107 (2005)
              N. B. Balabanov, K. A. Peterson, J. Chem. Phys. 125, 074110 (2006)
      Ga-Kr : Obtained from the ccRepo (grant-hill.group.shef.ac.uk/ccrepo) Feb. 2017
              A. K. Wilson, D. E. Woon, K. A. Peterson, T. H. Dunning, Jr., J. Chem. Phys. 110, 7667 (1999)
     Ag, Au : Obtained from the Peterson Research Group Website (tyr0.chem.wsu.edu/~kipeters) Feb. 2017
              K. A. Peterson, C. Puzzarini, Theor. Chem. Acc. 114, 283 (2005)

----- AuxJ basis set information -----
Your calculation utilizes the auxiliary basis: def2/J
   F. Weigend, Phys. Chem. Chem. Phys. 8, 1057 (2006).

----- AuxC basis set information -----
Your calculation utilizes the auxiliary basis: aug-cc-pVTZ/C 
  H-He, B-F, Al-Ar, Ga-Kr : Obtained from the EMSL Basis Set Exchange (bse.pnl.gov) Feb. 2017
                            F. Weigend, A. Kohn, C. Hattig, J. Chem. Phys. 116, 3175 (2002)
                   Be, Mg : Obtained from the TURBOMOLE 7.0 basis set library
                            C. Haettig, Phys. Chem. Chem. Phys. 7, 59 (2005)
                       Ne : Obtained from the EMSL Basis Set Exchange (bse.pnl.gov) Feb. 2017
                            C. Haettig, Phys. Chem. Chem. Phys. 7, 59 (2005)
                            F. Weigend, A. Kohn, C. Hattig, J. Chem. Phys. 116, 3175 (2002)
                    Sc-Zn : Obtained from the EMSL Basis Set Exchange (bse.pnl.gov) Feb. 2017
                            J. G. Hill, J. A. Platts, J. Chem. Phys. 128, 044104 (2008)

================================================================================
                                        WARNINGS
                       Please study these warnings very carefully!
================================================================================


WARNING: Post HF methods need fully converged wavefunctions
  ===> : Setting SCFConvForced true
         You can overwrite this default with %scf ConvForced false 


WARNING: MDCI localization with Augmented Hessian Foster-Boys
  ===> : Switching off randomization!

INFO   : the flag for use of the SHARK integral package has been found!

================================================================================
                                       INPUT FILE
================================================================================
NAME = A_wt_dlpno_neg.com
|  1> !DLPNO-CCSD(T) aug-cc-pVTZ aug-cc-pVTZ/C TightSCF TightPNO RIJCOSX def2/J  
|  2> *xyz -1 1 
|  3> C          1.44442        5.26658       -0.97546
|  4> O          1.56525        4.23349       -1.86489
|  5> C         -1.07389        4.84473       -0.97990
|  6> C          0.14812        5.21087       -0.13809
|  7> H          1.47425        6.26464       -1.47692
|  8> H          2.28962        5.30327       -0.26445
|  9> H          0.26183        4.45094        0.64071
| 10> H         -0.00252        6.17103        0.37148
| 11> H         -1.20745        5.57445       -1.75098
| 12> H         -1.94291        4.82190       -0.35605
| 13> H         -0.92683        3.88150       -1.42201
| 14> *
| 15> %MaxCore 64000
| 16> 
| 17> %pal nprocs 8
| 18> end  
| 19> 
| 20> %scf
| 21>   MaxIter 150
| 22> end
| 23> 
| 24> 
| 25>                          ****END OF INPUT****
================================================================================

                       ****************************
                       * Single Point Calculation *
                       ****************************

---------------------------------
CARTESIAN COORDINATES (ANGSTROEM)
---------------------------------
  C      1.444420    5.266580   -0.975460
  O      1.565250    4.233490   -1.864890
  C     -1.073890    4.844730   -0.979900
  C      0.148120    5.210870   -0.138090
  H      1.474250    6.264640   -1.476920
  H      2.289620    5.303270   -0.264450
  H      0.261830    4.450940    0.640710
  H     -0.002520    6.171030    0.371480
  H     -1.207450    5.574450   -1.750980
  H     -1.942910    4.821900   -0.356050
  H     -0.926830    3.881500   -1.422010

----------------------------
CARTESIAN COORDINATES (A.U.)
----------------------------
  NO LB      ZA    FRAG     MASS         X           Y           Z
   0 C     6.0000    0    12.011    2.729558    9.952394   -1.843352
   1 O     8.0000    0    15.999    2.957894    8.000137   -3.524131
   2 C     6.0000    0    12.011   -2.029358    9.155213   -1.851743
   3 C     6.0000    0    12.011    0.279906    9.847117   -0.260952
   4 H     1.0000    0     1.008    2.785929   11.838454   -2.790974
   5 H     1.0000    0     1.008    4.326755   10.021728   -0.499738
   6 H     1.0000    0     1.008    0.494787    8.411058    1.210766
   7 H     1.0000    0     1.008   -0.004762   11.661557    0.701995
   8 H     1.0000    0     1.008   -2.281750   10.534184   -3.308873
   9 H     1.0000    0     1.008   -3.671568    9.112070   -0.672837
  10 H     1.0000    0     1.008   -1.751455    7.334972   -2.687209

--------------------------------
INTERNAL COORDINATES (ANGSTROEM)
--------------------------------
 C      0   0   0     0.000000000000     0.00000000     0.00000000
 O      1   0   0     1.368561493649     0.00000000     0.00000000
 C      1   2   0     2.553402121132    87.77825976     0.00000000
 C      3   1   2     1.528401457667    33.99547698   141.30378896
 H      1   2   3     1.117352103905   112.34928508   260.13232828
 H      1   2   3     1.105099278889   112.06614818   143.70145171
 H      4   3   1     1.094053476298   107.98529913   239.86224210
 H      4   3   1     1.097388363388   110.83023707   123.02997327
 H      3   1   2     1.069997158127    90.66976227   266.67563250
 H      3   1   2     1.070002706445   143.46713465   141.52192567
 H      3   1   2     1.069999966636    90.79606213    16.15980126

---------------------------
INTERNAL COORDINATES (A.U.)
---------------------------
 C      0   0   0     0.000000000000     0.00000000     0.00000000
 O      1   0   0     2.586206420428     0.00000000     0.00000000
 C      1   2   0     4.825230718713    87.77825976     0.00000000
 C      3   1   2     2.888260177678    33.99547698   141.30378896
 H      1   2   3     2.111489471540   112.34928508   260.13232828
 H      1   2   3     2.088334987893   112.06614818   143.70145171
 H      4   3   1     2.067461446068   107.98529913   239.86224210
 H      4   3   1     2.073763469356   110.83023707   123.02997327
 H      3   1   2     2.022001592934    90.66976227   266.67563250
 H      3   1   2     2.022012077736   143.46713465   141.52192567
 H      3   1   2     2.022006900246    90.79606213    16.15980126

---------------------
BASIS SET INFORMATION
---------------------
There are 3 groups of distinct atoms

 Group   1 Type C   : 19s6p3d2f contracted to 5s4p3d2f pattern {88111/3111/111/11}
 Group   2 Type O   : 19s6p3d2f contracted to 5s4p3d2f pattern {88111/3111/111/11}
 Group   3 Type H   : 6s3p2d contracted to 4s3p2d pattern {3111/111/11}

Atom   0C    basis set group =>   1
Atom   1O    basis set group =>   2
Atom   2C    basis set group =>   1
Atom   3C    basis set group =>   1
Atom   4H    basis set group =>   3
Atom   5H    basis set group =>   3
Atom   6H    basis set group =>   3
Atom   7H    basis set group =>   3
Atom   8H    basis set group =>   3
Atom   9H    basis set group =>   3
Atom  10H    basis set group =>   3
---------------------------------
AUXILIARY/J BASIS SET INFORMATION
---------------------------------
There are 3 groups of distinct atoms

 Group   1 Type C   : 12s5p4d2f1g contracted to 6s4p3d1f1g pattern {711111/2111/211/2/1}
 Group   2 Type O   : 12s5p4d2f1g contracted to 6s4p3d1f1g pattern {711111/2111/211/2/1}
 Group   3 Type H   : 5s2p1d contracted to 3s1p1d pattern {311/2/1}

Atom   0C    basis set group =>   1
Atom   1O    basis set group =>   2
Atom   2C    basis set group =>   1
Atom   3C    basis set group =>   1
Atom   4H    basis set group =>   3
Atom   5H    basis set group =>   3
Atom   6H    basis set group =>   3
Atom   7H    basis set group =>   3
Atom   8H    basis set group =>   3
Atom   9H    basis set group =>   3
Atom  10H    basis set group =>   3
---------------------------------
AUXILIARY/C BASIS SET INFORMATION
---------------------------------
There are 3 groups of distinct atoms

 Group   1 Type C   : 9s7p6d4f2g contracted to 9s7p6d4f2g pattern {111111111/1111111/111111/1111/11}
 Group   2 Type O   : 9s7p6d4f2g contracted to 9s7p6d4f2g pattern {111111111/1111111/111111/1111/11}
 Group   3 Type H   : 5s4p3d2f contracted to 5s4p3d2f pattern {11111/1111/111/11}

Atom   0C    basis set group =>   1
Atom   1O    basis set group =>   2
Atom   2C    basis set group =>   1
Atom   3C    basis set group =>   1
Atom   4H    basis set group =>   3
Atom   5H    basis set group =>   3
Atom   6H    basis set group =>   3
Atom   7H    basis set group =>   3
Atom   8H    basis set group =>   3
Atom   9H    basis set group =>   3
Atom  10H    basis set group =>   3


           ************************************************************
           *        Program running with 8 parallel MPI-processes     *
           *              working on a common directory               *
           ************************************************************
------------------------------------------------------------------------------
                           ORCA GTO INTEGRAL CALCULATION
                           -- RI-GTO INTEGRALS CHOSEN --
------------------------------------------------------------------------------
------------------------------------------------------------------------------
                   ___                                                        
                  /   \      - P O W E R E D   B Y -                         
                 /     \                                                     
                 |  |  |   _    _      __       _____    __    __             
                 |  |  |  | |  | |    /  \     |  _  \  |  |  /  |          
                  \  \/   | |  | |   /    \    | | | |  |  | /  /          
                 / \  \   | |__| |  /  /\  \   | |_| |  |  |/  /          
                |  |  |   |  __  | /  /__\  \  |    /   |      \           
                |  |  |   | |  | | |   __   |  |    \   |  |\   \          
                \     /   | |  | | |  |  |  |  | |\  \  |  | \   \       
                 \___/    |_|  |_| |__|  |__|  |_| \__\ |__|  \__/        
                                                                              
                      - O R C A' S   B I G   F R I E N D -                    
                                      &                                       
                       - I N T E G R A L  F E E D E R -                       
                                                                              
 v1 FN, 2020, v2 2021                                                         
------------------------------------------------------------------------------


Reading SHARK input file A_wt_dlpno_neg.SHARKINP.tmp ... ok
----------------------
SHARK INTEGRAL PACKAGE
----------------------

Number of atoms                             ...     11
Number of basis functions                   ...    345
Number of shells                            ...    119
Maximum angular momentum                    ...      3
Integral batch strategy                     ... SHARK/LIBINT Hybrid
RI-J (if used) integral strategy            ... SPLIT-RIJ (Revised 2003 algorithm where possible)
Printlevel                                  ...      1
Contraction scheme used                     ... SEGMENTED contraction
Coulomb Range Separation                    ... NOT USED
Exchange Range Separation                   ... NOT USED
Finite Nucleus Model                        ... NOT USED
Auxiliary Coulomb fitting basis             ... AVAILABLE
   # of basis functions in Aux-J            ...    273
   # of shells in Aux-J                     ...     95
   Maximum angular momentum in Aux-J        ...      4
Auxiliary J/K fitting basis                 ... NOT available
Auxiliary Correlation fitting basis         ... AVAILABLE
   # of basis functions in Aux-C            ...    746
   # of shells in Aux-C                     ...    210
   Maximum angular momentum in Aux-C        ...      4
Auxiliary 'external' fitting basis          ... NOT available
Integral threshold                          ...     2.500000e-11
Primitive cut-off                           ...     2.500000e-12
Primitive pair pre-selection threshold      ...     2.500000e-12

Calculating pre-screening integrals         ... done (  0.1 sec) Dimension = 119
Organizing shell pair data                  ... done (  0.1 sec)
Shell pair information
Total number of shell pairs                 ...      7140
Shell pairs after pre-screening             ...      7098
Total number of primitive shell pairs       ...     19760
Primitive shell pairs kept                  ...     16811
          la=0 lb=0:   1169 shell pairs
          la=1 lb=0:   1763 shell pairs
          la=1 lb=1:    697 shell pairs
          la=2 lb=0:   1243 shell pairs
          la=2 lb=1:    955 shell pairs
          la=2 lb=2:    349 shell pairs
          la=3 lb=0:    383 shell pairs
          la=3 lb=1:    295 shell pairs
          la=3 lb=2:    208 shell pairs
          la=3 lb=3:     36 shell pairs

Calculating one electron integrals          ... done (  0.0 sec)
Calculating RI/J V-Matrix + Cholesky decomp.... done (  0.0 sec)
Calculating RI/C V-Matrix + Cholesky decomp.... done (  0.0 sec)
Calculating Nuclear repulsion               ... done (  0.0 sec) ENN=    124.451367273038 Eh

SHARK setup successfully completed in   0.3 seconds

Maximum memory used throughout the entire GTOINT-calculation: 17.6 MB


           ************************************************************
           *        Program running with 8 parallel MPI-processes     *
           *              working on a common directory               *
           ************************************************************
-------------------------------------------------------------------------------
                                 ORCA SCF
-------------------------------------------------------------------------------

------------
SCF SETTINGS
------------
Hamiltonian:
 Ab initio Hamiltonian  Method          .... Hartree-Fock(GTOs)
 RI-approximation to the Coulomb term is turned on
   Number of AuxJ basis functions       .... 273
   RIJ-COSX (HFX calculated with COS-X)).... on


General Settings:
 Integral files         IntName         .... A_wt_dlpno_neg
 Hartree-Fock type      HFTyp           .... RHF
 Total Charge           Charge          ....   -1
 Multiplicity           Mult            ....    1
 Number of Electrons    NEL             ....   34
 Basis Dimension        Dim             ....  345
 Nuclear Repulsion      ENuc            ....    124.4513672730 Eh

Convergence Acceleration:
 DIIS                   CNVDIIS         .... on
   Start iteration      DIISMaxIt       ....    12
   Startup error        DIISStart       ....  0.200000
   # of expansion vecs  DIISMaxEq       ....     5
   Bias factor          DIISBfac        ....   1.050
   Max. coefficient     DIISMaxC        ....  10.000
 Trust-Rad. Augm. Hess. CNVTRAH         .... auto
   Auto Start mean grad. ratio tolernc. ....  1.125000
   Auto Start start iteration           ....    20
   Auto Start num. interpolation iter.  ....    10
   Max. Number of Micro iterations      ....    16
   Max. Number of Macro iterations      .... Maxiter - #DIIS iter
   Number of Davidson start vectors     ....     2
   Converg. threshold I  (grad. norm)   ....   1.000e-05
   Converg. threshold II (energy diff.) ....   1.000e-08
   Grad. Scal. Fac. for Micro threshold ....   0.100
   Minimum threshold for Micro iter.    ....   0.010
   NR start threshold (gradient norm)   ....   0.001
   Initial trust radius                 ....   0.400
   Minimum AH scaling param. (alpha)    ....   1.000
   Maximum AH scaling param. (alpha)    .... 1000.000
   Orbital update algorithm             .... Taylor
   White noise on init. David. guess    .... on
   Maximum white noise                  ....   0.010
   Quad. conv. algorithm                .... NR
 SOSCF                  CNVSOSCF        .... on
   Start iteration      SOSCFMaxIt      ....   150
   Startup grad/error   SOSCFStart      ....  0.003300
 Level Shifting         CNVShift        .... on
   Level shift para.    LevelShift      ....    0.2500
   Turn off err/grad.   ShiftErr        ....    0.0010
 Zerner damping         CNVZerner       .... off
 Static damping         CNVDamp         .... on
   Fraction old density DampFac         ....    0.7000
   Max. Damping (<1)    DampMax         ....    0.9800
   Min. Damping (>=0)   DampMin         ....    0.0000
   Turn off err/grad.   DampErr         ....    0.1000
 Fernandez-Rico         CNVRico         .... off

SCF Procedure:
 Maximum # iterations   MaxIter         ....   150
 SCF integral mode      SCFMode         .... Direct
   Integral package                     .... SHARK and LIBINT hybrid scheme
 Reset frequency        DirectResetFreq ....    20
 Integral Threshold     Thresh          ....  2.500e-11 Eh
 Primitive CutOff       TCut            ....  2.500e-12 Eh

Convergence Tolerance:
 Convergence Check Mode ConvCheckMode   .... Total+1el-Energy
 Convergence forced     ConvForced      .... 1
 Energy Change          TolE            ....  1.000e-08 Eh
 1-El. energy change                    ....  1.000e-05 Eh
 Orbital Gradient       TolG            ....  1.000e-05
 Orbital Rotation angle TolX            ....  1.000e-05
 DIIS Error             TolErr          ....  5.000e-07


Diagonalization of the overlap matrix:
Smallest eigenvalue                        ... 1.610e-05
Time for diagonalization                   ...    0.032 sec
Threshold for overlap eigenvalues          ... 1.000e-08
Number of eigenvalues below threshold      ... 0
Time for construction of square roots      ...    0.027 sec
Total time needed                          ...    0.061 sec

Time for model grid setup =    0.060 sec

------------------------------
INITIAL GUESS: MODEL POTENTIAL
------------------------------
Loading Hartree-Fock densities                     ... done
Calculating cut-offs                               ... done
Initializing the effective Hamiltonian             ... done
Setting up the integral package (SHARK)            ... done
Starting the Coulomb interaction                   ... done (   0.0 sec)
Reading the grid                                   ... done
Mapping shells                                     ... done
Starting the XC term evaluation                    ... done (   0.1 sec)
Transforming the Hamiltonian                       ... done (   0.0 sec)
Diagonalizing the Hamiltonian                      ... done (   0.0 sec)
Back transforming the eigenvectors                 ... done (   0.0 sec)
Now organizing SCF variables                       ... done
                      ------------------
                      INITIAL GUESS DONE (   0.2 sec)
                      ------------------
--------------------
COSX GRID GENERATION
--------------------

GRIDX 1
-------
General Integration Accuracy     IntAcc      ... 3.816
Radial Grid Type                 RadialGrid  ... OptM3 with GC (2021)
Angular Grid (max. ang.)         AngularGrid ... 1 (Lebedev-50)
Angular grid pruning method      GridPruning ... 4 (adaptive)
Weight generation scheme         WeightScheme... Becke
Basis function cutoff            BFCut       ... 1.0000e-11
Integration weight cutoff        WCut        ... 1.0000e-14
Angular grids for H and He will be reduced by one unit
Partially contracted basis set               ... on
Rotationally invariant grid construction     ... off

Total number of grid points                  ...     6197
Total number of batches                      ...      102
Average number of points per batch           ...       60
Average number of grid points per atom       ...      563
UseSFitting                                  ... on

GRIDX 2
-------
General Integration Accuracy     IntAcc      ... 4.020
Radial Grid Type                 RadialGrid  ... OptM3 with GC (2021)
Angular Grid (max. ang.)         AngularGrid ... 2 (Lebedev-110)
Angular grid pruning method      GridPruning ... 4 (adaptive)
Weight generation scheme         WeightScheme... Becke
Basis function cutoff            BFCut       ... 1.0000e-11
Integration weight cutoff        WCut        ... 1.0000e-14
Angular grids for H and He will be reduced by one unit
Partially contracted basis set               ... on
Rotationally invariant grid construction     ... off

Total number of grid points                  ...    14746
Total number of batches                      ...      235
Average number of points per batch           ...       62
Average number of grid points per atom       ...     1341
UseSFitting                                  ... on

GRIDX 3
-------
General Integration Accuracy     IntAcc      ... 4.338
Radial Grid Type                 RadialGrid  ... OptM3 with GC (2021)
Angular Grid (max. ang.)         AngularGrid ... 3 (Lebedev-194)
Angular grid pruning method      GridPruning ... 4 (adaptive)
Weight generation scheme         WeightScheme... Becke
Basis function cutoff            BFCut       ... 1.0000e-11
Integration weight cutoff        WCut        ... 1.0000e-14
Angular grids for H and He will be reduced by one unit
Partially contracted basis set               ... on
Rotationally invariant grid construction     ... off

Total number of grid points                  ...    33275
Total number of batches                      ...      526
Average number of points per batch           ...       63
Average number of grid points per atom       ...     3025
UseSFitting                                  ... on

Time for X-Grid setup             =    0.365 sec

 re-compute Schwartz prescreening matrix in partically contracted basis (1) ...done (   0.081 sec)
--------------
SCF ITERATIONS
--------------
ITER       Energy         Delta-E        Max-DP      RMS-DP      [F,P]     Damp
               ***  Starting incremental Fock matrix formation  ***
  0   -192.1576604330   0.000000000000 0.03384603  0.00086797  0.4250961 0.7000
  1   -192.3086428891  -0.150982456171 0.04824358  0.00082872  0.2351482 0.7000
                               ***Turning on DIIS***
  2   -192.3922604725  -0.083617583418 0.04089145  0.00062149  0.1118598 0.7000
  3   -193.1235134045  -0.731252931961 0.07164248  0.00129880  0.0860406 0.0000
  4   -192.4629125361   0.660600868394 0.02088367  0.00025158  0.0111618 0.0000
  5   -192.5614400386  -0.098527502494 0.01532026  0.00017212  0.0040269 0.0000
                      *** Initiating the SOSCF procedure ***
                           *** Shutting down DIIS ***
                      *** Re-Reading the Fockian *** 
                      *** Removing any level shift *** 
ITER      Energy       Delta-E        Grad      Rot      Max-DP    RMS-DP
  6   -192.55760045   0.0038395878  0.000964  0.000964  0.011334  0.000114
               *** Restarting incremental Fock matrix formation ***
  7   -192.55831168  -0.0007112260  0.000326  0.001196  0.014473  0.000177
  8   -192.55832316  -0.0000114838  0.000228  0.000839  0.009806  0.000107
  9   -192.55832602  -0.0000028631  0.000128  0.000083  0.001609  0.000031
 10   -192.55832643  -0.0000004114  0.000016  0.000028  0.000396  0.000007
 11   -192.55832647  -0.0000000344  0.000006  0.000011  0.000106  0.000001
                  ***Gradient check signals convergence***
              ***Rediagonalizing the Fockian in SOSCF/NRSCF***

               *****************************************************
               *                     SUCCESS                       *
               *           SCF CONVERGED AFTER  12 CYCLES          *
               *****************************************************

Old exchange energy                            =    -26.534974305 Eh
New exchange energy                            =    -26.534764882 Eh
Exchange energy change after final integration =      0.000209423 Eh
Total energy after final integration           =   -192.558117045 Eh
Final COS-X integration done in                =     2.729 sec

----------------
TOTAL SCF ENERGY
----------------

Total Energy       :         -192.55811704 Eh           -5239.77275 eV

Components:
Nuclear Repulsion  :          124.45136727 Eh            3386.49387 eV
Electronic Energy  :         -317.00948432 Eh           -8626.26662 eV
One Electron Energy:         -515.84976110 Eh          -14036.98563 eV
Two Electron Energy:          198.84027679 Eh            5410.71901 eV
Max COSX asymmetry :            0.00000982 Eh               0.00027 eV

Virial components:
Potential Energy   :         -385.02007373 Eh          -10476.92884 eV
Kinetic Energy     :          192.46195669 Eh            5237.15609 eV
Virial Ratio       :            2.00049963


---------------
SCF CONVERGENCE
---------------

  Last Energy change         ...    1.2980e-09  Tolerance :   1.0000e-08
  Last MAX-Density change    ...    2.2204e-15  Tolerance :   1.0000e-07
  Last RMS-Density change    ...    1.3458e-17  Tolerance :   5.0000e-09
  Last Orbital Gradient      ...    1.6344e-06  Tolerance :   1.0000e-05
  Last Orbital Rotation      ...    1.7189e-06  Tolerance :   1.0000e-05

             **** THE GBW FILE WAS UPDATED (A_wt_dlpno_neg.gbw) ****
             **** DENSITY A_wt_dlpno_neg.scfp WAS UPDATED ****
             **** ENERGY FILE WAS UPDATED (A_wt_dlpno_neg.en.tmp) ****
             **** THE GBW FILE WAS UPDATED (A_wt_dlpno_neg.gbw) ****
             **** DENSITY A_wt_dlpno_neg.scfp WAS UPDATED ****
----------------
ORBITAL ENERGIES
----------------

  NO   OCC          E(Eh)            E(eV) 
   0   2.0000     -20.206848      -549.8563 
   1   2.0000     -11.038807      -300.3812 
   2   2.0000     -11.033789      -300.2447 
   3   2.0000     -11.030507      -300.1553 
   4   2.0000      -0.999086       -27.1865 
   5   2.0000      -0.848313       -23.0838 
   6   2.0000      -0.705115       -19.1872 
   7   2.0000      -0.572059       -15.5665 
   8   2.0000      -0.440001       -11.9730 
   9   2.0000      -0.424874       -11.5614 
  10   2.0000      -0.366056        -9.9609 
  11   2.0000      -0.337830        -9.1928 
  12   2.0000      -0.302609        -8.2344 
  13   2.0000      -0.291160        -7.9229 
  14   2.0000      -0.258246        -7.0272 
  15   2.0000      -0.117103        -3.1865 
  16   2.0000      -0.112465        -3.0603 
  17   0.0000       0.123022         3.3476 
  18   0.0000       0.134765         3.6671 
  19   0.0000       0.137887         3.7521 
  20   0.0000       0.148708         4.0466 
  21   0.0000       0.154781         4.2118 
  22   0.0000       0.159162         4.3310 
  23   0.0000       0.164974         4.4892 
  24   0.0000       0.215887         5.8746 
  25   0.0000       0.216983         5.9044 
  26   0.0000       0.228587         6.2202 
  27   0.0000       0.236036         6.4229 
  28   0.0000       0.247209         6.7269 
  29   0.0000       0.251328         6.8390 
  30   0.0000       0.261993         7.1292 
  31   0.0000       0.269846         7.3429 
  32   0.0000       0.280186         7.6243 
  33   0.0000       0.291439         7.9305 
  34   0.0000       0.316933         8.6242 
  35   0.0000       0.330529         8.9942 
  36   0.0000       0.344927         9.3859 
  37   0.0000       0.369297        10.0491 
  38   0.0000       0.372748        10.1430 
  39   0.0000       0.383767        10.4428 
  40   0.0000       0.397496        10.8164 
  41   0.0000       0.419811        11.4236 
  42   0.0000       0.424907        11.5623 
  43   0.0000       0.432219        11.7613 
  44   0.0000       0.445125        12.1125 
  45   0.0000       0.448017        12.1912 
  46   0.0000       0.460838        12.5400 
  47   0.0000       0.475439        12.9373 
  48   0.0000       0.483005        13.1432 
  49   0.0000       0.485481        13.2106 
  50   0.0000       0.490186        13.3387 
  51   0.0000       0.502290        13.6680 
  52   0.0000       0.508094        13.8260 
  53   0.0000       0.511134        13.9087 
  54   0.0000       0.518498        14.1090 
  55   0.0000       0.523507        14.2453 
  56   0.0000       0.533559        14.5189 
  57   0.0000       0.537300        14.6207 
  58   0.0000       0.548305        14.9201 
  59   0.0000       0.565910        15.3992 
  60   0.0000       0.576523        15.6880 
  61   0.0000       0.591012        16.0822 
  62   0.0000       0.595934        16.2162 
  63   0.0000       0.603436        16.4203 
  64   0.0000       0.611226        16.6323 
  65   0.0000       0.615601        16.7513 
  66   0.0000       0.628695        17.1077 
  67   0.0000       0.641651        17.4602 
  68   0.0000       0.649166        17.6647 
  69   0.0000       0.652776        17.7629 
  70   0.0000       0.654904        17.8208 
  71   0.0000       0.664622        18.0853 
  72   0.0000       0.669771        18.2254 
  73   0.0000       0.676417        18.4062 
  74   0.0000       0.688331        18.7304 
  75   0.0000       0.696503        18.9528 
  76   0.0000       0.712044        19.3757 
  77   0.0000       0.715546        19.4710 
  78   0.0000       0.720736        19.6122 
  79   0.0000       0.738599        20.0983 
  80   0.0000       0.761500        20.7215 
  81   0.0000       0.768207        20.9040 
  82   0.0000       0.792495        21.5649 
  83   0.0000       0.801746        21.8166 
  84   0.0000       0.831538        22.6273 
  85   0.0000       0.864231        23.5169 
  86   0.0000       0.896228        24.3876 
  87   0.0000       0.928209        25.2579 
  88   0.0000       0.946316        25.7506 
  89   0.0000       0.959950        26.1216 
  90   0.0000       0.960597        26.1392 
  91   0.0000       0.972896        26.4738 
  92   0.0000       0.988523        26.8991 
  93   0.0000       0.992910        27.0184 
  94   0.0000       1.009755        27.4768 
  95   0.0000       1.024545        27.8793 
  96   0.0000       1.029463        28.0131 
  97   0.0000       1.036335        28.2001 
  98   0.0000       1.045672        28.4542 
  99   0.0000       1.053617        28.6704 
 100   0.0000       1.055272        28.7154 
 101   0.0000       1.074393        29.2357 
 102   0.0000       1.091154        29.6918 
 103   0.0000       1.101204        29.9653 
 104   0.0000       1.116042        30.3691 
 105   0.0000       1.119640        30.4670 
 106   0.0000       1.128328        30.7034 
 107   0.0000       1.146083        31.1865 
 108   0.0000       1.152536        31.3621 
 109   0.0000       1.171520        31.8787 
 110   0.0000       1.177878        32.0517 
 111   0.0000       1.186443        32.2847 
 112   0.0000       1.204090        32.7649 
 113   0.0000       1.208896        32.8957 
 114   0.0000       1.227030        33.3892 
 115   0.0000       1.239095        33.7175 
 116   0.0000       1.256018        34.1780 
 117   0.0000       1.260421        34.2978 
 118   0.0000       1.268956        34.5301 
 119   0.0000       1.276691        34.7405 
 120   0.0000       1.289166        35.0800 
 121   0.0000       1.293563        35.1996 
 122   0.0000       1.307725        35.5850 
 123   0.0000       1.319041        35.8929 
 124   0.0000       1.325649        36.0727 
 125   0.0000       1.346746        36.6468 
 126   0.0000       1.350238        36.7419 
 127   0.0000       1.364263        37.1235 
 128   0.0000       1.376213        37.4487 
 129   0.0000       1.389155        37.8008 
 130   0.0000       1.390422        37.8353 
 131   0.0000       1.402139        38.1541 
 132   0.0000       1.412622        38.4394 
 133   0.0000       1.426142        38.8073 
 134   0.0000       1.440298        39.1925 
 135   0.0000       1.459664        39.7195 
 136   0.0000       1.470047        40.0020 
 137   0.0000       1.495090        40.6835 
 138   0.0000       1.515109        41.2282 
 139   0.0000       1.531727        41.6804 
 140   0.0000       1.543417        41.9985 
 141   0.0000       1.553543        42.2741 
 142   0.0000       1.586982        43.1840 
 143   0.0000       1.605143        43.6782 
 144   0.0000       1.611196        43.8429 
 145   0.0000       1.635891        44.5148 
 146   0.0000       1.648872        44.8681 
 147   0.0000       1.670348        45.4525 
 148   0.0000       1.686690        45.8972 
 149   0.0000       1.709062        46.5060 
 150   0.0000       1.742500        47.4158 
 151   0.0000       1.752541        47.6891 
 152   0.0000       1.765060        48.0297 
 153   0.0000       1.788719        48.6735 
 154   0.0000       1.801150        49.0118 
 155   0.0000       1.809494        49.2388 
 156   0.0000       1.819463        49.5101 
 157   0.0000       1.845694        50.2239 
 158   0.0000       1.854996        50.4770 
 159   0.0000       1.858906        50.5834 
 160   0.0000       1.876321        51.0573 
 161   0.0000       1.889764        51.4231 
 162   0.0000       1.899496        51.6879 
 163   0.0000       1.918823        52.2138 
 164   0.0000       1.934925        52.6520 
 165   0.0000       1.942931        52.8698 
 166   0.0000       1.966918        53.5226 
 167   0.0000       1.978388        53.8347 
 168   0.0000       1.985534        54.0291 
 169   0.0000       1.997811        54.3632 
 170   0.0000       2.029501        55.2255 
 171   0.0000       2.048830        55.7515 
 172   0.0000       2.067143        56.2498 
 173   0.0000       2.073157        56.4135 
 174   0.0000       2.089797        56.8663 
 175   0.0000       2.109205        57.3944 
 176   0.0000       2.122912        57.7674 
 177   0.0000       2.136449        58.1357 
 178   0.0000       2.152457        58.5713 
 179   0.0000       2.164754        58.9060 
 180   0.0000       2.180031        59.3217 
 181   0.0000       2.216468        60.3132 
 182   0.0000       2.231111        60.7116 
 183   0.0000       2.234405        60.8013 
 184   0.0000       2.286111        62.2082 
 185   0.0000       2.319639        63.1206 
 186   0.0000       2.329662        63.3933 
 187   0.0000       2.358469        64.1772 
 188   0.0000       2.380179        64.7680 
 189   0.0000       2.414039        65.6894 
 190   0.0000       2.417885        65.7940 
 191   0.0000       2.444236        66.5110 
 192   0.0000       2.455138        66.8077 
 193   0.0000       2.476127        67.3788 
 194   0.0000       2.487519        67.6888 
 195   0.0000       2.514604        68.4259 
 196   0.0000       2.548183        69.3396 
 197   0.0000       2.594400        70.5972 
 198   0.0000       2.603338        70.8404 
 199   0.0000       2.652764        72.1854 
 200   0.0000       2.662802        72.4585 
 201   0.0000       2.700610        73.4873 
 202   0.0000       2.751463        74.8711 
 203   0.0000       2.767436        75.3058 
 204   0.0000       2.819254        76.7158 
 205   0.0000       2.833294        77.0978 
 206   0.0000       2.883768        78.4713 
 207   0.0000       2.936486        79.9059 
 208   0.0000       2.957410        80.4752 
 209   0.0000       3.000897        81.6585 
 210   0.0000       3.015803        82.0642 
 211   0.0000       3.076092        83.7047 
 212   0.0000       3.186412        86.7067 
 213   0.0000       3.204340        87.1945 
 214   0.0000       3.239146        88.1416 
 215   0.0000       3.290602        89.5418 
 216   0.0000       3.367995        91.6478 
 217   0.0000       3.397232        92.4434 
 218   0.0000       3.440348        93.6166 
 219   0.0000       3.481045        94.7240 
 220   0.0000       3.532679        96.1291 
 221   0.0000       3.561041        96.9008 
 222   0.0000       3.604936        98.0953 
 223   0.0000       3.626851        98.6916 
 224   0.0000       3.665466        99.7424 
 225   0.0000       3.707894       100.8969 
 226   0.0000       3.728744       101.4643 
 227   0.0000       3.767671       102.5235 
 228   0.0000       3.774708       102.7150 
 229   0.0000       3.793413       103.2240 
 230   0.0000       3.825550       104.0985 
 231   0.0000       3.850374       104.7740 
 232   0.0000       3.866095       105.2018 
 233   0.0000       3.872029       105.3633 
 234   0.0000       3.903614       106.2227 
 235   0.0000       3.928900       106.9108 
 236   0.0000       3.950505       107.4987 
 237   0.0000       3.960579       107.7728 
 238   0.0000       3.991557       108.6158 
 239   0.0000       4.007751       109.0565 
 240   0.0000       4.056154       110.3736 
 241   0.0000       4.070463       110.7629 
 242   0.0000       4.080627       111.0395 
 243   0.0000       4.086511       111.1996 
 244   0.0000       4.124294       112.2277 
 245   0.0000       4.135997       112.5462 
 246   0.0000       4.166513       113.3766 
 247   0.0000       4.173197       113.5585 
 248   0.0000       4.188958       113.9873 
 249   0.0000       4.213599       114.6579 
 250   0.0000       4.221663       114.8773 
 251   0.0000       4.226181       115.0002 
 252   0.0000       4.284732       116.5935 
 253   0.0000       4.306606       117.1887 
 254   0.0000       4.325059       117.6908 
 255   0.0000       4.359261       118.6215 
 256   0.0000       4.372555       118.9833 
 257   0.0000       4.377195       119.1095 
 258   0.0000       4.399596       119.7191 
 259   0.0000       4.437002       120.7370 
 260   0.0000       4.438717       120.7836 
 261   0.0000       4.485145       122.0470 
 262   0.0000       4.491005       122.2064 
 263   0.0000       4.540271       123.5471 
 264   0.0000       4.575547       124.5070 
 265   0.0000       4.588967       124.8721 
 266   0.0000       4.617178       125.6398 
 267   0.0000       4.648798       126.5002 
 268   0.0000       4.685961       127.5115 
 269   0.0000       4.734585       128.8346 
 270   0.0000       4.752777       129.3296 
 271   0.0000       4.766019       129.6900 
 272   0.0000       4.829362       131.4136 
 273   0.0000       4.844446       131.8241 
 274   0.0000       4.859886       132.2442 
 275   0.0000       4.910727       133.6277 
 276   0.0000       4.924419       134.0002 
 277   0.0000       4.985543       135.6635 
 278   0.0000       5.020529       136.6156 
 279   0.0000       5.031304       136.9087 
 280   0.0000       5.047820       137.3582 
 281   0.0000       5.076399       138.1358 
 282   0.0000       5.098266       138.7309 
 283   0.0000       5.105617       138.9309 
 284   0.0000       5.119065       139.2968 
 285   0.0000       5.182157       141.0137 
 286   0.0000       5.194912       141.3607 
 287   0.0000       5.216386       141.9451 
 288   0.0000       5.251257       142.8940 
 289   0.0000       5.274708       143.5321 
 290   0.0000       5.317591       144.6990 
 291   0.0000       5.325356       144.9103 
 292   0.0000       5.341146       145.3400 
 293   0.0000       5.384162       146.5105 
 294   0.0000       5.451393       148.3399 
 295   0.0000       5.481675       149.1639 
 296   0.0000       5.499570       149.6509 
 297   0.0000       5.519650       150.1973 
 298   0.0000       5.545991       150.9141 
 299   0.0000       5.568832       151.5356 
 300   0.0000       5.579726       151.8321 
 301   0.0000       5.622110       152.9854 
 302   0.0000       5.638613       153.4345 
 303   0.0000       5.655187       153.8855 
 304   0.0000       5.732359       155.9854 
 305   0.0000       5.765162       156.8780 
 306   0.0000       5.796193       157.7224 
 307   0.0000       5.811286       158.1331 
 308   0.0000       5.843042       158.9973 
 309   0.0000       5.861808       159.5079 
 310   0.0000       5.931661       161.4087 
 311   0.0000       5.997887       163.2108 
 312   0.0000       6.024419       163.9328 
 313   0.0000       6.109338       166.2435 
 314   0.0000       6.191584       168.4816 
 315   0.0000       6.217117       169.1764 
 316   0.0000       6.255707       170.2264 
 317   0.0000       6.296056       171.3244 
 318   0.0000       6.330000       172.2481 
 319   0.0000       6.412237       174.4858 
 320   0.0000       6.456905       175.7013 
 321   0.0000       6.470691       176.0765 
 322   0.0000       6.539397       177.9460 
 323   0.0000       6.615701       180.0224 
 324   0.0000       6.654239       181.0711 
 325   0.0000       6.901859       187.8091 
 326   0.0000       6.952160       189.1779 
 327   0.0000       6.963462       189.4854 
 328   0.0000       7.045597       191.7204 
 329   0.0000       7.070971       192.4109 
 330   0.0000       7.112059       193.5290 
 331   0.0000       7.314553       199.0391 
 332   0.0000       7.344939       199.8659 
 333   0.0000       7.472093       203.3260 
 334   0.0000       7.508306       204.3114 
 335   0.0000       7.675345       208.8567 
 336   0.0000       7.744754       210.7455 
 337   0.0000       7.772771       211.5079 
 338   0.0000       8.134687       221.3561 
 339   0.0000       8.162018       222.0998 
 340   0.0000       8.165880       222.2049 
 341   0.0000      14.590064       397.0158 
 342   0.0000      17.779593       483.8073 
 343   0.0000      18.197726       495.1853 
 344   0.0000      18.800375       511.5842 

                    ********************************
                    * MULLIKEN POPULATION ANALYSIS *
                    ********************************

-----------------------
MULLIKEN ATOMIC CHARGES
-----------------------
   0 C :   -0.191829
   1 O :   -1.137616
   2 C :   -0.940801
   3 C :   -0.494846
   4 H :    0.190786
   5 H :    0.204279
   6 H :    0.253088
   7 H :    0.221658
   8 H :    0.302961
   9 H :    0.258217
  10 H :    0.334102
Sum of atomic charges:   -1.0000000

--------------------------------
MULLIKEN REDUCED ORBITAL CHARGES
--------------------------------
  0 C s       :     3.146701  s :     3.146701
      pz      :     0.871928  p :     2.708409
      px      :     0.914951
      py      :     0.921529
      dz2     :     0.053011  d :     0.316018
      dxz     :     0.105673
      dyz     :     0.036438
      dx2y2   :     0.087704
      dxy     :     0.033191
      f0      :     0.003831  f :     0.020702
      f+1     :     0.002899
      f-1     :     0.002546
      f+2     :     0.004775
      f-2     :     0.003000
      f+3     :     0.003444
      f-3     :     0.000206
  1 O s       :     3.964042  s :     3.964042
      pz      :     1.665530  p :     5.139197
      px      :     1.918780
      py      :     1.554886
      dz2     :     0.005347  d :     0.030642
      dxz     :     0.004703
      dyz     :     0.011363
      dx2y2   :     0.004586
      dxy     :     0.004643
      f0      :     0.000352  f :     0.003735
      f+1     :     0.000202
      f-1     :     0.000894
      f+2     :     0.001010
      f-2     :     0.000728
      f+3     :     0.000225
      f-3     :     0.000324
  2 C s       :     3.212618  s :     3.212618
      pz      :     1.202559  p :     3.569355
      px      :     1.080479
      py      :     1.286317
      dz2     :    -0.002057  d :     0.146966
      dxz     :     0.051280
      dyz     :     0.048411
      dx2y2   :     0.048503
      dxy     :     0.000830
      f0      :     0.001702  f :     0.011862
      f+1     :     0.003066
      f-1     :     0.001193
      f+2     :     0.003598
      f-2     :     0.000364
      f+3     :     0.000001
      f-3     :     0.001939
  3 C s       :     3.086707  s :     3.086707
      pz      :     1.129706  p :     3.291435
      px      :     1.022354
      py      :     1.139374
      dz2     :     0.002161  d :     0.121644
      dxz     :     0.020731
      dyz     :     0.081652
      dx2y2   :     0.038146
      dxy     :    -0.021047
      f0      :     0.000683  f :    -0.004939
      f+1     :    -0.001932
      f-1     :    -0.000296
      f+2     :     0.002298
      f-2     :    -0.005421
      f+3     :    -0.001717
      f-3     :     0.001444
  4 H s       :     0.770187  s :     0.770187
      pz      :     0.007041  p :     0.037805
      px      :     0.001980
      py      :     0.028784
      dz2     :     0.000175  d :     0.001222
      dxz     :     0.002210
      dyz     :     0.000202
      dx2y2   :    -0.003826
      dxy     :     0.002461
  5 H s       :     0.749192  s :     0.749192
      pz      :     0.006337  p :     0.044445
      px      :     0.031192
      py      :     0.006916
      dz2     :     0.000934  d :     0.002084
      dxz     :    -0.000542
      dyz     :    -0.001505
      dx2y2   :     0.001885
      dxy     :     0.001312
  6 H s       :     0.674109  s :     0.674109
      pz      :     0.027145  p :     0.063392
      px      :     0.022405
      py      :     0.013842
      dz2     :     0.002203  d :     0.009410
      dxz     :     0.004650
      dyz     :    -0.000115
      dx2y2   :     0.001151
      dxy     :     0.001521
  7 H s       :     0.697185  s :     0.697185
      pz      :     0.028934  p :     0.070027
      px      :     0.023852
      py      :     0.017241
      dz2     :     0.001393  d :     0.011130
      dxz     :     0.003096
      dyz     :     0.002590
      dx2y2   :     0.000673
      dxy     :     0.003377
  8 H s       :     0.623366  s :     0.623366
      pz      :     0.030317  p :     0.066817
      px      :     0.015425
      py      :     0.021075
      dz2     :     0.002082  d :     0.006857
      dxz     :     0.003382
      dyz     :    -0.001095
      dx2y2   :     0.001582
      dxy     :     0.000906
  9 H s       :     0.663849  s :     0.663849
      pz      :     0.020614  p :     0.069149
      px      :     0.030776
      py      :     0.017759
      dz2     :     0.002579  d :     0.008785
      dxz     :     0.000274
      dyz     :     0.001362
      dx2y2   :     0.002048
      dxy     :     0.002521
 10 H s       :     0.590925  s :     0.590925
      pz      :     0.030188  p :     0.069430
      px      :     0.017355
      py      :     0.021886
      dz2     :     0.000838  d :     0.005543
      dxz     :     0.001734
      dyz     :     0.001491
      dx2y2   :    -0.001132
      dxy     :     0.002612


                     *******************************
                     * LOEWDIN POPULATION ANALYSIS *
                     *******************************

----------------------
LOEWDIN ATOMIC CHARGES
----------------------
   0 C :   -0.389564
   1 O :    0.127640
   2 C :    0.534311
   3 C :    0.184216
   4 H :   -0.223311
   5 H :   -0.237095
   6 H :   -0.181909
   7 H :   -0.184342
   8 H :   -0.197830
   9 H :   -0.217747
  10 H :   -0.214369

-------------------------------
LOEWDIN REDUCED ORBITAL CHARGES
-------------------------------
  0 C s       :     2.466933  s :     2.466933
      pz      :     0.743363  p :     2.215274
      px      :     0.728752
      py      :     0.743158
      dz2     :     0.195652  d :     1.179562
      dxz     :     0.291230
      dyz     :     0.263507
      dx2y2   :     0.283931
      dxy     :     0.145242
      f0      :     0.067442  f :     0.527795
      f+1     :     0.055501
      f-1     :     0.100654
      f+2     :     0.081631
      f-2     :     0.102486
      f+3     :     0.064240
      f-3     :     0.055840
  1 O s       :     3.255040  s :     3.255040
      pz      :     1.435765  p :     4.340984
      px      :     1.510044
      py      :     1.395175
      dz2     :     0.046648  d :     0.217897
      dxz     :     0.039671
      dyz     :     0.053289
      dx2y2   :     0.048031
      dxy     :     0.030258
      f0      :     0.004356  f :     0.058439
      f+1     :     0.003494
      f-1     :     0.017125
      f+2     :     0.009293
      f-2     :     0.012940
      f+3     :     0.004193
      f-3     :     0.007038
  2 C s       :     2.443894  s :     2.443894
      pz      :     0.748443  p :     2.260020
      px      :     0.742761
      py      :     0.768816
      dz2     :     0.058822  d :     0.568917
      dxz     :     0.159948
      dyz     :     0.138876
      dx2y2   :     0.146780
      dxy     :     0.064492
      f0      :     0.018148  f :     0.192858
      f+1     :     0.045333
      f-1     :     0.013595
      f+2     :     0.035344
      f-2     :     0.029706
      f+3     :     0.026079
      f-3     :     0.024652
  3 C s       :     2.445291  s :     2.445291
      pz      :     0.741300  p :     2.227177
      px      :     0.742477
      py      :     0.743401
      dz2     :     0.101989  d :     0.806459
      dxz     :     0.187220
      dyz     :     0.207591
      dx2y2   :     0.202833
      dxy     :     0.106827
      f0      :     0.023454  f :     0.336857
      f+1     :     0.090349
      f-1     :     0.016191
      f+2     :     0.044598
      f-2     :     0.064406
      f+3     :     0.054562
      f-3     :     0.043297
  4 H s       :     0.680713  s :     0.680713
      pz      :     0.092429  p :     0.312340
      px      :     0.079634
      py      :     0.140278
      dz2     :     0.029209  d :     0.230258
      dxz     :     0.041490
      dyz     :     0.061428
      dx2y2   :     0.047496
      dxy     :     0.050635
  5 H s       :     0.684093  s :     0.684093
      pz      :     0.120832  p :     0.318267
      px      :     0.114912
      py      :     0.082523
      dz2     :     0.046966  d :     0.234735
      dxz     :     0.050042
      dyz     :     0.054183
      dx2y2   :     0.048094
      dxy     :     0.035451
  6 H s       :     0.649970  s :     0.649970
      pz      :     0.105742  p :     0.304736
      px      :     0.082559
      py      :     0.116434
      dz2     :     0.051416  d :     0.227204
      dxz     :     0.053361
      dyz     :     0.043049
      dx2y2   :     0.048514
      dxy     :     0.030864
  7 H s       :     0.656564  s :     0.656564
      pz      :     0.093278  p :     0.302596
      px      :     0.079323
      py      :     0.129996
      dz2     :     0.030419  d :     0.225182
      dxz     :     0.032674
      dyz     :     0.059682
      dx2y2   :     0.051291
      dxy     :     0.051116
  8 H s       :     0.648203  s :     0.648203
      pz      :     0.115884  p :     0.320048
      px      :     0.086439
      py      :     0.117725
      dz2     :     0.055599  d :     0.229579
      dxz     :     0.058218
      dyz     :     0.042492
      dx2y2   :     0.046558
      dxy     :     0.026711
  9 H s       :     0.660118  s :     0.660118
      pz      :     0.112427  p :     0.327455
      px      :     0.122128
      py      :     0.092901
      dz2     :     0.045193  d :     0.230173
      dxz     :     0.052223
      dyz     :     0.046060
      dx2y2   :     0.040774
      dxy     :     0.045923
 10 H s       :     0.636649  s :     0.636649
      pz      :     0.095574  p :     0.336321
      px      :     0.104708
      py      :     0.136040
      dz2     :     0.028389  d :     0.241398
      dxz     :     0.035192
      dyz     :     0.063309
      dx2y2   :     0.058482
      dxy     :     0.056026


                      *****************************
                      * MAYER POPULATION ANALYSIS *
                      *****************************

  NA   - Mulliken gross atomic population
  ZA   - Total nuclear charge
  QA   - Mulliken gross atomic charge
  VA   - Mayer's total valence
  BVA  - Mayer's bonded valence
  FA   - Mayer's free valence

  ATOM       NA         ZA         QA         VA         BVA        FA
  0 C      6.1918     6.0000    -0.1918     4.1048     4.1048     0.0000
  1 O      9.1376     8.0000    -1.1376     1.1075     1.1075    -0.0000
  2 C      6.9408     6.0000    -0.9408     3.7475     3.7475     0.0000
  3 C      6.4948     6.0000    -0.4948     3.6690     3.6690    -0.0000
  4 H      0.8092     1.0000     0.1908     1.0288     1.0288     0.0000
  5 H      0.7957     1.0000     0.2043     1.0122     1.0122     0.0000
  6 H      0.7469     1.0000     0.2531     1.0510     1.0510    -0.0000
  7 H      0.7783     1.0000     0.2217     1.0790     1.0790    -0.0000
  8 H      0.6970     1.0000     0.3030     1.0369     1.0369     0.0000
  9 H      0.7418     1.0000     0.2582     1.0404     1.0404    -0.0000
 10 H      0.6659     1.0000     0.3341     1.0082     1.0082     0.0000

  Mayer bond orders larger than 0.100000
B(  0-C ,  1-O ) :   1.0959 B(  0-C ,  3-C ) :   0.8472 B(  0-C ,  4-H ) :   1.0004 
B(  0-C ,  5-H ) :   1.0498 B(  2-C ,  3-C ) :   0.8140 B(  2-C ,  8-H ) :   0.9220 
B(  2-C ,  9-H ) :   0.9841 B(  2-C , 10-H ) :   0.8999 B(  3-C ,  6-H ) :   0.9505 
B(  3-C ,  7-H ) :   0.9613 

-------
TIMINGS
-------

Total SCF time: 0 days 0 hours 0 min 17 sec 

Total time                  ....      17.801 sec
Sum of individual times     ....      17.368 sec  ( 97.6%)

Fock matrix formation       ....      16.306 sec  ( 91.6%)
  Split-RI-J                ....       1.594 sec  (  9.8% of F)
  Chain of spheres X        ....      14.556 sec  ( 89.3% of F)
Diagonalization             ....       0.216 sec  (  1.2%)
Density matrix formation    ....       0.013 sec  (  0.1%)
Population analysis         ....       0.023 sec  (  0.1%)
Initial guess               ....       0.137 sec  (  0.8%)
Orbital Transformation      ....       0.000 sec  (  0.0%)
Orbital Orthonormalization  ....       0.000 sec  (  0.0%)
DIIS solution               ....       0.108 sec  (  0.6%)
SOSCF solution              ....       0.140 sec  (  0.8%)

Maximum memory used throughout the entire SCF-calculation: 79.4 MB


           ************************************************************
           *        Program running with 8 parallel MPI-processes     *
           *              working on a common directory               *
           ************************************************************


------------------------------------------------------------------------------- 
                              ORCA-MATRIX DRIVEN CI                            
------------------------------------------------------------------------------- 


Wavefunction type
-----------------
Correlation treatment                      ...      CCSD     
Single excitations                         ... ON
Orbital optimization                       ... OFF
Calculation of Z vector                    ... OFF
Calculation of Brueckner orbitals          ... OFF
Perturbative triple excitations            ... ON
Calculation of F12 correction              ... OFF
Frozen core treatment                      ... chemical core (8 el)
Reference Wavefunction                     ... RHF
  Internal Orbitals:     4 ...   16 ( 13 MO's/ 26 electrons)
  Virtual  Orbitals:    17 ...  344 (328 MO's              )
Number of AO's                             ...    345
Number of electrons                        ...     34
Number of correlated electrons             ...     26

Algorithmic settings
--------------------
Integral transformation                    ... All integrals via the RI transformation
K(C) Formation                             ... RI-DLPNO
   PNO-Integral Storage                    ... ON DISK
   PNO occupation number cut-off           ... 1.000e-07
   Singles PNO occupation number cut-off   ... 3.000e-09
   PNO Mulliken prescreening cut-off       ... 1.000e-03
   Domain cut-off (Mulliken population)    ... 1.000e-03
   PNO Normalization                       ...    1
Maximum number of iterations               ...        50
Convergence tolerance (max. residuum)      ... 1.000e-05
Level shift for amplitude update           ... 2.000e-01
Maximum number of DIIS vectors             ...         7
DIIS turned on at iteration                ...         0
Damping before turning on DIIS             ...     0.500
Damping after turning on DIIS              ...     0.000
Pair specific amplitude update             ... OFF
Natural orbital iterations                 ... OFF
Perturbative natural orbital generation    ... OFF
Printlevel                                 ... 2

Singles Fock matrix elements calculated using PNOs.

Memory handling:
----------------
Maximum memory for working arrays          ...  64000 MB
Data storage in matrix containers          ... UNCOMPRESSED
Data type for integral storage             ... DOUBLE
In-Core Storage of quantities:
   Amplitudes+Sigma Vector      ... NO
   J+K operators                ... NO
   DIIS vectors                 ... NO
   3-external integrals         ... NO
   4-external integrals         ... NO

Localization treatment:
-----------------------
Localization option                        ...    6
Localization threshhold                    ... -1.0e+00
Using relative localization threshhold     ... 1.0e-08
Neglect threshold for strong pairs         ... 1.000e-05 Eh
Prescreening threshold for very weak pairs ... 1.000e-07 Eh

Initializing the integral package          ... done
Localizing the valence orbitals
------------------------------------------------------------------------------
                           ORCA ORBITAL LOCALIZATION
------------------------------------------------------------------------------

Input orbitals are from                  ... A_wt_dlpno_neg.gbw
Output orbitals are to                   ... A_wt_dlpno_neg.loc
Max. number of iterations                ... 128
Localizations seeded randomly            ... off
Convergence tolerance                    ... 1.000e-06
Using relative localization threshhold   ... 1.000e-08
Treshold for strong local MOs            ... 9.500e-01
Treshold for bond MOs                    ... 8.500e-01
Operator                                 ... 0
Orbital range for localization           ... 4 to 16
Localization criterion                   ... FOSTER-BOYS (AUGMENTED HESSIAN)
Doing the dipole integrals     ... o.k.
Initial value of the localization sum :  1251.801875
ITERATION   0 : L= 1283.8358708764 DL=  3.20e+01 (AVERGE_DL)=    0.6408527514 
ITERATION   1 : L= 1286.4889383912 DL=  2.65e+00 (AVERGE_DL)=    0.1844279970 
ITERATION   2 : L= 1286.5334876357 DL=  4.45e-02 (AVERGE_DL)=    0.0238986226 
ITERATION   3 : L= 1286.5355296072 DL=  2.04e-03 (AVERGE_DL)=    0.0051165536 
ITERATION   4 : L= 1286.5367247880 DL=  1.20e-03 (AVERGE_DL)=    0.0039144388 
ITERATION   5 : L= 1286.5377806319 DL=  1.06e-03 (AVERGE_DL)=    0.0036791929 
ITERATION   6 : L= 1286.5385994013 DL=  8.19e-04 (AVERGE_DL)=    0.0032399143 
ITERATION   7 : L= 1286.5391916145 DL=  5.92e-04 (AVERGE_DL)=    0.0027554450 
ITERATION   8 : L= 1286.5396069771 DL=  4.15e-04 (AVERGE_DL)=    0.0023076310 
ITERATION   9 : L= 1286.5398947404 DL=  2.88e-04 (AVERGE_DL)=    0.0019207480 
ITERATION  10 : L= 1286.5400930098 DL=  1.98e-04 (AVERGE_DL)=    0.0015943386 
ITERATION  11 : L= 1286.5402292303 DL=  1.36e-04 (AVERGE_DL)=    0.0013215207 
ITERATION  12 : L= 1286.5403226727 DL=  9.34e-05 (AVERGE_DL)=    0.0010945227 
ITERATION  13 : L= 1286.5403867074 DL=  6.40e-05 (AVERGE_DL)=    0.0009060665 
ITERATION  14 : L= 1286.5404305651 DL=  4.39e-05 (AVERGE_DL)=    0.0007498526 
ITERATION  15 : L= 1286.5404605931 DL=  3.00e-05 (AVERGE_DL)=    0.0006204627 
ITERATION  16 : L= 1286.5404811494 DL=  2.06e-05 (AVERGE_DL)=    0.0005133645 
ITERATION  17 : L= 1286.5404952205 DL=  1.41e-05 (AVERGE_DL)=    0.0004247329 
ITERATION  18 : L= 1286.5405048521 DL=  9.63e-06 (AVERGE_DL)=    0.0003514010 
ITERATION  19 : L= 1286.5405114451 DL=  6.59e-06 (AVERGE_DL)=    0.0002907312 
ITERATION  20 : L= 1286.5405159577 DL=  4.51e-06 (AVERGE_DL)=    0.0002405283 
ITERATION  21 : L= 1286.5405190479 DL=  3.09e-06 (AVERGE_DL)=    0.0001990442 
ITERATION  22 : L= 1286.5405211632 DL=  2.12e-06 (AVERGE_DL)=    0.0001646788 
ITERATION  23 : L= 1286.5405226118 DL=  1.45e-06 (AVERGE_DL)=    0.0001362773 
ITERATION  24 : L= 1286.5405236036 DL=  9.92e-07 (AVERGE_DL)=    0.0001127634 
LOCALIZATION SUM CONVERGED

------------------------------------------------------
AUGMENTED HESSIAN OPTIMIZATION OF FOSTER-BOYS ORBITALS
------------------------------------------------------

Spin operator:           0
Orbital window:          4 to 16
Number of iterations:    128
Gradient tolerance:      1.000e-06
Number of pairs:         78
Davidson threshold:      2000
Diagonalization method:  LAPACK
Iter:    0   L: 1286.5405236036   Grad. norm: 1.401798e-03
   *** Likely close to a maximum now. ***
       Augmented Hessian eigenvalues:  4.32e-06 -2.10e-01 -2.34e+00 -2.36e+00 ... 
Iter:    1   L: 1286.5405257613   Grad. norm: 1.068611e-05
Iter:    2   L: 1286.5405257613   Grad. norm: 3.585444e-13
LOCALIZATION HAS CONVERGED.

Eigenvalues of the Hessian:
  0 -2.104e-01
  1 -2.336e+00
  2 -2.361e+00
  3 -5.342e+00
  4 -5.392e+00
  5 -8.699e+00
  6 -1.701e+01
  7 -1.745e+01
  8 -1.779e+01
  9 -1.817e+01
    ...


------------------------------------------------------------------------------- 
                    LOCALIZED MOLECULAR ORBITAL COMPOSITIONS                   
------------------------------------------------------------------------------- 

The Mulliken populations for each LMO on each atom are computed
The LMO`s will be ordered according to atom index and type
  (A) Strongly localized MO`s have populations of >=0.950 on one atom
  (B) Two center bond orbitals have populations of >=0.850 on two atoms
  (C) Other MO`s are considered to be `delocalized`

FOUND  -   3 strongly local MO`s
       -  10 two center bond MO`s
       -   0 significantly delocalized MO`s

Rather strongly localized orbitals:
MO   6:   1O  -   0.995113
MO   5:   1O  -   0.999065
MO   4:   1O  -   1.003773
Bond-like localized orbitals:
MO  16:  10H  -   0.281367  and   2C  -   0.692858
MO  15:   9H  -   0.331393  and   2C  -   0.681370
MO  14:   8H  -   0.295896  and   2C  -   0.680872
MO  13:   7H  -   0.344459  and   3C  -   0.642532
MO  12:   6H  -   0.330905  and   3C  -   0.665713
MO  11:   5H  -   0.381338  and   0C  -   0.681723
MO  10:   4H  -   0.384791  and   0C  -   0.646633
MO   9:   3C  -   0.459165  and   2C  -   0.417128
MO   8:   3C  -   0.576677  and   0C  -   0.343280
MO   7:   1O  -   0.599672  and   0C  -   0.402203
Localized MO's were stored in: A_wt_dlpno_neg.loc

Localizing the core orbitals
------------------------------------------------------------------------------
                           ORCA ORBITAL LOCALIZATION
------------------------------------------------------------------------------

Input orbitals are from                  ... A_wt_dlpno_neg.loc
Output orbitals are to                   ... A_wt_dlpno_neg.loc
Max. number of iterations                ... 128
Localizations seeded randomly            ... off
Convergence tolerance                    ... 1.000e-06
Using relative localization threshhold   ... 1.000e-08
Treshold for strong local MOs            ... 9.500e-01
Treshold for bond MOs                    ... 8.500e-01
Operator                                 ... 0
Orbital range for localization           ... 0 to 3
Localization criterion                   ... FOSTER-BOYS (AUGMENTED HESSIAN)
Doing the dipole integrals     ... o.k.
Initial value of the localization sum :   383.549486
ITERATION   0 : L=  383.5494894280 DL=  3.47e-06 (AVERGE_DL)=    0.0007608288 
ITERATION   1 : L=  383.5494894280 DL=  0.00e+00 (AVERGE_DL)=    0.0000000000 
LOCALIZATION SUM CONVERGED

------------------------------------------------------
AUGMENTED HESSIAN OPTIMIZATION OF FOSTER-BOYS ORBITALS
------------------------------------------------------

Spin operator:           0
Orbital window:          0 to 3
Number of iterations:    128
Gradient tolerance:      1.000e-06
Number of pairs:         6
Davidson threshold:      2000
Diagonalization method:  LAPACK
Iter:    0   L: 383.5494894280   Grad. norm: 2.476154e-06
   *** Likely close to a maximum now. ***
       Augmented Hessian eigenvalues:  6.59e-14 -2.67e+01 -3.34e+01 -3.41e+01 ... 
Iter:    1   L: 383.5494894280   Grad. norm: 4.847461e-20
LOCALIZATION HAS CONVERGED.

Eigenvalues of the Hessian:
  0 -2.675e+01
  1 -3.337e+01
  2 -3.407e+01
  3 -8.492e+01
  4 -9.313e+01
  5 -1.160e+02


------------------------------------------------------------------------------- 
                    LOCALIZED MOLECULAR ORBITAL COMPOSITIONS                   
------------------------------------------------------------------------------- 

The Mulliken populations for each LMO on each atom are computed
The LMO`s will be ordered according to atom index and type
  (A) Strongly localized MO`s have populations of >=0.950 on one atom
  (B) Two center bond orbitals have populations of >=0.850 on two atoms
  (C) Other MO`s are considered to be `delocalized`

FOUND  -   4 strongly local MO`s
       -   0 two center bond MO`s
       -   0 significantly delocalized MO`s

Rather strongly localized orbitals:
MO   3:   3C  -   0.999020
MO   2:   2C  -   0.997449
MO   1:   1O  -   0.999376
MO   0:   0C  -   0.997165
Localized MO's were stored in: A_wt_dlpno_neg.loc

Warning: reference  - re-canonicalizations have been set to INT 1 VIRT 1
Warning: internal orbitals are localized - no re-canonicalization of internal orbitals
Warning: UsePNO is turned on - no re-canonicalization of internal and virtual orbitals

--------------------------
CLOSED-SHELL FOCK OPERATOR
--------------------------

Restoring SHARK [2] ... ok
Entering RIJCOSX section for the Fock matrix
Trying to retrieve the full J-matrix              ... done
Updating the Fock matrix                          ... done
Making the frozen core Coulomb matrix             ... SHARKdone
Retrieving the full K-matrix                      ... done
Calculating the frozen core K-matrix              ... done
Updating the Fock matrix                          ... done
Time needed for Fock operator              ...            2.721 sec
Reference energy                           ...   -192.558114530

--------------
DLPNO SETTINGS (2015 fully linear scaling implementation)
--------------

TCutMKN:           1.000e-03
TCutPAO:           1.000e-03
TCutPNO:           1.000e-07
TCutPNOSingles:    3.000e-09
TCutEN:            9.700e-01
TCutPAOExt:        1.000e-01
TCutPairs:         1.000e-05
TCutPre:           1.000e-07
TCutOSV:           1.000e-06
TCutDOij:          1.000e-05
TCutDO:            5.000e-03
TCutC:             1.000e-04
TCutCPAO:          1.000e-03
TCutCMO:           1.000e-03
TScaleDOMP2PreScr: 2.000e+00
TScaleMKNMP2PreScr:1.000e+01
TScalePNOMP2PreScr:1.000e+00
PAO overlap thresh 1.000e-08
Using PNOs for Singles Fock computation
Use new domains
Use fully linear algorithm
TCutTNO:           1.000e-09
TCutMP2Pairs:      1.000e-06
TCutDOStrong:      2.000e-03
TCutMKNStrong:     1.000e-02
TCutMKNWeak:       1.000e-01
TCutDOWeak:        4.000e-03
NTCutTNO:          1

--------------------------
Mulliken population of the LMOs            ... ok
Performing proximity check                 ... No problems found
Calculating differential overlap integrals ... ok

--------------------------
ELECTRON PAIR PRESCREENING
--------------------------

Dipole-based pair screening          .... used

   TCutDOij = 1.000000e-05
   TCutPre  = 1.000000e-07
   .... Finished loop over pairs
Total time spent in the prescreening                  ...     0.000 sec
sum of pair energies estimated for screened out pairs ...       0.000000000000 Eh
Thresholds for map construction and integral transformation for crude MP2:
   TCutMKN                    ...     1.0e-02
   TCutDO                     ...     1.0e-02
   TCutPairs                  ...     1.0e-05
   TCutPNO_CrudeMP2           ...     1.0e-07
   TCutPNOSingles_CrudeMP2    ...     3.0e-09
--------------------------------
LOCAL RI TRANSFORMATION (IAVPAO)
--------------------------------

Orbital window:       4 to 16
Number of PAOs:     345
Basis functions:    345 (119 shells)
Aux. functions:     746 (210 shells)
Use SHARK:           on

Processing maps (0.0 sec)
Average map sizes:
   Aux shells -> MOs              13.0
   Aux shells -> PAOs            345.0
   MOs        -> AO shells       119.0
   PAOs       -> AO shells       119.0

Calculating integrals (0.4 sec, 25.535 MB)
Sorting integrals (0.0 sec, 25.527 MB)
Total time for the integral transformation: 0.5 sec
--------------------------------
INITIAL GUESS AND PNO GENERATION
--------------------------------

PNO truncation parameters                   .... 
    PAOOverlapThresh   =        1.000e-08

    TCutPairs          =        1.000e-05
    TCutPNO            =        1.000e-07
    TCutPNOSingles     =        3.000e-09
    TCutMP2Pairs       =        1.000e-06
    TCutMKN            =        1.000e-02
    TCutDO             =        1.000e-02

Pair selection                          .... not used
Type of local MP2 treatment                 .... semi-local MP2
Strategy for PNO selection                  .... occupation number selection
Pair density normalization                  .... MP2 norm
Spin component scaling                      .... not used

   .... Finished loop over pairs
Making pair pair interaction lists          ... done

                       ===========================
                         91 OF   91 PAIRS ARE KEPT CCSD PAIRS
                          0 OF   91 PAIRS ARE KEPT MP2 PAIRS FOR (T)
                          0 OF   91 PAIRS ARE SKIPPED
                       ===========================

Total time spent in the initial guess                 ...     1.238 sec
SL-MP2 correlation energy (all non-screened pairs)    ...      -0.785390632442 Eh

Initial PNO correlation energy                        ...      -0.784677829740 Eh
sum of pair energies prescreened and skipped MP2 pairs...       0.000000000000 Eh
sum of pair energies of crude MP2 skipped pairs only  ...       0.000000000000 Eh
sum of MP2 pair energies for pairs that were not kept ...       0.000000000000 Eh
sum of PNO error estimates for the kept pairs         ...      -0.000712802702 Eh
                                                          --------------------
sum of all corrections                                         -0.000712802702
[...]
   TCutMKN   ...     1.0e-01
   TCutDO    ...     2.0e-02
   TCutCMO   ...     1.0e-03
   TCutCPAO  ...     1.0e-03

--------------------------------
LOCAL RI TRANSFORMATION (IAVPAO)
--------------------------------

Orbital window:       4 to 16
Number of PAOs:     345
Basis functions:    345 (119 shells)
Aux. functions:     746 (210 shells)
Use SHARK:           on

Processing maps (0.0 sec)
Average map sizes:
   Aux shells -> MOs              13.0
   Aux shells -> PAOs            345.0
   MOs        -> AO shells       119.0
   PAOs       -> AO shells       119.0

Calculating integrals (0.4 sec, 25.535 MB)
Sorting integrals (0.0 sec, 25.527 MB)
Total time for the integral transformation: 0.5 sec
--------------------------------
INITIAL GUESS AND PNO GENERATION
--------------------------------

PNO truncation parameters                   .... 
    ScaleTCutPNO       =        1.000e-02
    PAOOverlapThresh   =        1.000e-08

    TCutPairs          =        1.000e-05
    TCutPNO            =        1.000e-07
    TCutPNOSingles     =        3.000e-09
    TCutMP2Pairs       =        1.000e-06
    TCutMKN            =        1.000e-03
    TCutDO             =        5.000e-03

Pair selection                          .... not used
Type of local MP2 treatment                 .... full local PMP2
Strategy for PNO selection                  .... occupation number selection
Pair density normalization                  .... MP2 norm
Spin component scaling                      .... not used

PASS-1: Formation of initial guess LMP2 amplitudes
Initial amplitudes guess done. Entering LMP2 iteration loop:
   Max. no of iterations          ...  50
   Energy convergence tolerance   ...    1.0e-07
   Residual convergence tolerance ...    5.0e-07
   Fock matrix cutoff             ...    1.0e-05 Eh
   DIIS convergence acceleration parameters:
        Max # vectors in DIIS     ... 7
        Start iteration of DIIS   ... 0
        Levelshift                ... 2.000e-01
        Damping factor 1          ... 5.000e-01
        Damping factor 2          ... 1.000e+00
   L-MP2 PNO cut-off              ...   1.0e-09
   L-MP2 PNO cut-off (core)       ...   1.0e-11
                           *** Turning on DIIS ***
LMP2-Iter=   0:  ELMP2= -0.800570231438  DE=   1.5e-02 RMAX=   3.7e-03
LMP2-Iter=   1:  ELMP2= -0.808834671356  DE=   8.3e-03 RMAX=   2.7e-03
LMP2-Iter=   2:  ELMP2= -0.810296973726  DE=   1.5e-03 RMAX=   4.0e-04
LMP2-Iter=   3:  ELMP2= -0.810501342152  DE=   2.0e-04 RMAX=   2.4e-04
LMP2-Iter=   4:  ELMP2= -0.810522683217  DE=   2.1e-05 RMAX=   6.2e-05
LMP2-Iter=   5:  ELMP2= -0.810521296974  DE=   1.4e-06 RMAX=   3.4e-05
LMP2-Iter=   6:  ELMP2= -0.810520824687  DE=   4.7e-07 RMAX=   7.7e-06
LMP2-Iter=   7:  ELMP2= -0.810520910018  DE=   8.5e-08 RMAX=   3.0e-06
LMP2-Iter=   8:  ELMP2= -0.810520964518  DE=   5.4e-08 RMAX=   6.3e-07
LMP2-Iter=   9:  ELMP2= -0.810520956107  DE=   8.4e-09 RMAX=   2.2e-07
LMP2-Iter=  10:  ELMP2= -0.810520957533  DE=   1.4e-09 RMAX=   4.1e-08 => CONVERGED
PASS-2: Formation of Pair natural orbitals
   .... Finished loop over pairs

 PNO Occupation Number Statistics: 
  | Av. % of trace(Dij) retained        ...  99.747835364930
  | sigma^2 in % of trace(Dij) retained ...   8.03e-02
  | Av. % of trace(Di) retained         ...  99.999633343677
  | sigma^2 in % of trace(Di) retained  ...   7.67e-09
 Distributions of % trace(Dij) recovered:
  |       >= 99.9  ...    39 ( 42.9 % of all pairs)
  |   [90.0, 99.0) ...     1 (  1.1 % of all pairs)
  |   [99.0, 99.9) ...    51 ( 56.0 % of all pairs)
 Distributions of % trace(Di) recovered :
  |       >= 99.9  ...    13 (100.0 % of all I-pairs )

Making pair pair interaction lists          ... done

                       ===========================
                         91 OF   91 PAIRS ARE KEPT
                       ===========================

Total time spent in the initial guess                 ...     9.112 sec
L-MP2 correlation energy (all non-screened pairs)     ...      -0.810520957533 Eh
L-MP2 PNO error correction                            ...      -0.000013015314 Eh
                                                          --------------------
Initial total L-MP2 energy (non-screened pairs)       ...      -0.810533972847 Eh

Initial PNO correlation energy                        ...      -0.809844667243 Eh
sum of pair energies estimated for screened out pairs ...       0.000000000000 Eh
sum of MP2 pair energies for pairs that were not kept ...       0.000000000000 Eh
sum of PNO error estimates for the kept pairs         ...      -0.000689305605 Eh
                                                          --------------------
sum of all corrections                                         -0.000689305605
Initial total correlation energy                               -0.810533972847
Thresholds for map construction and integral transformation for fine MP2 and CCSD(T) calculation:
   TCutMKN   ...     1.0e-03
   TCutDO    ...     5.0e-03
   TCutPairs ...     1.0e-05
   TCutCMO   ...     1.0e-03
   TCutCPAO  ...     1.0e-03

Time for aux screen maps:            0.001
Time for maps after fine MP2:            0.005
-----------------------------
LOCAL RI TRANSFORMATION (IJV)
-----------------------------

Orbital window:       4 to 16
Basis functions:    345 (119 shells)
Aux. functions:     746 (210 shells)
Use SHARK:           on

Processing maps (0.0 sec)
Average map sizes:
   Aux shells -> MOs(i)           13.0
   Aux shells -> MOs(j)           13.0
   MOs        -> AO shells       119.0

Calculating integrals (0.4 sec, 0.970 MB)
Sorting integrals (0.0 sec, 0.962 MB)
Total time for the integral transformation: 0.4 sec
--------------------------------
LOCAL RI TRANSFORMATION (VABPAO)
--------------------------------

Number of PAOs:     345
Basis functions:    345 (119 shells)
Aux. functions:     746 (210 shells)
Use SHARK:           on

Processing maps (0.0 sec)
Average map sizes:
   Aux shells -> PAOs            345.0
   PAOs       -> AO shells       119.0

Calculating integrals (1.0 sec, 677.443 MB)
Finished


-------------------------------------
Pair Pair Term precalculation with     
RI-(ij|mn) and (im|jn) transformation  
ON THE FLY                             
-------------------------------------

   IBatch   1 (of   1)              ... done (   44.008 sec)
Total EXT                           ...          44.008 sec

---------------------
RI-PNO TRANSFORMATION
---------------------

Total Number of PNOs                   ...  5214
Average number of PNOs per pair        ...    57
Maximal number of PNOs per pair        ...    81
   #pairs with  1 -  5 PNOs   :    0
   #pairs with  6 - 10 PNOs   :    0
   #pairs with 11 - 15 PNOs   :    0
   #pairs with 16 - 20 PNOs   :    0
   #pairs with 21 - 25 PNOs   :    1
   #pairs with 26 - 30 PNOs   :    7
   #pairs with 31 - 35 PNOs   :    8
   #pairs with 36 - 40 PNOs   :    4
   #pairs with 41 - 45 PNOs   :    7
   #pairs with 46 - 50 PNOs   :    3
   #pairs with 51 - 55 PNOs   :    8
   #pairs with 56 - 60 PNOs   :    7
   #pairs with 61 - 65 PNOs   :   11
   #pairs with 66 - 70 PNOs   :    6
   #pairs with 71 - 75 PNOs   :   15
   #pairs with 76 - 80 PNOs   :   12
   #pairs with 81 - 85 PNOs   :    2

Generation of (ij|ab)[P] integrals            ... on
Generation of (ia|bc)[P],(ja|bc)[P] integrals ... on
Storage of 3 and 4 external integrals         ... on
Generation of ALL (ka|bc)[P] integrals        ... on
Keep RI integrals in memory                   ... off

Ibatch:  1 (of  1)
Starting 2-4 index PNO integral generation ... done

Timings:
Total PNO integral transformation time     ...         19.808 sec
Size of the 3-external file                ...       165 MB
Size of the 4-external file                ...      1440 MB
Size of the IKJL file                      ...         0 MB
Size of the all 3-external file            ...      1078 MB
Size of the 1-external file                ...         1 MB

Making pair/pair overlap matrices          ... done (    0.676 sec)
Size of the pair overlap file              ... 168 MB
Redoing the guess amplitudes               ... done (    0.002 sec)

-------------------------
FINAL STARTUP INFORMATION
-------------------------

E(0)                                       ...   -192.558114530
E(L-MP2)                                   ...     -0.810533973
E(L-MP2) including corrections             ...     -0.810533973
Initial E(tot)                             ...   -193.368648503
<T|T>                                      ...      0.220100447
Number of pairs included                   ... 91
Total number of pairs                      ... 91

------------------------------------------------
                  RHF COUPLED CLUSTER ITERATIONS
------------------------------------------------

Number of PNO amplitudes to be optimized   ...       324796
Number of non-PNO amplitudes               ...      9790144
Untruncated number of regular amplitudes   ...      9790144

Iter       E(tot)           E(Corr)          Delta-E          Residual     Time
  0   -193.343463263     -0.784659427      0.025874546      0.017773879   10.45
                           *** Turning on DIIS ***
  1   -193.370877509     -0.812073674     -0.027414246      0.005170453   10.50
  2   -193.391711716     -0.832907880     -0.020834207      0.003724010   10.35
  3   -193.395698117     -0.836894281     -0.003986401      0.002131485   10.31
  4   -193.396845723     -0.838041887     -0.001147606      0.001490370   10.59
  5   -193.397287501     -0.838483665     -0.000441778      0.000878243   11.13
  6   -193.397417104     -0.838613268     -0.000129603      0.000486651   10.95
  7   -193.397475069     -0.838671234     -0.000057965      0.000219910   11.05
  8   -193.397492793     -0.838688957     -0.000017723      0.000087245   11.15
  9   -193.397492646     -0.838688810      0.000000147      0.000029949   11.05
 10   -193.397491443     -0.838687607      0.000001202      0.000015945   11.11
 11   -193.397491427     -0.838687591      0.000000016      0.000008744   10.60
               --- The Coupled-Cluster iterations have converged ---

----------------------
COUPLED CLUSTER ENERGY
----------------------

E(0)                                       ...   -192.558114530
E(CORR)(strong-pairs)                      ...     -0.838687591
E(CORR)(weak-pairs)                        ...     -0.000689306
E(CORR)(corrected)                         ...     -0.839376897
E(TOT)                                     ...   -193.397491427
Singles Norm <S|S>**1/2                    ...      0.075300224  
T1 diagnostic                              ...      0.014767589  

------------------
LARGEST AMPLITUDES
------------------
  10-> 24  10-> 24       0.034173
   6-> 17  -1-> -1       0.031330
   9-> 27   9-> 27       0.030262
  12-> 26  12-> 26       0.030185
  14-> 26  14-> 26       0.029869
   4-> 17  -1-> -1       0.027923
  16-> 25  16-> 25       0.026919
  13-> 17  13-> 17       0.025543
  15-> 17  15-> 17       0.025412
  12-> 17  12-> 17       0.024985
  14-> 17  14-> 17       0.024807
   8-> 23   8-> 23       0.023682
  11-> 21  11-> 21       0.023310
  16-> 17  16-> 17       0.023283
  12-> 26  12-> 17       0.023224
  12-> 17  12-> 26       0.023224


-------------------------------------------
DLPNO BASED TRIPLES CORRECTION
-------------------------------------------

Singles multiplier          ...  1.000000
TCutTNO                     ... 1.000e-09
TCutMP2Pairs                ... 1.000e-06
TCutDOStrong                ... 1.000e-02
TCutMKNStrong               ... 1.000e-02
TCutDOWeak                  ... 2.000e-02
TCutMKNWeak                 ... 1.000e-01

Fragment selection                          .... not used
Number of Triples that are to be computed   ...       442

 . . . . . . . . .
10% done  
20% done  
30% done  
40% done  
50% done  
60% done  
70% done  
80% done  
90% done               (     84.209 sec)
Triples timings:
Total time for T0               ...    87.976 sec
Total time for Iterative (T)    ...     0.000 sec
Total time of overall (T)       ...    91.715 sec

Triples List generation         ...     0.000 sec
TNO generation                  ...     3.761 sec
Pair density generation         ...     0.004 sec
Look up tables                  ...     0.000 sec
Generating 3-index integrals    ...    53.133 sec
  Make 4-ind.int. from 3-ind.int...    12.499 sec
  Projecting amplitudes (D + S) ...     3.367 sec
  Downprojecting integrals      ...     0.001 sec
  Energy contr. (sum over a,b,c)...     4.673 sec
Fitting ET(->0)                 ...     0.000 sec

Everything after 3-index        ...    31.076 sec

Timing details:
 TNO integrals                  ...    64.779 sec
   Reading 3-index integrals    ...     0.256 sec
   Sorting integrals            ...     8.161 sec
       Sorting integrals 1      ...     0.000 sec
       Sorting integrals 2      ...     3.902 sec
       Sorting integrals 3      ...     0.274 sec
       Sorting integrals 4      ...     0.005 sec
       Sorting integrals 5      ...     0.055 sec
       Sorting integrals 6      ...     3.926 sec
   Calculating local VM**-1/2   ...     0.452 sec
   Orthogonal. integrals        ...     0.704 sec
   Multipl. 3-index integrals   ...    55.206 sec
   All concerning IRIab (w/TNO) ...     7.135 sec

 Calculate W0/W1                ...    10.532 sec
 W 3-ext contribution           ...     6.562 sec
 W 3-int contribution           ...     1.115 sec
 Sorting W                      ...     2.733 sec

 V exchange contribution        ...     1.816 sec

 Timings for Triples without generation
     of 3-index integrals       ...    31.076 sec
       0 weak pairs             ...    31.076 sec
       1 weak pair              ...     0.000 sec
       2 weak pairs             ...     0.000 sec
       3 weak pairs             ...     0.000 sec
  Extra time for extrapolation  ...     0.000 sec

Number of Triples   (0, 1, 2, 3 weak pairs; overall):    442       0       0       0  (   442)
Number of Atoms     (0, 1, 2, 3 weak pairs; overall):   11.0     0.0     0.0     0.0  (    11)
Number of PAOs      (0, 1, 2, 3 weak pairs; overall):  345.0     0.0     0.0     0.0  (   345)
Number of AuxFcns   (0, 1, 2, 3 weak pairs; overall):  521.4     0.0     0.0     0.0  (   746)
Number of TNOs      (0, 1, 2, 3 weak pairs         ):  128.8     0.0     0.0     0.0
Aver. Number of NTNO, Atoms, PAOs, AuxFcns / Triples:    442   128.8    11.0   345.0   521.4

Triples Correction (T)                     ...     -0.034093538
Final correlation energy                   ...     -0.873470435
E(CCSD)                                    ...   -193.397491427
E(CCSD(T))                                 ...   -193.431584965



------------------------------------------------------------------------------- 
                                     TIMINGS                                   
------------------------------------------------------------------------------- 


Total execution time                   ...      305.457 sec

Localization of occupied MO's          ...        0.468 sec (  0.2%)
Fock Matrix Formation                  ...        2.721 sec (  0.9%)
Global overlap, Fock, MKN matrices     ...        0.235 sec (  0.1%)
Differential overlap integrals         ...        0.357 sec (  0.1%)
Organizing maps                        ...        0.016 sec (  0.0%)
RI 3-index integral generations        ...        2.281 sec (  0.7%)
RI-PNO integral transformation         ...       67.394 sec ( 22.1%)
Initial Guess                          ...       10.430 sec (  3.4%)
DIIS Solver                            ...        1.677 sec (  0.5%)
State Vector Update                    ...        0.019 sec (  0.0%)
Sigma-vector construction              ...      128.971 sec ( 42.2%)
  <D|H|D>(0-ext)                       ...        1.713 sec (  1.3% of sigma)
  <D|H|D>(2-ext Fock)                  ...        0.012 sec (  0.0% of sigma)
  <D|H|D>(2-ext)                       ...        8.453 sec (  6.6% of sigma)
  <D|H|D>(4-ext)                       ...       21.678 sec ( 16.8% of sigma)
  <D|H|D>(4-ext-corr)                  ...       75.134 sec ( 58.3% of sigma)
  CCSD doubles correction              ...        0.133 sec (  0.1% of sigma)
  <S|H|S>                              ...        0.586 sec (  0.5% of sigma)
  <S|H|D>(1-ext)                       ...        0.219 sec (  0.2% of sigma)
  <D|H|S>(1-ext)                       ...        0.006 sec (  0.0% of sigma)
  <S|H|D>(3-ext)                       ...        0.486 sec (  0.4% of sigma)
  Fock-dressing                        ...       11.573 sec (  9.0% of sigma)
  Singles amplitudes                   ...        0.309 sec (  0.2% of sigma)
  (ik|jl)-dressing                     ...        1.264 sec (  1.0% of sigma)
  (ij|ab),(ia|jb)-dressing             ...        2.088 sec (  1.6% of sigma)
  Pair energies                        ...        0.007 sec (  0.0% of sigma)
Total Time for computing (T)           ...       91.729 sec ( 30.0% of ALL)


Maximum memory used throughout the entire MDCI-calculation: 5838.8 MB

-------------------------   --------------------
FINAL SINGLE POINT ENERGY      -193.431584964773
-------------------------   --------------------


                            ***************************************
                            *     ORCA property calculations      *
                            ***************************************


  WARNING: The energy has been calculated at the MDCI level but the densities
           used in the property calculations are still SCF densities
           MDCI response densities have not been calculated 
           use %mdci Density linearized end
           or  %mdci Density unrelaxed end
           or  %mdci Density orbopt end

                                    ---------------------
                                    Active property flags
                                    ---------------------
   (+) Dipole Moment


------------------------------------------------------------------------------
                       ORCA ELECTRIC PROPERTIES CALCULATION
------------------------------------------------------------------------------

Dipole Moment Calculation                       ... on
Quadrupole Moment Calculation                   ... off
Polarizability Calculation                      ... off
GBWName                                         ... A_wt_dlpno_neg.gbw
Electron density file                           ... A_wt_dlpno_neg.scfp
The origin for moment calculation is the CENTER OF MASS  = ( 0.998384,  9.227503 -1.895646)

-------------
DIPOLE MOMENT
-------------
                                X             Y             Z
Electronic contribution:      2.00777      -1.28304      -1.38303
Nuclear contribution   :     -3.50495       2.13585       2.58010
                        -----------------------------------------
Total Dipole Moment    :     -1.49719       0.85281       1.19707
                        -----------------------------------------
Magnitude (a.u.)       :      2.09805
Magnitude (Debye)      :      5.33283



--------------------
Rotational spectrum 
--------------------
 
Rotational constants in cm-1:     0.478988     0.188199     0.150738 
Rotational constants in MHz : 14359.706344  5642.078771  4519.011003 

 Dipole components along the rotational axes: 
x,y,z [a.u.] :     1.918648     0.839165     0.128150 
x,y,z [Debye]:     4.876815     2.132987     0.325731 

 

Timings for individual modules:

Sum of individual times         ...      324.482 sec (=   5.408 min)
GTO integral calculation        ...        0.638 sec (=   0.011 min)   0.2 %
SCF iterations                  ...       18.023 sec (=   0.300 min)   5.6 %
MDCI module                     ...      305.821 sec (=   5.097 min)  94.2 %
                             ****ORCA TERMINATED NORMALLY****
TOTAL RUN TIME: 0 days 0 hours 5 minutes 24 seconds 906 msec
