
                                        *****************
                                        * O   R   C   A *
                                        *****************

                                            #,                                       
                                            ###                                      
                                            ####                                     
                                            #####                                    
                                            ######                                   
                                           ########,                                 
                                     ,,################,,,,,                         
                               ,,#################################,,                 
                          ,,##########################################,,             
                       ,#########################################, ''#####,          
                    ,#############################################,,   '####,        
                  ,##################################################,,,,####,       
                ,###########''''           ''''###############################       
              ,#####''   ,,,,##########,,,,          '''####'''          '####       
            ,##' ,,,,###########################,,,                        '##       
           ' ,,###''''                  '''############,,,                           
         ,,##''                                '''############,,,,        ,,,,,,###''
      ,#''                                            '''#######################'''  
     '                                                          ''''####''''         
             ,#######,   #######,   ,#######,      ##                                
            ,#'     '#,  ##    ##  ,#'     '#,    #''#        ######   ,####,        
            ##       ##  ##   ,#'  ##            #'  '#       #        #'  '#        
            ##       ##  #######   ##           ,######,      #####,   #    #        
            '#,     ,#'  ##    ##  '#,     ,#' ,#      #,         ##   #,  ,#        
             '#######'   ##     ##  '#######'  #'      '#     #####' # '####'        



                  #######################################################
                  #                        -***-                        #
                  #          Department of theory and spectroscopy      #
                  #    Directorship and core code : Frank Neese         #
                  #        Max Planck Institute fuer Kohlenforschung    #
                  #                Kaiser Wilhelm Platz 1               #
                  #                 D-45470 Muelheim/Ruhr               #
                  #                      Germany                        #
                  #                                                     #
                  #                  All rights reserved                #
                  #                        -***-                        #
                  #######################################################


                         Program Version 5.0.0 -  RELEASE  -
                                (SVN: $Rev: 19529$)
                ($Date: 2021-06-28 11:36:33 +0200 (Mo, 28 Jun 2021) $)


 With contributions from (in alphabetic order):
   Daniel Aravena         : Magnetic Suceptibility
   Michael Atanasov       : Ab Initio Ligand Field Theory (pilot matlab implementation)
   Alexander A. Auer      : GIAO ZORA, VPT2 properties, NMR spectrum
   Ute Becker             : Parallelization
   Giovanni Bistoni       : ED, misc. LED, open-shell LED, HFLD
   Martin Brehm           : Molecular dynamics
   Dmytro Bykov           : SCF Hessian
   Vijay G. Chilkuri      : MRCI spin determinant printing, contributions to CSF-ICE
   Dipayan Datta          : RHF DLPNO-CCSD density
   Achintya Kumar Dutta   : EOM-CC, STEOM-CC
   Dmitry Ganyushin       : Spin-Orbit,Spin-Spin,Magnetic field MRCI
   Miquel Garcia          : C-PCM Hessian, Gaussian charge scheme
   Yang Guo               : DLPNO-NEVPT2, F12-NEVPT2, CIM, IAO-localization
   Andreas Hansen         : Spin unrestricted coupled pair/coupled cluster methods
   Benjamin Helmich-Paris : MC-RPA, TRAH-SCF, COSX integrals
   Lee Huntington         : MR-EOM, pCC
   Robert Izsak           : Overlap fitted RIJCOSX, COSX-SCS-MP3, EOM
   Marcus Kettner         : VPT2
   Christian Kollmar      : KDIIS, OOCD, Brueckner-CCSD(T), CCSD density, CASPT2, CASPT2-K
   Simone Kossmann        : Meta GGA functionals, TD-DFT gradient, OOMP2, MP2 Hessian
   Martin Krupicka        : Initial AUTO-CI
   Lucas Lang             : DCDCAS
   Marvin Lechner         : AUTO-CI (C++ implementation), FIC-MRCC
   Dagmar Lenk            : GEPOL surface, SMD
   Dimitrios Liakos       : Extrapolation schemes; Compound Job, initial MDCI parallelization
   Dimitrios Manganas     : Further ROCIS development; embedding schemes
   Dimitrios Pantazis     : SARC Basis sets
   Anastasios Papadopoulos: AUTO-CI, single reference methods and gradients
   Taras Petrenko         : DFT Hessian,TD-DFT gradient, ASA, ECA, R-Raman, ABS, FL, XAS/XES, NRVS
   Peter Pinski           : DLPNO-MP2, DLPNO-MP2 Gradient
   Christoph Reimann      : Effective Core Potentials
   Marius Retegan         : Local ZFS, SOC
   Christoph Riplinger    : Optimizer, TS searches, QM/MM, DLPNO-CCSD(T), (RO)-DLPNO pert. Triples
   Tobias Risthaus        : Range-separated hybrids, TD-DFT gradient, RPA, STAB
   Michael Roemelt        : Original ROCIS implementation
   Masaaki Saitow         : Open-shell DLPNO-CCSD energy and density
   Barbara Sandhoefer     : DKH picture change effects
   Avijit Sen             : IP-ROCIS
   Kantharuban Sivalingam : CASSCF convergence, NEVPT2, FIC-MRCI
   Bernardo de Souza      : ESD, SOC TD-DFT
   Georgi Stoychev        : AutoAux, RI-MP2 NMR
   Willem Van den Heuvel  : Paramagnetic NMR
   Boris Wezisla          : Elementary symmetry handling
   Frank Wennmohs         : Technical directorship


 We gratefully acknowledge several colleagues who have allowed us to
 interface, adapt or use parts of their codes:
   Stefan Grimme, W. Hujo, H. Kruse, P. Pracht,  : VdW corrections, initial TS optimization,
                  C. Bannwarth, S. Ehlert          DFT functionals, gCP, sTDA/sTD-DF
   Ed Valeev, F. Pavosevic, A. Kumar             : LibInt (2-el integral package), F12 methods
   Garnet Chan, S. Sharma, J. Yang, R. Olivares  : DMRG
   Ulf Ekstrom                                   : XCFun DFT Library
   Mihaly Kallay                                 : mrcc  (arbitrary order and MRCC methods)
   Jiri Pittner, Ondrej Demel                    : Mk-CCSD
   Frank Weinhold                                : gennbo (NPA and NBO analysis)
   Christopher J. Cramer and Donald G. Truhlar   : smd solvation model
   Lars Goerigk                                  : TD-DFT with DH, B97 family of functionals
   V. Asgeirsson, H. Jonsson                     : NEB implementation
   FAccTs GmbH                                   : IRC, NEB, NEB-TS, DLPNO-Multilevel, CI-OPT
                                                   MM, QMMM, 2- and 3-layer-ONIOM, Crystal-QMMM,
                                                   LR-CPCM, SF, NACMEs, symmetry and pop. for TD-DFT,
                                                   nearIR, NL-DFT gradient (VV10), updates on ESD,
                                                   ML-optimized integration grids
   S Lehtola, MJT Oliveira, MAL Marques          : LibXC Library
   Liviu Ungur et al                             : ANISO software


 Your calculation uses the libint2 library for the computation of 2-el integrals
 For citations please refer to: http://libint.valeyev.net

 Your ORCA version has been built with support for libXC version: 5.1.0
 For citations please refer to: https://tddft.org/programs/libxc/

 This ORCA versions uses:
   CBLAS   interface :  Fast vector & matrix operations
   LAPACKE interface :  Fast linear algebra routines
   SCALAPACK package :  Parallel linear algebra routines
   Shared memory     :  Shared parallel matrices
   BLAS/LAPACK       :  OpenBLAS 0.3.15  USE64BITINT DYNAMIC_ARCH NO_AFFINITY Haswell SINGLE_THREADED
        Core in use  :  Haswell
   Copyright (c) 2011-2014, The OpenBLAS Project


Your calculation utilizes the atom-pairwise dispersion correction
with the Becke-Johnson damping scheme (D3BJ)
Cite in your paper:
S.Grimme, S.Ehrlich, L.Goerigk, J Comput Chem, (2011), 32, 1456–1465 
S.Grimme, J.Antony, S.Ehrlich and H.Krieg, J.Chem.Phys., 132, (2010), 154104 
   

================================================================================

----- Orbital basis set information -----
Your calculation utilizes the basis: def2-TZVP
   F. Weigend and R. Ahlrichs, Phys. Chem. Chem. Phys. 7, 3297 (2005).

----- AuxJ basis set information -----
Your calculation utilizes the auxiliary basis: def2/J
   F. Weigend, Phys. Chem. Chem. Phys. 8, 1057 (2006).

================================================================================
                                        WARNINGS
                       Please study these warnings very carefully!
================================================================================



WARNING: Found flag for RIJCOSX approximation but no HF exchange needed!
  ===> : RIJCOSX  will be disabled and Split-RI-J is turned on

INFO   : the flag for use of the SHARK integral package has been found!

================================================================================
                                       INPUT FILE
================================================================================
NAME = TZVP_BLYP_C1_wt_dlpno_pos.com
|  1> !BLYP D3BJ RIJCOSX def2-TZVP def2/J TightSCF
|  2> *xyz 0 1
|  3> C          3.38093        2.08304       -3.35013
|  4> C          4.53592        1.18245       -3.42852
|  5> C          2.49556        1.81615       -2.13636
|  6> C          4.67196        0.12227       -4.22060
|  7> N          5.86602       -0.50785       -4.22428
|  8> N          3.69888       -0.31284       -4.98699
|  9> H          2.73141       -0.05009       -4.84900
| 10> H          3.89005       -1.05517       -5.64373
| 11> H          5.25193        1.30346       -2.72101
| 12> H          6.69516       -0.06232       -3.85160
| 13> H          5.97538       -1.39688       -4.69141
| 14> H          2.80646        1.98651       -4.26848
| 15> H          3.77871        3.09828       -3.30738
| 16> H          2.11090        0.81901       -2.18783
| 17> H          1.68276        2.51198       -2.12786
| 18> H          3.07216        1.93031       -1.24227
| 19> *
| 20> 
| 21> %MaxCore 64000
| 22> 
| 23> %pal nprocs 4
| 24> end  
| 25> 
| 26> %scf
| 27>   MaxIter 150
| 28> end
| 29> 
| 30> 
| 31>                          ****END OF INPUT****
================================================================================

                       ****************************
                       * Single Point Calculation *
                       ****************************

---------------------------------
CARTESIAN COORDINATES (ANGSTROEM)
---------------------------------
  C      3.380930    2.083040   -3.350130
  C      4.535920    1.182450   -3.428520
  C      2.495560    1.816150   -2.136360
  C      4.671960    0.122270   -4.220600
  N      5.866020   -0.507850   -4.224280
  N      3.698880   -0.312840   -4.986990
  H      2.731410   -0.050090   -4.849000
  H      3.890050   -1.055170   -5.643730
  H      5.251930    1.303460   -2.721010
  H      6.695160   -0.062320   -3.851600
  H      5.975380   -1.396880   -4.691410
  H      2.806460    1.986510   -4.268480
  H      3.778710    3.098280   -3.307380
  H      2.110900    0.819010   -2.187830
  H      1.682760    2.511980   -2.127860
  H      3.072160    1.930310   -1.242270

----------------------------
CARTESIAN COORDINATES (A.U.)
----------------------------
  NO LB      ZA    FRAG     MASS         X           Y           Z
   0 C     6.0000    0    12.011    6.389032    3.936375   -6.330828
   1 C     6.0000    0    12.011    8.571647    2.234507   -6.478964
   2 C     6.0000    0    12.011    4.715925    3.432026   -4.037135
   3 C     6.0000    0    12.011    8.828725    0.231057   -7.975778
   4 N     7.0000    0    14.007   11.085171   -0.959697   -7.982732
   5 N     7.0000    0    14.007    6.989870   -0.591182   -9.424045
   6 H     1.0000    0     1.008    5.161617   -0.094656   -9.163282
   7 H     1.0000    0     1.008    7.351129   -1.993982  -10.665104
   8 H     1.0000    0     1.008    9.924709    2.463182   -5.141964
   9 H     1.0000    0     1.008   12.652019   -0.117768   -7.278469
  10 H     1.0000    0     1.008   11.291832   -2.639721   -8.865480
  11 H     1.0000    0     1.008    5.303441    3.753960   -8.066258
  12 H     1.0000    0     1.008    7.140727    5.854901   -6.250042
  13 H     1.0000    0     1.008    3.989023    1.547705   -4.134400
  14 H     1.0000    0     1.008    3.179956    4.746954   -4.021073
  15 H     1.0000    0     1.008    5.805541    3.647757   -2.347550

--------------------------------
INTERNAL COORDINATES (ANGSTROEM)
--------------------------------
 C      0   0   0     0.000000000000     0.00000000     0.00000000
 C      1   0   0     1.466700119418     0.00000000     0.00000000
 C      1   2   0     1.525892500113   113.08111731     0.00000000
 C      2   1   3     1.330368084554   126.98938656   102.39062418
 N      4   2   1     1.350127416357   117.64459308   174.24709975
 N      4   2   1     1.312843871372   122.40398904   354.61462441
 H      6   4   2     1.011966898421   122.88508084   342.67073608
 H      6   4   2     1.009409344815   118.89240317   173.11235798
 H      2   1   3     1.013846211365   116.45877876   291.29629415
 H      5   4   2     1.012353941515   121.19466995   343.47510404
 H      5   4   2     1.010219969809   120.51230720   170.23250373
 H      1   2   3     1.087520365005   108.44174395   237.12574124
 H      1   2   3     1.091223509873   106.63701105   121.10186677
 H      3   1   2     1.070000306589   109.47067085   299.14133701
 H      3   1   2     1.069997887334   109.47128745   179.14208237
 H      3   1   2     1.069998595186   109.47169847    59.14222448

---------------------------
INTERNAL COORDINATES (A.U.)
---------------------------
 C      0   0   0     0.000000000000     0.00000000     0.00000000
 C      1   0   0     2.771661546289     0.00000000     0.00000000
 C      1   2   0     2.883518935017   113.08111731     0.00000000
 C      2   1   3     2.514031337117   126.98938656   102.39062418
 N      4   2   1     2.551371062814   117.64459308   174.24709975
 N      4   2   1     2.480915373491   122.40398904   354.61462441
 H      6   4   2     1.912340294610   122.88508084   342.67073608
 H      6   4   2     1.907507218721   118.89240317   173.11235798
 H      2   1   3     1.915891681394   116.45877876   291.29629415
 H      5   4   2     1.913071700058   121.19466995   343.47510404
 H      5   4   2     1.909039077956   120.51230720   170.23250373
 H      1   2   3     2.055115654921   108.44174395   237.12574124
 H      1   2   3     2.062113584557   106.63701105   121.10186677
 H      3   1   2     2.022007542664   109.47067085   299.14133701
 H      3   1   2     2.022002970936   109.47128745   179.14208237
 H      3   1   2     2.022004308582   109.47169847    59.14222448

---------------------
BASIS SET INFORMATION
---------------------
There are 3 groups of distinct atoms

 Group   1 Type C   : 11s6p2d1f contracted to 5s3p2d1f pattern {62111/411/11/1}
 Group   2 Type N   : 11s6p2d1f contracted to 5s3p2d1f pattern {62111/411/11/1}
 Group   3 Type H   : 5s1p contracted to 3s1p pattern {311/1}

Atom   0C    basis set group =>   1
Atom   1C    basis set group =>   1
Atom   2C    basis set group =>   1
Atom   3C    basis set group =>   1
Atom   4N    basis set group =>   2
Atom   5N    basis set group =>   2
Atom   6H    basis set group =>   3
Atom   7H    basis set group =>   3
Atom   8H    basis set group =>   3
Atom   9H    basis set group =>   3
Atom  10H    basis set group =>   3
Atom  11H    basis set group =>   3
Atom  12H    basis set group =>   3
Atom  13H    basis set group =>   3
Atom  14H    basis set group =>   3
Atom  15H    basis set group =>   3
---------------------------------
AUXILIARY/J BASIS SET INFORMATION
---------------------------------
There are 3 groups of distinct atoms

 Group   1 Type C   : 12s5p4d2f1g contracted to 6s4p3d1f1g pattern {711111/2111/211/2/1}
 Group   2 Type N   : 12s5p4d2f1g contracted to 6s4p3d1f1g pattern {711111/2111/211/2/1}
 Group   3 Type H   : 5s2p1d contracted to 3s1p1d pattern {311/2/1}

Atom   0C    basis set group =>   1
Atom   1C    basis set group =>   1
Atom   2C    basis set group =>   1
Atom   3C    basis set group =>   1
Atom   4N    basis set group =>   2
Atom   5N    basis set group =>   2
Atom   6H    basis set group =>   3
Atom   7H    basis set group =>   3
Atom   8H    basis set group =>   3
Atom   9H    basis set group =>   3
Atom  10H    basis set group =>   3
Atom  11H    basis set group =>   3
Atom  12H    basis set group =>   3
Atom  13H    basis set group =>   3
Atom  14H    basis set group =>   3
Atom  15H    basis set group =>   3


           ************************************************************
           *        Program running with 4 parallel MPI-processes     *
           *              working on a common directory               *
           ************************************************************
------------------------------------------------------------------------------
                           ORCA GTO INTEGRAL CALCULATION
                           -- RI-GTO INTEGRALS CHOSEN --
------------------------------------------------------------------------------
------------------------------------------------------------------------------
                   ___                                                        
                  /   \      - P O W E R E D   B Y -                         
                 /     \                                                     
                 |  |  |   _    _      __       _____    __    __             
                 |  |  |  | |  | |    /  \     |  _  \  |  |  /  |          
                  \  \/   | |  | |   /    \    | | | |  |  | /  /          
                 / \  \   | |__| |  /  /\  \   | |_| |  |  |/  /          
                |  |  |   |  __  | /  /__\  \  |    /   |      \           
                |  |  |   | |  | | |   __   |  |    \   |  |\   \          
                \     /   | |  | | |  |  |  |  | |\  \  |  | \   \       
                 \___/    |_|  |_| |__|  |__|  |_| \__\ |__|  \__/        
                                                                              
                      - O R C A' S   B I G   F R I E N D -                    
                                      &                                       
                       - I N T E G R A L  F E E D E R -                       
                                                                              
 v1 FN, 2020, v2 2021                                                         
------------------------------------------------------------------------------


Reading SHARK input file TZVP_BLYP_C1_wt_dlpno_pos.SHARKINP.tmp ... ok
----------------------
SHARK INTEGRAL PACKAGE
----------------------

Number of atoms                             ...     16
Number of basis functions                   ...    246
Number of shells                            ...    106
Maximum angular momentum                    ...      3
Integral batch strategy                     ... SHARK/LIBINT Hybrid
RI-J (if used) integral strategy            ... SPLIT-RIJ (Revised 2003 algorithm where possible)
Printlevel                                  ...      1
Contraction scheme used                     ... SEGMENTED contraction
Coulomb Range Separation                    ... NOT USED
Exchange Range Separation                   ... NOT USED
Finite Nucleus Model                        ... NOT USED
Auxiliary Coulomb fitting basis             ... AVAILABLE
   # of basis functions in Aux-J            ...    404
   # of shells in Aux-J                     ...    140
   Maximum angular momentum in Aux-J        ...      4
Auxiliary J/K fitting basis                 ... NOT available
Auxiliary Correlation fitting basis         ... NOT available
Auxiliary 'external' fitting basis          ... NOT available
Integral threshold                          ...     2.500000e-11
Primitive cut-off                           ...     2.500000e-12
Primitive pair pre-selection threshold      ...     2.500000e-12

Calculating pre-screening integrals         ... done (  0.1 sec) Dimension = 106
Organizing shell pair data                  ... done (  0.0 sec)
Shell pair information
Total number of shell pairs                 ...      5671
Shell pairs after pre-screening             ...      5284
Total number of primitive shell pairs       ...     16452
Primitive shell pairs kept                  ...     11914
          la=0 lb=0:   1667 shell pairs
          la=1 lb=0:   1565 shell pairs
          la=1 lb=1:    384 shell pairs
          la=2 lb=0:    680 shell pairs
          la=2 lb=1:    323 shell pairs
          la=2 lb=2:     77 shell pairs
          la=3 lb=0:    337 shell pairs
          la=3 lb=1:    160 shell pairs
          la=3 lb=2:     70 shell pairs
          la=3 lb=3:     21 shell pairs

Calculating one electron integrals          ... done (  0.0 sec)
Calculating RI/J V-Matrix + Cholesky decomp.... done (  0.0 sec)
Calculating Nuclear repulsion               ... done (  0.0 sec) ENN=    245.873028374294 Eh

SHARK setup successfully completed in   0.2 seconds

Maximum memory used throughout the entire GTOINT-calculation: 13.9 MB


           ************************************************************
           *        Program running with 4 parallel MPI-processes     *
           *              working on a common directory               *
           ************************************************************
-------------------------------------------------------------------------------
                                 ORCA SCF
-------------------------------------------------------------------------------

------------
SCF SETTINGS
------------
Hamiltonian:
 Density Functional     Method          .... DFT(GTOs)
 Exchange Functional    Exchange        .... B88
   X-Alpha parameter    XAlpha          ....  0.666667
   Becke's b parameter  XBeta           ....  0.004200
 Correlation Functional Correlation     .... LYP
 Gradients option       PostSCFGGA      .... off
   Density functional embedding theory  .... OFF
   NL short-range parameter             ....  4.000000
 RI-approximation to the Coulomb term is turned on
   Number of AuxJ basis functions       .... 404


General Settings:
 Integral files         IntName         .... TZVP_BLYP_C1_wt_dlpno_pos
 Hartree-Fock type      HFTyp           .... RHF
 Total Charge           Charge          ....    0
 Multiplicity           Mult            ....    1
 Number of Electrons    NEL             ....   48
 Basis Dimension        Dim             ....  246
 Nuclear Repulsion      ENuc            ....    245.8730283743 Eh

Convergence Acceleration:
 DIIS                   CNVDIIS         .... on
   Start iteration      DIISMaxIt       ....    12
   Startup error        DIISStart       ....  0.200000
   # of expansion vecs  DIISMaxEq       ....     5
   Bias factor          DIISBfac        ....   1.050
   Max. coefficient     DIISMaxC        ....  10.000
 Trust-Rad. Augm. Hess. CNVTRAH         .... auto
   Auto Start mean grad. ratio tolernc. ....  1.125000
   Auto Start start iteration           ....    20
   Auto Start num. interpolation iter.  ....    10
   Max. Number of Micro iterations      ....    16
   Max. Number of Macro iterations      .... Maxiter - #DIIS iter
   Number of Davidson start vectors     ....     2
   Converg. threshold I  (grad. norm)   ....   1.000e-05
   Converg. threshold II (energy diff.) ....   1.000e-08
   Grad. Scal. Fac. for Micro threshold ....   0.100
   Minimum threshold for Micro iter.    ....   0.010
   NR start threshold (gradient norm)   ....   0.001
   Initial trust radius                 ....   0.400
   Minimum AH scaling param. (alpha)    ....   1.000
   Maximum AH scaling param. (alpha)    .... 1000.000
   Orbital update algorithm             .... Taylor
   White noise on init. David. guess    .... on
   Maximum white noise                  ....   0.010
   Quad. conv. algorithm                .... NR
 SOSCF                  CNVSOSCF        .... on
   Start iteration      SOSCFMaxIt      ....   150
   Startup grad/error   SOSCFStart      ....  0.003300
 Level Shifting         CNVShift        .... on
   Level shift para.    LevelShift      ....    0.2500
   Turn off err/grad.   ShiftErr        ....    0.0010
 Zerner damping         CNVZerner       .... off
 Static damping         CNVDamp         .... on
   Fraction old density DampFac         ....    0.7000
   Max. Damping (<1)    DampMax         ....    0.9800
   Min. Damping (>=0)   DampMin         ....    0.0000
   Turn off err/grad.   DampErr         ....    0.1000
 Fernandez-Rico         CNVRico         .... off

SCF Procedure:
 Maximum # iterations   MaxIter         ....   150
 SCF integral mode      SCFMode         .... Direct
   Integral package                     .... SHARK and LIBINT hybrid scheme
 Reset frequency        DirectResetFreq ....    20
 Integral Threshold     Thresh          ....  2.500e-11 Eh
 Primitive CutOff       TCut            ....  2.500e-12 Eh

Convergence Tolerance:
 Convergence Check Mode ConvCheckMode   .... Total+1el-Energy
 Convergence forced     ConvForced      .... 0
 Energy Change          TolE            ....  1.000e-08 Eh
 1-El. energy change                    ....  1.000e-05 Eh
 Orbital Gradient       TolG            ....  1.000e-05
 Orbital Rotation angle TolX            ....  1.000e-05
 DIIS Error             TolErr          ....  5.000e-07


Diagonalization of the overlap matrix:
Smallest eigenvalue                        ... 9.198e-05
Time for diagonalization                   ...    0.016 sec
Threshold for overlap eigenvalues          ... 1.000e-08
Number of eigenvalues below threshold      ... 0
Time for construction of square roots      ...    0.010 sec
Total time needed                          ...    0.028 sec

Time for model grid setup =    0.095 sec

------------------------------
INITIAL GUESS: MODEL POTENTIAL
------------------------------
Loading Hartree-Fock densities                     ... done
Calculating cut-offs                               ... done
Initializing the effective Hamiltonian             ... done
Setting up the integral package (SHARK)            ... done
Starting the Coulomb interaction                   ... done (   0.1 sec)
Reading the grid                                   ... done
Mapping shells                                     ... done
Starting the XC term evaluation                    ... done (   0.1 sec)
  promolecular density results
     # of electrons  =     47.996177009
     EX              =    -36.788901065
     EC              =     -1.576386559
     EX+EC           =    -38.365287624
Transforming the Hamiltonian                       ... done (   0.0 sec)
Diagonalizing the Hamiltonian                      ... done (   0.0 sec)
Back transforming the eigenvectors                 ... done (   0.0 sec)
Now organizing SCF variables                       ... done
                      ------------------
                      INITIAL GUESS DONE (   0.3 sec)
                      ------------------
-------------------
DFT GRID GENERATION
-------------------

General Integration Accuracy     IntAcc      ... 4.388
Radial Grid Type                 RadialGrid  ... OptM3 with GC (2021)
Angular Grid (max. ang.)         AngularGrid ... 4 (Lebedev-302)
Angular grid pruning method      GridPruning ... 4 (adaptive)
Weight generation scheme         WeightScheme... Becke
Basis function cutoff            BFCut       ... 1.0000e-11
Integration weight cutoff        WCut        ... 1.0000e-14
Angular grids for H and He will be reduced by one unit
Partially contracted basis set               ... off
Rotationally invariant grid construction     ... off

Total number of grid points                  ...    68432
Total number of batches                      ...     1079
Average number of points per batch           ...       63
Average number of grid points per atom       ...     4277
Time for grid setup =    0.440 sec

--------------
SCF ITERATIONS
--------------
ITER       Energy         Delta-E        Max-DP      RMS-DP      [F,P]     Damp
               ***  Starting incremental Fock matrix formation  ***
  0   -267.5247994432   0.000000000000 0.08680607  0.00202052  0.2618843 0.7000
  1   -267.7092828969  -0.184483453720 0.09527460  0.00166955  0.1098671 0.7000
                               ***Turning on DIIS***
  2   -267.7670515105  -0.057768613586 0.12630728  0.00249527  0.0238546 0.0000
  3   -267.8540682256  -0.087016715140 0.08345525  0.00122931  0.0705226 0.0000
  4   -267.8832737495  -0.029205523915 0.03708738  0.00058252  0.0180750 0.0000
  5   -267.8853780120  -0.002104262501 0.01520345  0.00025106  0.0047935 0.0000
                      *** Initiating the SOSCF procedure ***
                           *** Shutting down DIIS ***
                      *** Re-Reading the Fockian *** 
                      *** Removing any level shift *** 
ITER      Energy       Delta-E        Grad      Rot      Max-DP    RMS-DP
  6   -267.88554313  -0.0001651178  0.000451  0.000451  0.007540  0.000115
               *** Restarting incremental Fock matrix formation ***
  7   -267.88556109  -0.0000179596  0.000266  0.001829  0.007697  0.000112
  8   -267.88556382  -0.0000027312  0.000109  0.000434  0.002385  0.000030
  9   -267.88556375   0.0000000733  0.000172  0.000486  0.002152  0.000030
 10   -267.88556448  -0.0000007325  0.000067  0.000207  0.000803  0.000009
 11   -267.88556441   0.0000000725  0.000058  0.000177  0.000766  0.000009
 12   -267.88556459  -0.0000001829  0.000008  0.000023  0.000129  0.000002
 13   -267.88556459   0.0000000051  0.000011  0.000015  0.000073  0.000001
                  ***Gradient check signals convergence***
              ***Rediagonalizing the Fockian in SOSCF/NRSCF***

               *****************************************************
               *                     SUCCESS                       *
               *           SCF CONVERGED AFTER  14 CYCLES          *
               *****************************************************


----------------
TOTAL SCF ENERGY
----------------

Total Energy       :         -267.88556460 Eh           -7289.53681 eV

Components:
Nuclear Repulsion  :          245.87302837 Eh            6690.54524 eV
Electronic Energy  :         -513.75859297 Eh          -13980.08205 eV
One Electron Energy:         -848.23372442 Eh          -23081.61309 eV
Two Electron Energy:          334.47513145 Eh            9101.53104 eV

Virial components:
Potential Energy   :         -535.51839001 Eh          -14572.19623 eV
Kinetic Energy     :          267.63282541 Eh            7282.65942 eV
Virial Ratio       :            2.00094435


DFT components:
N(Alpha)           :       23.999935394747 electrons
N(Beta)            :       23.999935394747 electrons
N(Total)           :       47.999870789495 electrons
E(X)               :      -37.795038646028 Eh       
E(C)               :       -1.593089350678 Eh       
E(XC)              :      -39.388127996706 Eh       
DFET-embed. en.    :        0.000000000000 Eh       

---------------
SCF CONVERGENCE
---------------

  Last Energy change         ...   -1.0035e-08  Tolerance :   1.0000e-08
  Last MAX-Density change    ...    4.2444e-05  Tolerance :   1.0000e-07
  Last RMS-Density change    ...    5.8137e-07  Tolerance :   5.0000e-09
  Last Orbital Gradient      ...    1.9713e-06  Tolerance :   1.0000e-05
  Last Orbital Rotation      ...    3.8998e-06  Tolerance :   1.0000e-05

             **** THE GBW FILE WAS UPDATED (TZVP_BLYP_C1_wt_dlpno_pos.gbw) ****
             **** DENSITY TZVP_BLYP_C1_wt_dlpno_pos.scfp WAS UPDATED ****
             **** ENERGY FILE WAS UPDATED (TZVP_BLYP_C1_wt_dlpno_pos.en.tmp) ****
             **** THE GBW FILE WAS UPDATED (TZVP_BLYP_C1_wt_dlpno_pos.gbw) ****
             **** DENSITY TZVP_BLYP_C1_wt_dlpno_pos.scfp WAS UPDATED ****
----------------
ORBITAL ENERGIES
----------------

  NO   OCC          E(Eh)            E(eV) 
   0   2.0000     -14.005647      -381.1130 
   1   2.0000     -13.997887      -380.9019 
   2   2.0000      -9.939675      -270.4723 
   3   2.0000      -9.874046      -268.6864 
   4   2.0000      -9.865469      -268.4531 
   5   2.0000      -9.822597      -267.2865 
   6   2.0000      -0.868569       -23.6350 
   7   2.0000      -0.784183       -21.3387 
   8   2.0000      -0.687165       -18.6987 
   9   2.0000      -0.617413       -16.8007 
  10   2.0000      -0.548547       -14.9267 
  11   2.0000      -0.513702       -13.9785 
  12   2.0000      -0.485255       -13.2045 
  13   2.0000      -0.447701       -12.1826 
  14   2.0000      -0.426543       -11.6068 
  15   2.0000      -0.386787       -10.5250 
  16   2.0000      -0.361277        -9.8309 
  17   2.0000      -0.338433        -9.2092 
  18   2.0000      -0.325525        -8.8580 
  19   2.0000      -0.300443        -8.1755 
  20   2.0000      -0.278947        -7.5905 
  21   2.0000      -0.273404        -7.4397 
  22   2.0000      -0.215455        -5.8628 
  23   2.0000      -0.120093        -3.2679 
  24   0.0000      -0.003078        -0.0838 
  25   0.0000       0.024921         0.6781 
  26   0.0000       0.043651         1.1878 
  27   0.0000       0.053546         1.4571 
  28   0.0000       0.066750         1.8164 
  29   0.0000       0.078822         2.1448 
  30   0.0000       0.085427         2.3246 
  31   0.0000       0.103461         2.8153 
  32   0.0000       0.115899         3.1538 
  33   0.0000       0.125814         3.4236 
  34   0.0000       0.143658         3.9091 
  35   0.0000       0.150556         4.0968 
  36   0.0000       0.169613         4.6154 
  37   0.0000       0.194293         5.2870 
  38   0.0000       0.201744         5.4897 
  39   0.0000       0.215180         5.8554 
  40   0.0000       0.222017         6.0414 
  41   0.0000       0.247004         6.7213 
  42   0.0000       0.256992         6.9931 
  43   0.0000       0.264325         7.1927 
  44   0.0000       0.274252         7.4628 
  45   0.0000       0.289141         7.8679 
  46   0.0000       0.311600         8.4791 
  47   0.0000       0.328023         8.9260 
  48   0.0000       0.337382         9.1806 
  49   0.0000       0.370493        10.0816 
  50   0.0000       0.378987        10.3128 
  51   0.0000       0.389179        10.5901 
  52   0.0000       0.396024        10.7764 
  53   0.0000       0.400456        10.8970 
  54   0.0000       0.413059        11.2399 
  55   0.0000       0.419745        11.4218 
  56   0.0000       0.429150        11.6778 
  57   0.0000       0.437398        11.9022 
  58   0.0000       0.448837        12.2135 
  59   0.0000       0.449908        12.2426 
  60   0.0000       0.458530        12.4772 
  61   0.0000       0.479281        13.0419 
  62   0.0000       0.487389        13.2625 
  63   0.0000       0.492712        13.4074 
  64   0.0000       0.509907        13.8753 
  65   0.0000       0.530954        14.4480 
  66   0.0000       0.578626        15.7452 
  67   0.0000       0.583051        15.8656 
  68   0.0000       0.599044        16.3008 
  69   0.0000       0.605933        16.4883 
  70   0.0000       0.622809        16.9475 
  71   0.0000       0.660545        17.9743 
  72   0.0000       0.687072        18.6962 
  73   0.0000       0.705092        19.1865 
  74   0.0000       0.719042        19.5661 
  75   0.0000       0.746376        20.3099 
  76   0.0000       0.818571        22.2745 
  77   0.0000       0.840602        22.8739 
  78   0.0000       0.853752        23.2318 
  79   0.0000       0.872033        23.7292 
  80   0.0000       0.889039        24.1920 
  81   0.0000       0.935017        25.4431 
  82   0.0000       0.958798        26.0902 
  83   0.0000       0.984146        26.7800 
  84   0.0000       1.005493        27.3609 
  85   0.0000       1.033642        28.1268 
  86   0.0000       1.039095        28.2752 
  87   0.0000       1.077887        29.3308 
  88   0.0000       1.102125        29.9904 
  89   0.0000       1.110748        30.2250 
  90   0.0000       1.136304        30.9204 
  91   0.0000       1.165777        31.7224 
  92   0.0000       1.205075        32.7918 
  93   0.0000       1.238040        33.6888 
  94   0.0000       1.272574        34.6285 
  95   0.0000       1.292000        35.1571 
  96   0.0000       1.305239        35.5174 
  97   0.0000       1.336476        36.3674 
  98   0.0000       1.389945        37.8223 
  99   0.0000       1.422294        38.7026 
 100   0.0000       1.437265        39.1100 
 101   0.0000       1.459996        39.7285 
 102   0.0000       1.473334        40.0914 
 103   0.0000       1.479603        40.2620 
 104   0.0000       1.498494        40.7761 
 105   0.0000       1.505193        40.9584 
 106   0.0000       1.515986        41.2521 
 107   0.0000       1.523106        41.4458 
 108   0.0000       1.549198        42.1558 
 109   0.0000       1.552243        42.2387 
 110   0.0000       1.568986        42.6943 
 111   0.0000       1.595591        43.4182 
 112   0.0000       1.627634        44.2902 
 113   0.0000       1.640467        44.6394 
 114   0.0000       1.651924        44.9511 
 115   0.0000       1.659632        45.1609 
 116   0.0000       1.717689        46.7407 
 117   0.0000       1.738333        47.3024 
 118   0.0000       1.748793        47.5871 
 119   0.0000       1.778553        48.3969 
 120   0.0000       1.789368        48.6912 
 121   0.0000       1.808933        49.2236 
 122   0.0000       1.835755        49.9534 
 123   0.0000       1.840700        50.0880 
 124   0.0000       1.886462        51.3332 
 125   0.0000       1.928557        52.4787 
 126   0.0000       1.942795        52.8661 
 127   0.0000       1.989707        54.1427 
 128   0.0000       2.038928        55.4821 
 129   0.0000       2.071771        56.3757 
 130   0.0000       2.084192        56.7137 
 131   0.0000       2.108049        57.3629 
 132   0.0000       2.148049        58.4514 
 133   0.0000       2.206964        60.0546 
 134   0.0000       2.221165        60.4410 
 135   0.0000       2.249870        61.2221 
 136   0.0000       2.265985        61.6606 
 137   0.0000       2.280310        62.0504 
 138   0.0000       2.296818        62.4996 
 139   0.0000       2.324135        63.2429 
 140   0.0000       2.336692        63.5846 
 141   0.0000       2.359854        64.2149 
 142   0.0000       2.394203        65.1496 
 143   0.0000       2.420998        65.8787 
 144   0.0000       2.433417        66.2166 
 145   0.0000       2.457567        66.8738 
 146   0.0000       2.483666        67.5840 
 147   0.0000       2.500457        68.0409 
 148   0.0000       2.533628        68.9435 
 149   0.0000       2.555422        69.5366 
 150   0.0000       2.561845        69.7113 
 151   0.0000       2.585262        70.3485 
 152   0.0000       2.598890        70.7194 
 153   0.0000       2.610657        71.0396 
 154   0.0000       2.636644        71.7467 
 155   0.0000       2.663689        72.4827 
 156   0.0000       2.695376        73.3449 
 157   0.0000       2.717472        73.9462 
 158   0.0000       2.775613        75.5283 
 159   0.0000       2.794683        76.0472 
 160   0.0000       2.815434        76.6119 
 161   0.0000       2.828922        76.9789 
 162   0.0000       2.858884        77.7942 
 163   0.0000       2.896128        78.8077 
 164   0.0000       2.940433        80.0132 
 165   0.0000       2.960850        80.5688 
 166   0.0000       2.975095        80.9565 
 167   0.0000       3.005943        81.7959 
 168   0.0000       3.015102        82.0451 
 169   0.0000       3.053484        83.0895 
 170   0.0000       3.057863        83.2087 
 171   0.0000       3.092081        84.1398 
 172   0.0000       3.117919        84.8429 
 173   0.0000       3.127612        85.1066 
 174   0.0000       3.152512        85.7842 
 175   0.0000       3.192524        86.8730 
 176   0.0000       3.195874        86.9642 
 177   0.0000       3.207366        87.2769 
 178   0.0000       3.231485        87.9332 
 179   0.0000       3.244827        88.2962 
 180   0.0000       3.280694        89.2722 
 181   0.0000       3.285788        89.4108 
 182   0.0000       3.332547        90.6832 
 183   0.0000       3.367006        91.6209 
 184   0.0000       3.392776        92.3221 
 185   0.0000       3.408902        92.7609 
 186   0.0000       3.438730        93.5726 
 187   0.0000       3.470717        94.4430 
 188   0.0000       3.499708        95.2319 
 189   0.0000       3.510068        95.5138 
 190   0.0000       3.556423        96.7752 
 191   0.0000       3.611275        98.2678 
 192   0.0000       3.654500        99.4440 
 193   0.0000       3.689006       100.3830 
 194   0.0000       3.709890       100.9512 
 195   0.0000       3.742438       101.8369 
 196   0.0000       3.786646       103.0399 
 197   0.0000       3.806348       103.5760 
 198   0.0000       3.853428       104.8571 
 199   0.0000       3.871098       105.3379 
 200   0.0000       3.899074       106.0992 
 201   0.0000       3.984521       108.4243 
 202   0.0000       4.047446       110.1366 
 203   0.0000       4.087109       111.2159 
 204   0.0000       4.121444       112.1502 
 205   0.0000       4.151972       112.9809 
 206   0.0000       4.253483       115.7431 
 207   0.0000       4.291875       116.7879 
 208   0.0000       4.316222       117.4504 
 209   0.0000       4.343022       118.1796 
 210   0.0000       4.374069       119.0245 
 211   0.0000       4.417998       120.2198 
 212   0.0000       4.467394       121.5640 
 213   0.0000       4.494580       122.3037 
 214   0.0000       4.522814       123.0720 
 215   0.0000       4.555184       123.9529 
 216   0.0000       4.602759       125.2474 
 217   0.0000       4.618069       125.6640 
 218   0.0000       4.649463       126.5183 
 219   0.0000       4.664975       126.9404 
 220   0.0000       4.724594       128.5627 
 221   0.0000       4.747976       129.1990 
 222   0.0000       4.807443       130.8172 
 223   0.0000       4.816843       131.0730 
 224   0.0000       4.858523       132.2071 
 225   0.0000       4.934888       134.2851 
 226   0.0000       4.987934       135.7286 
 227   0.0000       5.068688       137.9260 
 228   0.0000       5.086871       138.4208 
 229   0.0000       5.121086       139.3518 
 230   0.0000       5.164928       140.5448 
 231   0.0000       5.186688       141.1370 
 232   0.0000       5.205043       141.6364 
 233   0.0000       5.253746       142.9617 
 234   0.0000       5.350309       145.5893 
 235   0.0000       5.382151       146.4558 
 236   0.0000       5.552764       151.0984 
 237   0.0000       5.867092       159.6517 
 238   0.0000       5.994807       163.1270 
 239   0.0000       6.021316       163.8484 
 240   0.0000      22.116440       601.8189 
 241   0.0000      22.255066       605.5911 
 242   0.0000      22.551616       613.6607 
 243   0.0000      23.117291       629.0535 
 244   0.0000      31.621125       860.4546 
 245   0.0000      31.789703       865.0418 

                    ********************************
                    * MULLIKEN POPULATION ANALYSIS *
                    ********************************

-----------------------
MULLIKEN ATOMIC CHARGES
-----------------------
   0 C :   -0.168993
   1 C :   -0.299158
   2 C :   -0.237160
   3 C :    0.369550
   4 N :   -0.445302
   5 N :   -0.427548
   6 H :    0.222694
   7 H :    0.189181
   8 H :    0.059829
   9 H :    0.217743
  10 H :    0.183869
  11 H :    0.040343
  12 H :    0.066404
  13 H :    0.072354
  14 H :    0.076436
  15 H :    0.079757
Sum of atomic charges:   -0.0000000

--------------------------------
MULLIKEN REDUCED ORBITAL CHARGES
--------------------------------
  0 C s       :     3.242388  s :     3.242388
      pz      :     0.927030  p :     2.826956
      px      :     0.921255
      py      :     0.978671
      dz2     :     0.016263  d :     0.093590
      dxz     :     0.025570
      dyz     :     0.010232
      dx2y2   :     0.028596
      dxy     :     0.012930
      f0      :     0.001035  f :     0.006058
      f+1     :     0.001317
      f-1     :     0.000293
      f+2     :     0.000322
      f-2     :     0.001111
      f+3     :     0.001395
      f-3     :     0.000585
  1 C s       :     3.177573  s :     3.177573
      pz      :     0.997293  p :     3.045574
      px      :     1.061086
      py      :     0.987196
      dz2     :     0.010956  d :     0.068711
      dxz     :     0.016002
      dyz     :     0.009777
      dx2y2   :     0.024219
      dxy     :     0.007757
      f0      :     0.000818  f :     0.007300
      f+1     :     0.000541
      f-1     :     0.001335
      f+2     :     0.000714
      f-2     :     0.001546
      f+3     :     0.001421
      f-3     :     0.000925
  2 C s       :     3.232380  s :     3.232380
      pz      :     0.960650  p :     2.961140
      px      :     0.990874
      py      :     1.009616
      dz2     :     0.015940  d :     0.040161
      dxz     :     0.004845
      dyz     :     0.005582
      dx2y2   :     0.003485
      dxy     :     0.010308
      f0      :     0.000574  f :     0.003480
      f+1     :     0.001219
      f-1     :     0.000225
      f+2     :     0.000235
      f-2     :     0.000430
      f+3     :     0.000431
      f-3     :     0.000366
  3 C s       :     3.019478  s :     3.019478
      pz      :     0.834848  p :     2.412202
      px      :     0.673680
      py      :     0.903675
      dz2     :     0.036880  d :     0.181173
      dxz     :     0.044265
      dyz     :     0.020482
      dx2y2   :     0.039213
      dxy     :     0.040332
      f0      :     0.001937  f :     0.017597
      f+1     :     0.002752
      f-1     :     0.001991
      f+2     :     0.001941
      f-2     :     0.003379
      f+3     :     0.003397
      f-3     :     0.002200
  4 N s       :     3.441236  s :     3.441236
      pz      :     1.641418  p :     3.970110
      px      :     1.124498
      py      :     1.204195
      dz2     :     0.003160  d :     0.030575
      dxz     :     0.007325
      dyz     :     0.004430
      dx2y2   :     0.009470
      dxy     :     0.006190
      f0      :     0.000628  f :     0.003380
      f+1     :     0.000357
      f-1     :     0.000278
      f+2     :     0.000541
      f-2     :     0.000499
      f+3     :     0.000518
      f-3     :     0.000559
  5 N s       :     3.440607  s :     3.440607
      pz      :     1.400805  p :     3.952727
      px      :     1.108483
      py      :     1.443439
      dz2     :     0.008887  d :     0.030807
      dxz     :     0.003159
      dyz     :     0.006567
      dx2y2   :     0.007655
      dxy     :     0.004539
      f0      :     0.000358  f :     0.003408
      f+1     :     0.000539
      f-1     :     0.000459
      f+2     :     0.000683
      f-2     :     0.000491
      f+3     :     0.000501
      f-3     :     0.000377
  6 H s       :     0.738636  s :     0.738636
      pz      :     0.009000  p :     0.038671
      px      :     0.018798
      py      :     0.010873
  7 H s       :     0.772357  s :     0.772357
      pz      :     0.015886  p :     0.038461
      px      :     0.005649
      py      :     0.016926
  8 H s       :     0.914434  s :     0.914434
      pz      :     0.009625  p :     0.025737
      px      :     0.009815
      py      :     0.006296
  9 H s       :     0.744025  s :     0.744025
      pz      :     0.013897  p :     0.038231
      px      :     0.015208
      py      :     0.009126
 10 H s       :     0.777333  s :     0.777333
      pz      :     0.014851  p :     0.038798
      px      :     0.005847
      py      :     0.018099
 11 H s       :     0.937691  s :     0.937691
      pz      :     0.010475  p :     0.021966
      px      :     0.006638
      py      :     0.004853
 12 H s       :     0.911934  s :     0.911934
      pz      :     0.004421  p :     0.021662
      px      :     0.005750
      py      :     0.011491
 13 H s       :     0.905807  s :     0.905807
      pz      :     0.004966  p :     0.021839
      px      :     0.005865
      py      :     0.011008
 14 H s       :     0.901687  s :     0.901687
      pz      :     0.005074  p :     0.021877
      px      :     0.009233
      py      :     0.007569
 15 H s       :     0.898343  s :     0.898343
      pz      :     0.010390  p :     0.021900
      px      :     0.006705
      py      :     0.004805


                     *******************************
                     * LOEWDIN POPULATION ANALYSIS *
                     *******************************

----------------------
LOEWDIN ATOMIC CHARGES
----------------------
   0 C :   -0.300078
   1 C :   -0.269823
   2 C :   -0.300088
   3 C :   -0.465765
   4 N :   -0.018279
   5 N :    0.011813
   6 H :    0.172154
   7 H :    0.158443
   8 H :    0.116004
   9 H :    0.169573
  10 H :    0.149475
  11 H :    0.123140
  12 H :    0.132628
  13 H :    0.106633
  14 H :    0.104014
  15 H :    0.110156

-------------------------------
LOEWDIN REDUCED ORBITAL CHARGES
-------------------------------
  0 C s       :     2.763414  s :     2.763414
      pz      :     1.005076  p :     3.058632
      px      :     1.032048
      py      :     1.021508
      dz2     :     0.091100  d :     0.433947
      dxz     :     0.124850
      dyz     :     0.037159
      dx2y2   :     0.106549
      dxy     :     0.074290
      f0      :     0.006175  f :     0.044086
      f+1     :     0.006525
      f-1     :     0.005252
      f+2     :     0.004372
      f-2     :     0.007990
      f+3     :     0.009261
      f-3     :     0.004511
  1 C s       :     2.742104  s :     2.742104
      pz      :     1.038595  p :     3.102291
      px      :     1.007728
      py      :     1.055968
      dz2     :     0.049690  d :     0.380761
      dxz     :     0.090746
      dyz     :     0.060889
      dx2y2   :     0.099925
      dxy     :     0.079510
      f0      :     0.005088  f :     0.044667
      f+1     :     0.003271
      f-1     :     0.006883
      f+2     :     0.006709
      f-2     :     0.007839
      f+3     :     0.009068
      f-3     :     0.005808
  2 C s       :     2.827425  s :     2.827425
      pz      :     1.061086  p :     3.181699
      px      :     1.054716
      py      :     1.065898
      dz2     :     0.082543  d :     0.264287
      dxz     :     0.059495
      dyz     :     0.025683
      dx2y2   :     0.029925
      dxy     :     0.066641
      f0      :     0.003326  f :     0.026676
      f+1     :     0.005445
      f-1     :     0.004875
      f+2     :     0.004454
      f-2     :     0.003362
      f+3     :     0.002772
      f-3     :     0.002442
  3 C s       :     2.692014  s :     2.692014
      pz      :     0.935332  p :     2.820875
      px      :     0.905293
      py      :     0.980251
      dz2     :     0.163676  d :     0.836821
      dxz     :     0.194323
      dyz     :     0.100845
      dx2y2   :     0.174040
      dxy     :     0.203936
      f0      :     0.014222  f :     0.116055
      f+1     :     0.018688
      f-1     :     0.009546
      f+2     :     0.014099
      f-2     :     0.018291
      f+3     :     0.025322
      f-3     :     0.015888
  4 N s       :     2.969661  s :     2.969661
      pz      :     1.489571  p :     3.889516
      px      :     1.172254
      py      :     1.227691
      dz2     :     0.007869  d :     0.147931
      dxz     :     0.030757
      dyz     :     0.016514
      dx2y2   :     0.052849
      dxy     :     0.039942
      f0      :     0.001947  f :     0.011170
      f+1     :     0.001191
      f-1     :     0.000409
      f+2     :     0.001626
      f-2     :     0.001785
      f+3     :     0.002524
      f-3     :     0.001689
  5 N s       :     2.954077  s :     2.954077
      pz      :     1.355098  p :     3.863210
      px      :     1.162661
      py      :     1.345451
      dz2     :     0.034078  d :     0.158333
      dxz     :     0.025582
      dyz     :     0.028723
      dx2y2   :     0.044784
      dxy     :     0.025166
      f0      :     0.001612  f :     0.012567
      f+1     :     0.002409
      f-1     :     0.001069
      f+2     :     0.001875
      f-2     :     0.002362
      f+3     :     0.001995
      f-3     :     0.001245
  6 H s       :     0.720086  s :     0.720086
      pz      :     0.026416  p :     0.107761
      px      :     0.050981
      py      :     0.030364
  7 H s       :     0.734115  s :     0.734115
      pz      :     0.042380  p :     0.107442
      px      :     0.018321
      py      :     0.046742
  8 H s       :     0.808696  s :     0.808696
      pz      :     0.028064  p :     0.075299
      px      :     0.027993
      py      :     0.019242
  9 H s       :     0.723207  s :     0.723207
      pz      :     0.038492  p :     0.107220
      px      :     0.040609
      py      :     0.028118
 10 H s       :     0.741377  s :     0.741377
      pz      :     0.041458  p :     0.109148
      px      :     0.016904
      py      :     0.050786
 11 H s       :     0.818579  s :     0.818579
      pz      :     0.026433  p :     0.058281
      px      :     0.017923
      py      :     0.013926
 12 H s       :     0.809951  s :     0.809951
      pz      :     0.012739  p :     0.057420
      px      :     0.016016
      py      :     0.028665
 13 H s       :     0.829844  s :     0.829844
      pz      :     0.014792  p :     0.063523
      px      :     0.016532
      py      :     0.032198
 14 H s       :     0.832136  s :     0.832136
      pz      :     0.014719  p :     0.063850
      px      :     0.026033
      py      :     0.023098
 15 H s       :     0.826363  s :     0.826363
      pz      :     0.028313  p :     0.063480
      px      :     0.020623
      py      :     0.014545


                      *****************************
                      * MAYER POPULATION ANALYSIS *
                      *****************************

  NA   - Mulliken gross atomic population
  ZA   - Total nuclear charge
  QA   - Mulliken gross atomic charge
  VA   - Mayer's total valence
  BVA  - Mayer's bonded valence
  FA   - Mayer's free valence

  ATOM       NA         ZA         QA         VA         BVA        FA
  0 C      6.1690     6.0000    -0.1690     3.9571     3.9571     0.0000
  1 C      6.2992     6.0000    -0.2992     3.7455     3.7455    -0.0000
  2 C      6.2372     6.0000    -0.2372     3.7570     3.7570     0.0000
  3 C      5.6304     6.0000     0.3696     3.8974     3.8974     0.0000
  4 N      7.4453     7.0000    -0.4453     3.0766     3.0766    -0.0000
  5 N      7.4275     7.0000    -0.4275     3.1329     3.1329     0.0000
  6 H      0.7773     1.0000     0.2227     0.9620     0.9620    -0.0000
  7 H      0.8108     1.0000     0.1892     0.9785     0.9785     0.0000
  8 H      0.9402     1.0000     0.0598     0.9872     0.9872    -0.0000
  9 H      0.7823     1.0000     0.2177     0.9655     0.9655    -0.0000
 10 H      0.8161     1.0000     0.1839     0.9784     0.9784    -0.0000
 11 H      0.9597     1.0000     0.0403     0.9783     0.9783    -0.0000
 12 H      0.9336     1.0000     0.0664     0.9643     0.9643    -0.0000
 13 H      0.9276     1.0000     0.0724     0.9888     0.9888    -0.0000
 14 H      0.9236     1.0000     0.0764     0.9782     0.9782    -0.0000
 15 H      0.9202     1.0000     0.0798     0.9900     0.9900    -0.0000

  Mayer bond orders larger than 0.100000
B(  0-C ,  1-C ) :   1.0519 B(  0-C ,  2-C ) :   0.9405 B(  0-C , 11-H ) :   0.9644 
B(  0-C , 12-H ) :   0.9720 B(  1-C ,  3-C ) :   1.6273 B(  1-C ,  8-H ) :   0.9868 
B(  2-C , 13-H ) :   0.9773 B(  2-C , 14-H ) :   0.9681 B(  2-C , 15-H ) :   0.9790 
B(  3-C ,  4-N ) :   1.0957 B(  3-C ,  5-N ) :   1.1259 B(  4-N ,  9-H ) :   0.9258 
B(  4-N , 10-H ) :   0.9320 B(  5-N ,  6-H ) :   0.9248 B(  5-N ,  7-H ) :   0.9312 


-------
TIMINGS
-------

Total SCF time: 0 days 0 hours 0 min 7 sec 

Total time                  ....       7.798 sec
Sum of individual times     ....       7.569 sec  ( 97.1%)

Fock matrix formation       ....       6.522 sec  ( 83.6%)
  Split-RI-J                ....       1.851 sec  ( 28.4% of F)
  XC integration            ....       4.587 sec  ( 70.3% of F)
    Basis function eval.    ....       1.553 sec  ( 33.9% of XC)
    Density eval.           ....       1.200 sec  ( 26.2% of XC)
    XC-Functional eval.     ....       0.177 sec  (  3.9% of XC)
    XC-Potential eval.      ....       1.482 sec  ( 32.3% of XC)
Diagonalization             ....       0.110 sec  (  1.4%)
Density matrix formation    ....       0.007 sec  (  0.1%)
Population analysis         ....       0.012 sec  (  0.1%)
Initial guess               ....       0.238 sec  (  3.0%)
Orbital Transformation      ....       0.000 sec  (  0.0%)
Orbital Orthonormalization  ....       0.000 sec  (  0.0%)
DIIS solution               ....       0.062 sec  (  0.8%)
SOSCF solution              ....       0.084 sec  (  1.1%)
Grid generation             ....       0.534 sec  (  6.9%)

Maximum memory used throughout the entire SCF-calculation: 27.1 MB


-------------------------------------------------------------------------------
                          DFT DISPERSION CORRECTION                            
                                                                               
                              DFTD3 V3.1  Rev 1                                
                          USING Becke-Johnson damping                          
-------------------------------------------------------------------------------
The BLYP functional is recognized
Active option DFTDOPT                   ...         4   

molecular C6(AA) [au] = 1933.788332 


            DFT-D V3
 parameters
 s6 scaling factor         :     1.0000 
 a1 scaling factor         :     0.4298 
 s8 scaling factor         :     2.6996 
 a2 scaling factor         :     4.2359 
 ad hoc parameters k1-k3   :    16.0000     1.3333    -4.0000 

 Edisp/kcal,au: -16.083916989390  -0.025631350503 
 E6   /kcal   :  -6.684902215 
 E8   /kcal   :  -9.399014774 
 % E8         :  58.437349438 

-------------------------   ----------------
Dispersion correction           -0.025631351
-------------------------   ----------------


-------------------------   --------------------
FINAL SINGLE POINT ENERGY      -267.911195945740
-------------------------   --------------------


                            ***************************************
                            *     ORCA property calculations      *
                            ***************************************

                                    ---------------------
                                    Active property flags
                                    ---------------------
   (+) Dipole Moment


------------------------------------------------------------------------------
                       ORCA ELECTRIC PROPERTIES CALCULATION
------------------------------------------------------------------------------

Dipole Moment Calculation                       ... on
Quadrupole Moment Calculation                   ... off
Polarizability Calculation                      ... off
GBWName                                         ... TZVP_BLYP_C1_wt_dlpno_pos.gbw
Electron density file                           ... TZVP_BLYP_C1_wt_dlpno_pos.scfp
The origin for moment calculation is the CENTER OF MASS  = ( 7.754173,  1.319955 -7.063356)

-------------
DIPOLE MOMENT
-------------
                                X             Y             Z
Electronic contribution:      3.04282      -2.86847      -2.95389
Nuclear contribution   :     -2.84307       1.95814       2.32378
                        -----------------------------------------
Total Dipole Moment    :      0.19975      -0.91033      -0.63011
                        -----------------------------------------
Magnitude (a.u.)       :      1.12501
Magnitude (Debye)      :      2.85954



--------------------
Rotational spectrum 
--------------------
 
Rotational constants in cm-1:     0.248902     0.068887     0.059904 
Rotational constants in MHz :  7461.898926  2065.183281  1795.882140 

 Dipole components along the rotational axes: 
x,y,z [a.u.] :     1.000088     0.474282    -0.201291 
x,y,z [Debye]:     2.542021     1.205528    -0.511641 

 

Timings for individual modules:

Sum of individual times         ...        8.428 sec (=   0.140 min)
GTO integral calculation        ...        0.422 sec (=   0.007 min)   5.0 %
SCF iterations                  ...        8.006 sec (=   0.133 min)  95.0 %
                             ****ORCA TERMINATED NORMALLY****
TOTAL RUN TIME: 0 days 0 hours 0 minutes 8 seconds 833 msec
