
                                        *****************
                                        * O   R   C   A *
                                        *****************

                                            #,                                       
                                            ###                                      
                                            ####                                     
                                            #####                                    
                                            ######                                   
                                           ########,                                 
                                     ,,################,,,,,                         
                               ,,#################################,,                 
                          ,,##########################################,,             
                       ,#########################################, ''#####,          
                    ,#############################################,,   '####,        
                  ,##################################################,,,,####,       
                ,###########''''           ''''###############################       
              ,#####''   ,,,,##########,,,,          '''####'''          '####       
            ,##' ,,,,###########################,,,                        '##       
           ' ,,###''''                  '''############,,,                           
         ,,##''                                '''############,,,,        ,,,,,,###''
      ,#''                                            '''#######################'''  
     '                                                          ''''####''''         
             ,#######,   #######,   ,#######,      ##                                
            ,#'     '#,  ##    ##  ,#'     '#,    #''#        ######   ,####,        
            ##       ##  ##   ,#'  ##            #'  '#       #        #'  '#        
            ##       ##  #######   ##           ,######,      #####,   #    #        
            '#,     ,#'  ##    ##  '#,     ,#' ,#      #,         ##   #,  ,#        
             '#######'   ##     ##  '#######'  #'      '#     #####' # '####'        



                  #######################################################
                  #                        -***-                        #
                  #          Department of theory and spectroscopy      #
                  #    Directorship and core code : Frank Neese         #
                  #        Max Planck Institute fuer Kohlenforschung    #
                  #                Kaiser Wilhelm Platz 1               #
                  #                 D-45470 Muelheim/Ruhr               #
                  #                      Germany                        #
                  #                                                     #
                  #                  All rights reserved                #
                  #                        -***-                        #
                  #######################################################


                         Program Version 5.0.0 -  RELEASE  -
                                (SVN: $Rev: 19529$)
                ($Date: 2021-06-28 11:36:33 +0200 (Mo, 28 Jun 2021) $)


 With contributions from (in alphabetic order):
   Daniel Aravena         : Magnetic Suceptibility
   Michael Atanasov       : Ab Initio Ligand Field Theory (pilot matlab implementation)
   Alexander A. Auer      : GIAO ZORA, VPT2 properties, NMR spectrum
   Ute Becker             : Parallelization
   Giovanni Bistoni       : ED, misc. LED, open-shell LED, HFLD
   Martin Brehm           : Molecular dynamics
   Dmytro Bykov           : SCF Hessian
   Vijay G. Chilkuri      : MRCI spin determinant printing, contributions to CSF-ICE
   Dipayan Datta          : RHF DLPNO-CCSD density
   Achintya Kumar Dutta   : EOM-CC, STEOM-CC
   Dmitry Ganyushin       : Spin-Orbit,Spin-Spin,Magnetic field MRCI
   Miquel Garcia          : C-PCM Hessian, Gaussian charge scheme
   Yang Guo               : DLPNO-NEVPT2, F12-NEVPT2, CIM, IAO-localization
   Andreas Hansen         : Spin unrestricted coupled pair/coupled cluster methods
   Benjamin Helmich-Paris : MC-RPA, TRAH-SCF, COSX integrals
   Lee Huntington         : MR-EOM, pCC
   Robert Izsak           : Overlap fitted RIJCOSX, COSX-SCS-MP3, EOM
   Marcus Kettner         : VPT2
   Christian Kollmar      : KDIIS, OOCD, Brueckner-CCSD(T), CCSD density, CASPT2, CASPT2-K
   Simone Kossmann        : Meta GGA functionals, TD-DFT gradient, OOMP2, MP2 Hessian
   Martin Krupicka        : Initial AUTO-CI
   Lucas Lang             : DCDCAS
   Marvin Lechner         : AUTO-CI (C++ implementation), FIC-MRCC
   Dagmar Lenk            : GEPOL surface, SMD
   Dimitrios Liakos       : Extrapolation schemes; Compound Job, initial MDCI parallelization
   Dimitrios Manganas     : Further ROCIS development; embedding schemes
   Dimitrios Pantazis     : SARC Basis sets
   Anastasios Papadopoulos: AUTO-CI, single reference methods and gradients
   Taras Petrenko         : DFT Hessian,TD-DFT gradient, ASA, ECA, R-Raman, ABS, FL, XAS/XES, NRVS
   Peter Pinski           : DLPNO-MP2, DLPNO-MP2 Gradient
   Christoph Reimann      : Effective Core Potentials
   Marius Retegan         : Local ZFS, SOC
   Christoph Riplinger    : Optimizer, TS searches, QM/MM, DLPNO-CCSD(T), (RO)-DLPNO pert. Triples
   Tobias Risthaus        : Range-separated hybrids, TD-DFT gradient, RPA, STAB
   Michael Roemelt        : Original ROCIS implementation
   Masaaki Saitow         : Open-shell DLPNO-CCSD energy and density
   Barbara Sandhoefer     : DKH picture change effects
   Avijit Sen             : IP-ROCIS
   Kantharuban Sivalingam : CASSCF convergence, NEVPT2, FIC-MRCI
   Bernardo de Souza      : ESD, SOC TD-DFT
   Georgi Stoychev        : AutoAux, RI-MP2 NMR
   Willem Van den Heuvel  : Paramagnetic NMR
   Boris Wezisla          : Elementary symmetry handling
   Frank Wennmohs         : Technical directorship


 We gratefully acknowledge several colleagues who have allowed us to
 interface, adapt or use parts of their codes:
   Stefan Grimme, W. Hujo, H. Kruse, P. Pracht,  : VdW corrections, initial TS optimization,
                  C. Bannwarth, S. Ehlert          DFT functionals, gCP, sTDA/sTD-DF
   Ed Valeev, F. Pavosevic, A. Kumar             : LibInt (2-el integral package), F12 methods
   Garnet Chan, S. Sharma, J. Yang, R. Olivares  : DMRG
   Ulf Ekstrom                                   : XCFun DFT Library
   Mihaly Kallay                                 : mrcc  (arbitrary order and MRCC methods)
   Jiri Pittner, Ondrej Demel                    : Mk-CCSD
   Frank Weinhold                                : gennbo (NPA and NBO analysis)
   Christopher J. Cramer and Donald G. Truhlar   : smd solvation model
   Lars Goerigk                                  : TD-DFT with DH, B97 family of functionals
   V. Asgeirsson, H. Jonsson                     : NEB implementation
   FAccTs GmbH                                   : IRC, NEB, NEB-TS, DLPNO-Multilevel, CI-OPT
                                                   MM, QMMM, 2- and 3-layer-ONIOM, Crystal-QMMM,
                                                   LR-CPCM, SF, NACMEs, symmetry and pop. for TD-DFT,
                                                   nearIR, NL-DFT gradient (VV10), updates on ESD,
                                                   ML-optimized integration grids
   S Lehtola, MJT Oliveira, MAL Marques          : LibXC Library
   Liviu Ungur et al                             : ANISO software


 Your calculation uses the libint2 library for the computation of 2-el integrals
 For citations please refer to: http://libint.valeyev.net

 Your ORCA version has been built with support for libXC version: 5.1.0
 For citations please refer to: https://tddft.org/programs/libxc/

 This ORCA versions uses:
   CBLAS   interface :  Fast vector & matrix operations
   LAPACKE interface :  Fast linear algebra routines
   SCALAPACK package :  Parallel linear algebra routines
   Shared memory     :  Shared parallel matrices
   BLAS/LAPACK       :  OpenBLAS 0.3.15  USE64BITINT DYNAMIC_ARCH NO_AFFINITY Haswell SINGLE_THREADED
        Core in use  :  Haswell
   Copyright (c) 2011-2014, The OpenBLAS Project


Your calculation utilizes the atom-pairwise dispersion correction
with the Becke-Johnson damping scheme (D3BJ)
Cite in your paper:
S.Grimme, S.Ehrlich, L.Goerigk, J Comput Chem, (2011), 32, 1456–1465 
S.Grimme, J.Antony, S.Ehrlich and H.Krieg, J.Chem.Phys., 132, (2010), 154104 
   

================================================================================

----- Orbital basis set information -----
Your calculation utilizes the basis: def2-TZVP
   F. Weigend and R. Ahlrichs, Phys. Chem. Chem. Phys. 7, 3297 (2005).

----- AuxJ basis set information -----
Your calculation utilizes the auxiliary basis: def2/J
   F. Weigend, Phys. Chem. Chem. Phys. 8, 1057 (2006).

================================================================================
                                        WARNINGS
                       Please study these warnings very carefully!
================================================================================



WARNING: Found flag for RIJCOSX approximation but no HF exchange needed!
  ===> : RIJCOSX  will be disabled and Split-RI-J is turned on

INFO   : the flag for use of the SHARK integral package has been found!

================================================================================
                                       INPUT FILE
================================================================================
NAME = TZVP_BLYP_C3_wt_dlpno_pos.com
|  1> !BLYP D3BJ RIJCOSX def2-TZVP def2/J TightSCF
|  2> *xyz 0 1
|  3> C          3.38093        2.08304       -3.35013
|  4> N          4.53592        1.18245       -3.42852
|  5> C          2.49556        1.81615       -2.13636
|  6> C          4.67196        0.12227       -4.22060
|  7> N          5.86602       -0.50785       -4.22428
|  8> C          3.69888       -0.31284       -4.98699
|  9> H          2.73141       -0.05009       -4.84900
| 10> H          3.89005       -1.05517       -5.64373
| 11> H          5.25193        1.30346       -2.72101
| 12> H          6.69516       -0.06232       -3.85160
| 13> H          5.97538       -1.39688       -4.69141
| 14> H          2.80646        1.98651       -4.26848
| 15> H          3.77871        3.09828       -3.30738
| 16> H          2.11090        0.81901       -2.18783
| 17> H          1.68276        2.51198       -2.12786
| 18> H          3.07216        1.93031       -1.24227
| 19> *
| 20> 
| 21> %MaxCore 64000
| 22> 
| 23> %pal nprocs 4
| 24> end  
| 25> 
| 26> %scf
| 27>   MaxIter 150
| 28> end
| 29> 
| 30> 
| 31>                          ****END OF INPUT****
================================================================================

                       ****************************
                       * Single Point Calculation *
                       ****************************

---------------------------------
CARTESIAN COORDINATES (ANGSTROEM)
---------------------------------
  C      3.380930    2.083040   -3.350130
  N      4.535920    1.182450   -3.428520
  C      2.495560    1.816150   -2.136360
  C      4.671960    0.122270   -4.220600
  N      5.866020   -0.507850   -4.224280
  C      3.698880   -0.312840   -4.986990
  H      2.731410   -0.050090   -4.849000
  H      3.890050   -1.055170   -5.643730
  H      5.251930    1.303460   -2.721010
  H      6.695160   -0.062320   -3.851600
  H      5.975380   -1.396880   -4.691410
  H      2.806460    1.986510   -4.268480
  H      3.778710    3.098280   -3.307380
  H      2.110900    0.819010   -2.187830
  H      1.682760    2.511980   -2.127860
  H      3.072160    1.930310   -1.242270

----------------------------
CARTESIAN COORDINATES (A.U.)
----------------------------
  NO LB      ZA    FRAG     MASS         X           Y           Z
   0 C     6.0000    0    12.011    6.389032    3.936375   -6.330828
   1 N     7.0000    0    14.007    8.571647    2.234507   -6.478964
   2 C     6.0000    0    12.011    4.715925    3.432026   -4.037135
   3 C     6.0000    0    12.011    8.828725    0.231057   -7.975778
   4 N     7.0000    0    14.007   11.085171   -0.959697   -7.982732
   5 C     6.0000    0    12.011    6.989870   -0.591182   -9.424045
   6 H     1.0000    0     1.008    5.161617   -0.094656   -9.163282
   7 H     1.0000    0     1.008    7.351129   -1.993982  -10.665104
   8 H     1.0000    0     1.008    9.924709    2.463182   -5.141964
   9 H     1.0000    0     1.008   12.652019   -0.117768   -7.278469
  10 H     1.0000    0     1.008   11.291832   -2.639721   -8.865480
  11 H     1.0000    0     1.008    5.303441    3.753960   -8.066258
  12 H     1.0000    0     1.008    7.140727    5.854901   -6.250042
  13 H     1.0000    0     1.008    3.989023    1.547705   -4.134400
  14 H     1.0000    0     1.008    3.179956    4.746954   -4.021073
  15 H     1.0000    0     1.008    5.805541    3.647757   -2.347550

--------------------------------
INTERNAL COORDINATES (ANGSTROEM)
--------------------------------
 C      0   0   0     0.000000000000     0.00000000     0.00000000
 N      1   0   0     1.466700119418     0.00000000     0.00000000
 C      1   2   0     1.525892500113   113.08111731     0.00000000
 C      2   1   3     1.330368084554   126.98938656   102.39062418
 N      4   2   1     1.350127416357   117.64459308   174.24709975
 C      4   2   1     1.312843871372   122.40398904   354.61462441
 H      6   4   2     1.011966898421   122.88508084   342.67073608
 H      6   4   2     1.009409344815   118.89240317   173.11235798
 H      2   1   3     1.013846211365   116.45877876   291.29629415
 H      5   4   2     1.012353941515   121.19466995   343.47510404
 H      5   4   2     1.010219969809   120.51230720   170.23250373
 H      1   2   3     1.087520365005   108.44174395   237.12574124
 H      1   2   3     1.091223509873   106.63701105   121.10186677
 H      3   1   2     1.070000306589   109.47067085   299.14133701
 H      3   1   2     1.069997887334   109.47128745   179.14208237
 H      3   1   2     1.069998595186   109.47169847    59.14222448

---------------------------
INTERNAL COORDINATES (A.U.)
---------------------------
 C      0   0   0     0.000000000000     0.00000000     0.00000000
 N      1   0   0     2.771661546289     0.00000000     0.00000000
 C      1   2   0     2.883518935017   113.08111731     0.00000000
 C      2   1   3     2.514031337117   126.98938656   102.39062418
 N      4   2   1     2.551371062814   117.64459308   174.24709975
 C      4   2   1     2.480915373491   122.40398904   354.61462441
 H      6   4   2     1.912340294610   122.88508084   342.67073608
 H      6   4   2     1.907507218721   118.89240317   173.11235798
 H      2   1   3     1.915891681394   116.45877876   291.29629415
 H      5   4   2     1.913071700058   121.19466995   343.47510404
 H      5   4   2     1.909039077956   120.51230720   170.23250373
 H      1   2   3     2.055115654921   108.44174395   237.12574124
 H      1   2   3     2.062113584557   106.63701105   121.10186677
 H      3   1   2     2.022007542664   109.47067085   299.14133701
 H      3   1   2     2.022002970936   109.47128745   179.14208237
 H      3   1   2     2.022004308582   109.47169847    59.14222448

---------------------
BASIS SET INFORMATION
---------------------
There are 3 groups of distinct atoms

 Group   1 Type C   : 11s6p2d1f contracted to 5s3p2d1f pattern {62111/411/11/1}
 Group   2 Type N   : 11s6p2d1f contracted to 5s3p2d1f pattern {62111/411/11/1}
 Group   3 Type H   : 5s1p contracted to 3s1p pattern {311/1}

Atom   0C    basis set group =>   1
Atom   1N    basis set group =>   2
Atom   2C    basis set group =>   1
Atom   3C    basis set group =>   1
Atom   4N    basis set group =>   2
Atom   5C    basis set group =>   1
Atom   6H    basis set group =>   3
Atom   7H    basis set group =>   3
Atom   8H    basis set group =>   3
Atom   9H    basis set group =>   3
Atom  10H    basis set group =>   3
Atom  11H    basis set group =>   3
Atom  12H    basis set group =>   3
Atom  13H    basis set group =>   3
Atom  14H    basis set group =>   3
Atom  15H    basis set group =>   3
---------------------------------
AUXILIARY/J BASIS SET INFORMATION
---------------------------------
There are 3 groups of distinct atoms

 Group   1 Type C   : 12s5p4d2f1g contracted to 6s4p3d1f1g pattern {711111/2111/211/2/1}
 Group   2 Type N   : 12s5p4d2f1g contracted to 6s4p3d1f1g pattern {711111/2111/211/2/1}
 Group   3 Type H   : 5s2p1d contracted to 3s1p1d pattern {311/2/1}

Atom   0C    basis set group =>   1
Atom   1N    basis set group =>   2
Atom   2C    basis set group =>   1
Atom   3C    basis set group =>   1
Atom   4N    basis set group =>   2
Atom   5C    basis set group =>   1
Atom   6H    basis set group =>   3
Atom   7H    basis set group =>   3
Atom   8H    basis set group =>   3
Atom   9H    basis set group =>   3
Atom  10H    basis set group =>   3
Atom  11H    basis set group =>   3
Atom  12H    basis set group =>   3
Atom  13H    basis set group =>   3
Atom  14H    basis set group =>   3
Atom  15H    basis set group =>   3


           ************************************************************
           *        Program running with 4 parallel MPI-processes     *
           *              working on a common directory               *
           ************************************************************
------------------------------------------------------------------------------
                           ORCA GTO INTEGRAL CALCULATION
                           -- RI-GTO INTEGRALS CHOSEN --
------------------------------------------------------------------------------
------------------------------------------------------------------------------
                   ___                                                        
                  /   \      - P O W E R E D   B Y -                         
                 /     \                                                     
                 |  |  |   _    _      __       _____    __    __             
                 |  |  |  | |  | |    /  \     |  _  \  |  |  /  |          
                  \  \/   | |  | |   /    \    | | | |  |  | /  /          
                 / \  \   | |__| |  /  /\  \   | |_| |  |  |/  /          
                |  |  |   |  __  | /  /__\  \  |    /   |      \           
                |  |  |   | |  | | |   __   |  |    \   |  |\   \          
                \     /   | |  | | |  |  |  |  | |\  \  |  | \   \       
                 \___/    |_|  |_| |__|  |__|  |_| \__\ |__|  \__/        
                                                                              
                      - O R C A' S   B I G   F R I E N D -                    
                                      &                                       
                       - I N T E G R A L  F E E D E R -                       
                                                                              
 v1 FN, 2020, v2 2021                                                         
------------------------------------------------------------------------------


Reading SHARK input file TZVP_BLYP_C3_wt_dlpno_pos.SHARKINP.tmp ... ok
----------------------
SHARK INTEGRAL PACKAGE
----------------------

Number of atoms                             ...     16
Number of basis functions                   ...    246
Number of shells                            ...    106
Maximum angular momentum                    ...      3
Integral batch strategy                     ... SHARK/LIBINT Hybrid
RI-J (if used) integral strategy            ... SPLIT-RIJ (Revised 2003 algorithm where possible)
Printlevel                                  ...      1
Contraction scheme used                     ... SEGMENTED contraction
Coulomb Range Separation                    ... NOT USED
Exchange Range Separation                   ... NOT USED
Finite Nucleus Model                        ... NOT USED
Auxiliary Coulomb fitting basis             ... AVAILABLE
   # of basis functions in Aux-J            ...    404
   # of shells in Aux-J                     ...    140
   Maximum angular momentum in Aux-J        ...      4
Auxiliary J/K fitting basis                 ... NOT available
Auxiliary Correlation fitting basis         ... NOT available
Auxiliary 'external' fitting basis          ... NOT available
Integral threshold                          ...     2.500000e-11
Primitive cut-off                           ...     2.500000e-12
Primitive pair pre-selection threshold      ...     2.500000e-12

Calculating pre-screening integrals         ... done (  0.1 sec) Dimension = 106
Organizing shell pair data                  ... done (  0.0 sec)
Shell pair information
Total number of shell pairs                 ...      5671
Shell pairs after pre-screening             ...      5296
Total number of primitive shell pairs       ...     16452
Primitive shell pairs kept                  ...     11946
          la=0 lb=0:   1669 shell pairs
          la=1 lb=0:   1569 shell pairs
          la=1 lb=1:    386 shell pairs
          la=2 lb=0:    681 shell pairs
          la=2 lb=1:    323 shell pairs
          la=2 lb=2:     77 shell pairs
          la=3 lb=0:    339 shell pairs
          la=3 lb=1:    161 shell pairs
          la=3 lb=2:     70 shell pairs
          la=3 lb=3:     21 shell pairs

Calculating one electron integrals          ... done (  0.0 sec)
Calculating RI/J V-Matrix + Cholesky decomp.... done (  0.0 sec)
Calculating Nuclear repulsion               ... done (  0.0 sec) ENN=    247.344338700326 Eh

SHARK setup successfully completed in   0.2 seconds

Maximum memory used throughout the entire GTOINT-calculation: 13.9 MB


           ************************************************************
           *        Program running with 4 parallel MPI-processes     *
           *              working on a common directory               *
           ************************************************************
-------------------------------------------------------------------------------
                                 ORCA SCF
-------------------------------------------------------------------------------

------------
SCF SETTINGS
------------
Hamiltonian:
 Density Functional     Method          .... DFT(GTOs)
 Exchange Functional    Exchange        .... B88
   X-Alpha parameter    XAlpha          ....  0.666667
   Becke's b parameter  XBeta           ....  0.004200
 Correlation Functional Correlation     .... LYP
 Gradients option       PostSCFGGA      .... off
   Density functional embedding theory  .... OFF
   NL short-range parameter             ....  4.000000
 RI-approximation to the Coulomb term is turned on
   Number of AuxJ basis functions       .... 404


General Settings:
 Integral files         IntName         .... TZVP_BLYP_C3_wt_dlpno_pos
 Hartree-Fock type      HFTyp           .... RHF
 Total Charge           Charge          ....    0
 Multiplicity           Mult            ....    1
 Number of Electrons    NEL             ....   48
 Basis Dimension        Dim             ....  246
 Nuclear Repulsion      ENuc            ....    247.3443387003 Eh

Convergence Acceleration:
 DIIS                   CNVDIIS         .... on
   Start iteration      DIISMaxIt       ....    12
   Startup error        DIISStart       ....  0.200000
   # of expansion vecs  DIISMaxEq       ....     5
   Bias factor          DIISBfac        ....   1.050
   Max. coefficient     DIISMaxC        ....  10.000
 Trust-Rad. Augm. Hess. CNVTRAH         .... auto
   Auto Start mean grad. ratio tolernc. ....  1.125000
   Auto Start start iteration           ....    20
   Auto Start num. interpolation iter.  ....    10
   Max. Number of Micro iterations      ....    16
   Max. Number of Macro iterations      .... Maxiter - #DIIS iter
   Number of Davidson start vectors     ....     2
   Converg. threshold I  (grad. norm)   ....   1.000e-05
   Converg. threshold II (energy diff.) ....   1.000e-08
   Grad. Scal. Fac. for Micro threshold ....   0.100
   Minimum threshold for Micro iter.    ....   0.010
   NR start threshold (gradient norm)   ....   0.001
   Initial trust radius                 ....   0.400
   Minimum AH scaling param. (alpha)    ....   1.000
   Maximum AH scaling param. (alpha)    .... 1000.000
   Orbital update algorithm             .... Taylor
   White noise on init. David. guess    .... on
   Maximum white noise                  ....   0.010
   Quad. conv. algorithm                .... NR
 SOSCF                  CNVSOSCF        .... on
   Start iteration      SOSCFMaxIt      ....   150
   Startup grad/error   SOSCFStart      ....  0.003300
 Level Shifting         CNVShift        .... on
   Level shift para.    LevelShift      ....    0.2500
   Turn off err/grad.   ShiftErr        ....    0.0010
 Zerner damping         CNVZerner       .... off
 Static damping         CNVDamp         .... on
   Fraction old density DampFac         ....    0.7000
   Max. Damping (<1)    DampMax         ....    0.9800
   Min. Damping (>=0)   DampMin         ....    0.0000
   Turn off err/grad.   DampErr         ....    0.1000
 Fernandez-Rico         CNVRico         .... off

SCF Procedure:
 Maximum # iterations   MaxIter         ....   150
 SCF integral mode      SCFMode         .... Direct
   Integral package                     .... SHARK and LIBINT hybrid scheme
 Reset frequency        DirectResetFreq ....    20
 Integral Threshold     Thresh          ....  2.500e-11 Eh
 Primitive CutOff       TCut            ....  2.500e-12 Eh

Convergence Tolerance:
 Convergence Check Mode ConvCheckMode   .... Total+1el-Energy
 Convergence forced     ConvForced      .... 0
 Energy Change          TolE            ....  1.000e-08 Eh
 1-El. energy change                    ....  1.000e-05 Eh
 Orbital Gradient       TolG            ....  1.000e-05
 Orbital Rotation angle TolX            ....  1.000e-05
 DIIS Error             TolErr          ....  5.000e-07


Diagonalization of the overlap matrix:
Smallest eigenvalue                        ... 1.330e-04
Time for diagonalization                   ...    0.016 sec
Threshold for overlap eigenvalues          ... 1.000e-08
Number of eigenvalues below threshold      ... 0
Time for construction of square roots      ...    0.010 sec
Total time needed                          ...    0.027 sec

Time for model grid setup =    0.094 sec

------------------------------
INITIAL GUESS: MODEL POTENTIAL
------------------------------
Loading Hartree-Fock densities                     ... done
Calculating cut-offs                               ... done
Initializing the effective Hamiltonian             ... done
Setting up the integral package (SHARK)            ... done
Starting the Coulomb interaction                   ... done (   0.1 sec)
Reading the grid                                   ... done
Mapping shells                                     ... done
Starting the XC term evaluation                    ... done (   0.1 sec)
  promolecular density results
     # of electrons  =     47.996056342
     EX              =    -36.780231307
     EC              =     -1.575977725
     EX+EC           =    -38.356209032
Transforming the Hamiltonian                       ... done (   0.0 sec)
Diagonalizing the Hamiltonian                      ... done (   0.0 sec)
Back transforming the eigenvectors                 ... done (   0.0 sec)
Now organizing SCF variables                       ... done
                      ------------------
                      INITIAL GUESS DONE (   0.3 sec)
                      ------------------
-------------------
DFT GRID GENERATION
-------------------

General Integration Accuracy     IntAcc      ... 4.388
Radial Grid Type                 RadialGrid  ... OptM3 with GC (2021)
Angular Grid (max. ang.)         AngularGrid ... 4 (Lebedev-302)
Angular grid pruning method      GridPruning ... 4 (adaptive)
Weight generation scheme         WeightScheme... Becke
Basis function cutoff            BFCut       ... 1.0000e-11
Integration weight cutoff        WCut        ... 1.0000e-14
Angular grids for H and He will be reduced by one unit
Partially contracted basis set               ... off
Rotationally invariant grid construction     ... off

Total number of grid points                  ...    68446
Total number of batches                      ...     1079
Average number of points per batch           ...       63
Average number of grid points per atom       ...     4278
Time for grid setup =    0.432 sec

--------------
SCF ITERATIONS
--------------
ITER       Energy         Delta-E        Max-DP      RMS-DP      [F,P]     Damp
               ***  Starting incremental Fock matrix formation  ***
  0   -267.5472730381   0.000000000000 0.07785302  0.00163015  0.2591093 0.7000
  1   -267.7166870433  -0.169414005225 0.05391786  0.00124304  0.1179074 0.7000
                               ***Turning on DIIS***
  2   -267.7720981470  -0.055411103716 0.05971426  0.00186599  0.0280300 0.0000
  3   -267.8513441249  -0.079245977832 0.03934694  0.00087362  0.0827132 0.0000
  4   -267.8795148613  -0.028170736401 0.01363310  0.00037132  0.0215846 0.0000
  5   -267.8816465835  -0.002131722271 0.00611905  0.00017667  0.0070159 0.0000
                      *** Initiating the SOSCF procedure ***
                           *** Shutting down DIIS ***
                      *** Re-Reading the Fockian *** 
                      *** Removing any level shift *** 
ITER      Energy       Delta-E        Grad      Rot      Max-DP    RMS-DP
  6   -267.88183370  -0.0001871185  0.000643  0.000643  0.003121  0.000078
               *** Restarting incremental Fock matrix formation ***
  7   -267.88185582  -0.0000221138  0.000335  0.002120  0.003791  0.000077
  8   -267.88185851  -0.0000026918  0.000109  0.000420  0.000643  0.000017
  9   -267.88185824   0.0000002696  0.000145  0.000307  0.000757  0.000016
 10   -267.88185893  -0.0000006887  0.000024  0.000068  0.000098  0.000003
 11   -267.88185890   0.0000000251  0.000031  0.000068  0.000109  0.000003
 12   -267.88185896  -0.0000000584  0.000008  0.000025  0.000042  0.000001
 13   -267.88185896   0.0000000022  0.000011  0.000013  0.000026  0.000001
                  ***Gradient check signals convergence***
              ***Rediagonalizing the Fockian in SOSCF/NRSCF***

               *****************************************************
               *                     SUCCESS                       *
               *           SCF CONVERGED AFTER  14 CYCLES          *
               *****************************************************


----------------
TOTAL SCF ENERGY
----------------

Total Energy       :         -267.88185896 Eh           -7289.43597 eV

Components:
Nuclear Repulsion  :          247.34433870 Eh            6730.58163 eV
Electronic Energy  :         -515.22619766 Eh          -14020.01760 eV
One Electron Energy:         -850.78090054 Eh          -23150.92527 eV
Two Electron Energy:          335.55470288 Eh            9130.90767 eV

Virial components:
Potential Energy   :         -535.48448325 Eh          -14571.27358 eV
Kinetic Energy     :          267.60262429 Eh            7281.83761 eV
Virial Ratio       :            2.00104347


DFT components:
N(Alpha)           :       23.999931526926 electrons
N(Beta)            :       23.999931526926 electrons
N(Total)           :       47.999863053852 electrons
E(X)               :      -37.787457954906 Eh       
E(C)               :       -1.591610866986 Eh       
E(XC)              :      -39.379068821892 Eh       
DFET-embed. en.    :        0.000000000000 Eh       

---------------
SCF CONVERGENCE
---------------

  Last Energy change         ...   -5.6120e-09  Tolerance :   1.0000e-08
  Last MAX-Density change    ...    6.4148e-06  Tolerance :   1.0000e-07
  Last RMS-Density change    ...    2.2283e-07  Tolerance :   5.0000e-09
  Last Orbital Gradient      ...    1.7453e-06  Tolerance :   1.0000e-05
  Last Orbital Rotation      ...    3.4141e-06  Tolerance :   1.0000e-05

             **** THE GBW FILE WAS UPDATED (TZVP_BLYP_C3_wt_dlpno_pos.gbw) ****
             **** DENSITY TZVP_BLYP_C3_wt_dlpno_pos.scfp WAS UPDATED ****
             **** ENERGY FILE WAS UPDATED (TZVP_BLYP_C3_wt_dlpno_pos.en.tmp) ****
             **** THE GBW FILE WAS UPDATED (TZVP_BLYP_C3_wt_dlpno_pos.gbw) ****
             **** DENSITY TZVP_BLYP_C3_wt_dlpno_pos.scfp WAS UPDATED ****
----------------
ORBITAL ENERGIES
----------------

  NO   OCC          E(Eh)            E(eV) 
   0   2.0000     -14.003018      -381.0415 
   1   2.0000     -13.998561      -380.9202 
   2   2.0000      -9.940809      -270.5032 
   3   2.0000      -9.933930      -270.3160 
   4   2.0000      -9.888424      -269.0777 
   5   2.0000      -9.814391      -267.0632 
   6   2.0000      -0.869236       -23.6531 
   7   2.0000      -0.792477       -21.5644 
   8   2.0000      -0.678489       -18.4626 
   9   2.0000      -0.633682       -17.2434 
  10   2.0000      -0.570362       -15.5203 
  11   2.0000      -0.502639       -13.6775 
  12   2.0000      -0.484729       -13.1901 
  13   2.0000      -0.457409       -12.4467 
  14   2.0000      -0.405826       -11.0431 
  15   2.0000      -0.395102       -10.7513 
  16   2.0000      -0.366236        -9.9658 
  17   2.0000      -0.350855        -9.5472 
  18   2.0000      -0.329950        -8.9784 
  19   2.0000      -0.327420        -8.9095 
  20   2.0000      -0.307076        -8.3560 
  21   2.0000      -0.299342        -8.1455 
  22   2.0000      -0.199668        -5.4332 
  23   2.0000      -0.131412        -3.5759 
  24   0.0000       0.002613         0.0711 
  25   0.0000       0.026149         0.7116 
  26   0.0000       0.043780         1.1913 
  27   0.0000       0.056585         1.5397 
  28   0.0000       0.068120         1.8537 
  29   0.0000       0.072578         1.9749 
  30   0.0000       0.086159         2.3445 
  31   0.0000       0.097743         2.6597 
  32   0.0000       0.105969         2.8836 
  33   0.0000       0.120576         3.2810 
  34   0.0000       0.124976         3.4008 
  35   0.0000       0.141637         3.8541 
  36   0.0000       0.157766         4.2930 
  37   0.0000       0.173996         4.7347 
  38   0.0000       0.187678         5.1070 
  39   0.0000       0.206852         5.6287 
  40   0.0000       0.215636         5.8678 
  41   0.0000       0.225309         6.1310 
  42   0.0000       0.250931         6.8282 
  43   0.0000       0.259294         7.0557 
  44   0.0000       0.271350         7.3838 
  45   0.0000       0.277153         7.5417 
  46   0.0000       0.299035         8.1372 
  47   0.0000       0.307388         8.3645 
  48   0.0000       0.339450         9.2369 
  49   0.0000       0.356404         9.6982 
  50   0.0000       0.365494         9.9456 
  51   0.0000       0.379108        10.3160 
  52   0.0000       0.391095        10.6422 
  53   0.0000       0.393683        10.7126 
  54   0.0000       0.405880        11.0446 
  55   0.0000       0.411345        11.1933 
  56   0.0000       0.422434        11.4950 
  57   0.0000       0.432870        11.7790 
  58   0.0000       0.436540        11.8789 
  59   0.0000       0.449327        12.2268 
  60   0.0000       0.459888        12.5142 
  61   0.0000       0.466491        12.6939 
  62   0.0000       0.488061        13.2808 
  63   0.0000       0.491726        13.3806 
  64   0.0000       0.512577        13.9479 
  65   0.0000       0.532282        14.4841 
  66   0.0000       0.536461        14.5979 
  67   0.0000       0.576601        15.6901 
  68   0.0000       0.592570        16.1247 
  69   0.0000       0.602863        16.4047 
  70   0.0000       0.626379        17.0447 
  71   0.0000       0.643028        17.4977 
  72   0.0000       0.681122        18.5343 
  73   0.0000       0.708719        19.2852 
  74   0.0000       0.722781        19.6679 
  75   0.0000       0.741640        20.1811 
  76   0.0000       0.773277        21.0419 
  77   0.0000       0.802997        21.8507 
  78   0.0000       0.813742        22.1431 
  79   0.0000       0.825927        22.4746 
  80   0.0000       0.864450        23.5229 
  81   0.0000       0.921634        25.0789 
  82   0.0000       0.929482        25.2925 
  83   0.0000       0.969272        26.3752 
  84   0.0000       0.986579        26.8462 
  85   0.0000       1.007764        27.4226 
  86   0.0000       1.033342        28.1187 
  87   0.0000       1.062468        28.9112 
  88   0.0000       1.076928        29.3047 
  89   0.0000       1.081347        29.4249 
  90   0.0000       1.112337        30.2682 
  91   0.0000       1.142054        31.0769 
  92   0.0000       1.165975        31.7278 
  93   0.0000       1.216988        33.1159 
  94   0.0000       1.235307        33.6144 
  95   0.0000       1.263061        34.3696 
  96   0.0000       1.295491        35.2521 
  97   0.0000       1.370705        37.2988 
  98   0.0000       1.402421        38.1618 
  99   0.0000       1.411215        38.4011 
 100   0.0000       1.433967        39.0202 
 101   0.0000       1.446207        39.3533 
 102   0.0000       1.460218        39.7345 
 103   0.0000       1.486181        40.4410 
 104   0.0000       1.495824        40.7035 
 105   0.0000       1.505241        40.9597 
 106   0.0000       1.511650        41.1341 
 107   0.0000       1.520324        41.3701 
 108   0.0000       1.529161        41.6106 
 109   0.0000       1.543118        41.9904 
 110   0.0000       1.580428        43.0056 
 111   0.0000       1.611516        43.8516 
 112   0.0000       1.618470        44.0408 
 113   0.0000       1.623822        44.1864 
 114   0.0000       1.638475        44.5852 
 115   0.0000       1.660224        45.1770 
 116   0.0000       1.690912        46.0120 
 117   0.0000       1.728022        47.0219 
 118   0.0000       1.734009        47.1848 
 119   0.0000       1.748760        47.5862 
 120   0.0000       1.768166        48.1143 
 121   0.0000       1.796438        48.8836 
 122   0.0000       1.838576        50.0302 
 123   0.0000       1.846407        50.2433 
 124   0.0000       1.871174        50.9172 
 125   0.0000       1.885115        51.2966 
 126   0.0000       1.928548        52.4785 
 127   0.0000       1.947100        52.9833 
 128   0.0000       2.007112        54.6163 
 129   0.0000       2.028172        55.1894 
 130   0.0000       2.047819        55.7240 
 131   0.0000       2.084560        56.7238 
 132   0.0000       2.116003        57.5794 
 133   0.0000       2.136862        58.1470 
 134   0.0000       2.190518        59.6070 
 135   0.0000       2.249679        61.2169 
 136   0.0000       2.263510        61.5932 
 137   0.0000       2.267518        61.7023 
 138   0.0000       2.286797        62.2269 
 139   0.0000       2.315091        62.9968 
 140   0.0000       2.333402        63.4951 
 141   0.0000       2.355153        64.0870 
 142   0.0000       2.375733        64.6470 
 143   0.0000       2.392759        65.1103 
 144   0.0000       2.421173        65.8835 
 145   0.0000       2.440032        66.3966 
 146   0.0000       2.488900        67.7264 
 147   0.0000       2.524074        68.6835 
 148   0.0000       2.540370        69.1270 
 149   0.0000       2.547550        69.3223 
 150   0.0000       2.569830        69.9286 
 151   0.0000       2.575355        70.0790 
 152   0.0000       2.594564        70.6017 
 153   0.0000       2.608462        70.9798 
 154   0.0000       2.634962        71.7010 
 155   0.0000       2.641684        71.8839 
 156   0.0000       2.654219        72.2250 
 157   0.0000       2.671506        72.6954 
 158   0.0000       2.701581        73.5137 
 159   0.0000       2.748962        74.8031 
 160   0.0000       2.812510        76.5323 
 161   0.0000       2.817229        76.6607 
 162   0.0000       2.825151        76.8763 
 163   0.0000       2.909703        79.1771 
 164   0.0000       2.918595        79.4190 
 165   0.0000       2.929043        79.7033 
 166   0.0000       2.950968        80.2999 
 167   0.0000       2.967271        80.7435 
 168   0.0000       2.992961        81.4426 
 169   0.0000       3.021684        82.2242 
 170   0.0000       3.045071        82.8606 
 171   0.0000       3.066396        83.4409 
 172   0.0000       3.090256        84.0901 
 173   0.0000       3.104702        84.4832 
 174   0.0000       3.139988        85.4434 
 175   0.0000       3.173953        86.3676 
 176   0.0000       3.187744        86.7429 
 177   0.0000       3.197868        87.0184 
 178   0.0000       3.225545        87.7716 
 179   0.0000       3.232795        87.9688 
 180   0.0000       3.256881        88.6242 
 181   0.0000       3.264352        88.8275 
 182   0.0000       3.276477        89.1575 
 183   0.0000       3.313228        90.1575 
 184   0.0000       3.337711        90.8237 
 185   0.0000       3.370234        91.7087 
 186   0.0000       3.384251        92.0902 
 187   0.0000       3.427895        93.2778 
 188   0.0000       3.440396        93.6179 
 189   0.0000       3.485266        94.8389 
 190   0.0000       3.492041        95.0233 
 191   0.0000       3.569701        97.1365 
 192   0.0000       3.657926        99.5372 
 193   0.0000       3.677121       100.0596 
 194   0.0000       3.684555       100.2618 
 195   0.0000       3.708023       100.9004 
 196   0.0000       3.744400       101.8903 
 197   0.0000       3.761388       102.3526 
 198   0.0000       3.808329       103.6299 
 199   0.0000       3.816154       103.8428 
 200   0.0000       3.860754       105.0564 
 201   0.0000       3.918813       106.6363 
 202   0.0000       3.971266       108.0636 
 203   0.0000       4.003370       108.9372 
 204   0.0000       4.117856       112.0526 
 205   0.0000       4.132495       112.4509 
 206   0.0000       4.188777       113.9824 
 207   0.0000       4.241461       115.4160 
 208   0.0000       4.252646       115.7204 
 209   0.0000       4.288347       116.6919 
 210   0.0000       4.301402       117.0471 
 211   0.0000       4.347517       118.3020 
 212   0.0000       4.392761       119.5331 
 213   0.0000       4.451735       121.1379 
 214   0.0000       4.475153       121.7751 
 215   0.0000       4.505995       122.6143 
 216   0.0000       4.525546       123.1464 
 217   0.0000       4.592911       124.9795 
 218   0.0000       4.659898       126.8023 
 219   0.0000       4.674629       127.2031 
 220   0.0000       4.685514       127.4993 
 221   0.0000       4.784235       130.1857 
 222   0.0000       4.888889       133.0334 
 223   0.0000       4.896137       133.2307 
 224   0.0000       4.993473       135.8793 
 225   0.0000       5.011008       136.3565 
 226   0.0000       5.022731       136.6754 
 227   0.0000       5.089597       138.4950 
 228   0.0000       5.120178       139.3271 
 229   0.0000       5.152520       140.2072 
 230   0.0000       5.184583       141.0797 
 231   0.0000       5.212573       141.8413 
 232   0.0000       5.252260       142.9213 
 233   0.0000       5.319874       144.7611 
 234   0.0000       5.395507       146.8192 
 235   0.0000       5.528887       150.4487 
 236   0.0000       5.661970       154.0700 
 237   0.0000       5.821520       158.4116 
 238   0.0000       5.931499       161.4043 
 239   0.0000       6.090911       165.7421 
 240   0.0000      22.097136       601.2936 
 241   0.0000      22.197460       604.0236 
 242   0.0000      22.408225       609.7588 
 243   0.0000      23.121653       629.1722 
 244   0.0000      31.658177       861.4628 
 245   0.0000      32.253448       877.6609 

                    ********************************
                    * MULLIKEN POPULATION ANALYSIS *
                    ********************************

-----------------------
MULLIKEN ATOMIC CHARGES
-----------------------
   0 C :   -0.060687
   1 N :   -0.294219
   2 C :   -0.272811
   3 C :    0.442133
   4 N :   -0.462815
   5 C :   -0.533538
   6 H :    0.080436
   7 H :    0.058664
   8 H :    0.161074
   9 H :    0.188701
  10 H :    0.216390
  11 H :    0.109729
  12 H :    0.084900
  13 H :    0.113157
  14 H :    0.089120
  15 H :    0.079766
Sum of atomic charges:    0.0000000

--------------------------------
MULLIKEN REDUCED ORBITAL CHARGES
--------------------------------
  0 C s       :     3.238511  s :     3.238511
      pz      :     0.981735  p :     2.712511
      px      :     0.831898
      py      :     0.898878
      dz2     :     0.020812  d :     0.101565
      dxz     :     0.024867
      dyz     :     0.011230
      dx2y2   :     0.025494
      dxy     :     0.019162
      f0      :     0.001250  f :     0.008099
      f+1     :     0.001528
      f-1     :     0.000563
      f+2     :     0.000316
      f-2     :     0.001431
      f+3     :     0.001916
      f-3     :     0.001094
  1 N s       :     3.440622  s :     3.440622
      pz      :     1.283058  p :     3.792189
      px      :     1.237284
      py      :     1.271847
      dz2     :     0.010250  d :     0.057400
      dxz     :     0.012931
      dyz     :     0.007798
      dx2y2   :     0.014441
      dxy     :     0.011980
      f0      :     0.000419  f :     0.004008
      f+1     :     0.000357
      f-1     :     0.000701
      f+2     :     0.000592
      f-2     :     0.000728
      f+3     :     0.000664
      f-3     :     0.000547
  2 C s       :     3.266698  s :     3.266698
      pz      :     0.945890  p :     2.966069
      px      :     0.982232
      py      :     1.037947
      dz2     :     0.014610  d :     0.036574
      dxz     :     0.004819
      dyz     :     0.004946
      dx2y2   :     0.003247
      dxy     :     0.008951
      f0      :     0.000603  f :     0.003470
      f+1     :     0.001232
      f-1     :     0.000170
      f+2     :     0.000218
      f-2     :     0.000433
      f+3     :     0.000427
      f-3     :     0.000387
  3 C s       :     3.010628  s :     3.010628
      pz      :     0.841604  p :     2.353120
      px      :     0.749878
      py      :     0.761637
      dz2     :     0.040669  d :     0.176642
      dxz     :     0.037900
      dyz     :     0.023387
      dx2y2   :     0.038646
      dxy     :     0.036039
      f0      :     0.001904  f :     0.017478
      f+1     :     0.002045
      f-1     :     0.002603
      f+2     :     0.002291
      f-2     :     0.002980
      f+3     :     0.003362
      f-3     :     0.002294
  4 N s       :     3.444905  s :     3.444905
      pz      :     1.648824  p :     3.985438
      px      :     1.112143
      py      :     1.224471
      dz2     :     0.003020  d :     0.029102
      dxz     :     0.006959
      dyz     :     0.004261
      dx2y2   :     0.008409
      dxy     :     0.006453
      f0      :     0.000623  f :     0.003369
      f+1     :     0.000334
      f-1     :     0.000304
      f+2     :     0.000516
      f-2     :     0.000527
      f+3     :     0.000507
      f-3     :     0.000559
  5 C s       :     3.284470  s :     3.284470
      pz      :     1.089307  p :     3.214341
      px      :     0.940733
      py      :     1.184301
      dz2     :     0.008663  d :     0.029576
      dxz     :     0.003668
      dyz     :     0.006803
      dx2y2   :     0.006497
      dxy     :     0.003945
      f0      :     0.000450  f :     0.005151
      f+1     :     0.000972
      f-1     :     0.000690
      f+2     :     0.001049
      f-2     :     0.000654
      f+3     :     0.000723
      f-3     :     0.000614
  6 H s       :     0.893620  s :     0.893620
      pz      :     0.006834  p :     0.025945
      px      :     0.011456
      py      :     0.007655
  7 H s       :     0.915458  s :     0.915458
      pz      :     0.010385  p :     0.025878
      px      :     0.004557
      py      :     0.010936
  8 H s       :     0.799901  s :     0.799901
      pz      :     0.015142  p :     0.039025
      px      :     0.015190
      py      :     0.008693
  9 H s       :     0.773017  s :     0.773017
      pz      :     0.013842  p :     0.038282
      px      :     0.015484
      py      :     0.008956
 10 H s       :     0.745246  s :     0.745246
      pz      :     0.014836  p :     0.038365
      px      :     0.005614
      py      :     0.017915
 11 H s       :     0.868086  s :     0.868086
      pz      :     0.011352  p :     0.022185
      px      :     0.006328
      py      :     0.004505
 12 H s       :     0.894014  s :     0.894014
      pz      :     0.004575  p :     0.021086
      px      :     0.004923
      py      :     0.011588
 13 H s       :     0.864993  s :     0.864993
      pz      :     0.004844  p :     0.021850
      px      :     0.005774
      py      :     0.011232
 14 H s       :     0.888910  s :     0.888910
      pz      :     0.004918  p :     0.021970
      px      :     0.009406
      py      :     0.007645
 15 H s       :     0.898415  s :     0.898415
      pz      :     0.010458  p :     0.021819
      px      :     0.006492
      py      :     0.004869


                     *******************************
                     * LOEWDIN POPULATION ANALYSIS *
                     *******************************

----------------------
LOEWDIN ATOMIC CHARGES
----------------------
   0 C :   -0.288054
   1 N :    0.125274
   2 C :   -0.300545
   3 C :   -0.465712
   4 N :   -0.016522
   5 C :   -0.333231
   6 H :    0.095886
   7 H :    0.095729
   8 H :    0.170160
   9 H :    0.150936
  10 H :    0.168112
  11 H :    0.134988
  12 H :    0.123552
  13 H :    0.117128
  14 H :    0.113611
  15 H :    0.108688

-------------------------------
LOEWDIN REDUCED ORBITAL CHARGES
-------------------------------
  0 C s       :     2.789440  s :     2.789440
      pz      :     1.055538  p :     2.986848
      px      :     0.956905
      py      :     0.974405
      dz2     :     0.096952  d :     0.458250
      dxz     :     0.119199
      dyz     :     0.039083
      dx2y2   :     0.108246
      dxy     :     0.094770
      f0      :     0.007163  f :     0.053517
      f+1     :     0.006929
      f-1     :     0.006518
      f+2     :     0.004451
      f-2     :     0.009000
      f+3     :     0.012123
      f-3     :     0.007332
  1 N s       :     2.914594  s :     2.914594
      pz      :     1.261366  p :     3.717499
      px      :     1.183657
      py      :     1.272477
      dz2     :     0.036468  d :     0.226861
      dxz     :     0.052931
      dyz     :     0.035078
      dx2y2   :     0.052432
      dxy     :     0.049952
      f0      :     0.001822  f :     0.015772
      f+1     :     0.001126
      f-1     :     0.002734
      f+2     :     0.002394
      f-2     :     0.002785
      f+3     :     0.003035
      f-3     :     0.001875
  2 C s       :     2.829717  s :     2.829717
      pz      :     1.056073  p :     3.190992
      px      :     1.058701
      py      :     1.076218
      dz2     :     0.082754  d :     0.253541
      dxz     :     0.059174
      dyz     :     0.023109
      dx2y2   :     0.026632
      dxy     :     0.061872
      f0      :     0.003421  f :     0.026294
      f+1     :     0.005694
      f-1     :     0.004423
      f+2     :     0.004394
      f-2     :     0.003282
      f+3     :     0.002608
      f-3     :     0.002471
  3 C s       :     2.695413  s :     2.695413
      pz      :     0.928001  p :     2.814396
      px      :     0.980656
      py      :     0.905738
      dz2     :     0.166144  d :     0.841079
      dxz     :     0.169297
      dyz     :     0.126116
      dx2y2   :     0.185949
      dxy     :     0.193573
      f0      :     0.014342  f :     0.114824
      f+1     :     0.012941
      f-1     :     0.014737
      f+2     :     0.014115
      f-2     :     0.017963
      f+3     :     0.024981
      f-3     :     0.015744
  4 N s       :     2.971046  s :     2.971046
      pz      :     1.489743  p :     3.887583
      px      :     1.164431
      py      :     1.233408
      dz2     :     0.008178  d :     0.146834
      dxz     :     0.030091
      dyz     :     0.015678
      dx2y2   :     0.051636
      dxy     :     0.041251
      f0      :     0.001911  f :     0.011060
      f+1     :     0.001201
      f-1     :     0.000387
      f+2     :     0.001507
      f-2     :     0.001842
      f+3     :     0.002525
      f-3     :     0.001688
  5 C s       :     2.793762  s :     2.793762
      pz      :     1.124620  p :     3.280472
      px      :     1.045403
      py      :     1.110449
      dz2     :     0.039829  d :     0.227109
      dxz     :     0.042256
      dyz     :     0.041491
      dx2y2   :     0.068296
      dxy     :     0.035236
      f0      :     0.003335  f :     0.031889
      f+1     :     0.006398
      f-1     :     0.002425
      f+2     :     0.005530
      f-2     :     0.005975
      f+3     :     0.004767
      f-3     :     0.003460
  6 H s       :     0.826062  s :     0.826062
      pz      :     0.021995  p :     0.078052
      px      :     0.032711
      py      :     0.023346
  7 H s       :     0.826910  s :     0.826910
      pz      :     0.028739  p :     0.077361
      px      :     0.016711
      py      :     0.031910
  8 H s       :     0.725174  s :     0.725174
      pz      :     0.042083  p :     0.104667
      px      :     0.039264
      py      :     0.023320
  9 H s       :     0.740486  s :     0.740486
      pz      :     0.038242  p :     0.108578
      px      :     0.041672
      py      :     0.028664
 10 H s       :     0.724377  s :     0.724377
      pz      :     0.041290  p :     0.107511
      px      :     0.015793
      py      :     0.050428
 11 H s       :     0.804062  s :     0.804062
      pz      :     0.030704  p :     0.060950
      px      :     0.017691
      py      :     0.012555
 12 H s       :     0.818371  s :     0.818371
      pz      :     0.013714  p :     0.058076
      px      :     0.013983
      py      :     0.030379
 13 H s       :     0.818652  s :     0.818652
      pz      :     0.014463  p :     0.064220
      px      :     0.016681
      py      :     0.033076
 14 H s       :     0.822569  s :     0.822569
      pz      :     0.014323  p :     0.063819
      px      :     0.026233
      py      :     0.023264
 15 H s       :     0.827628  s :     0.827628
      pz      :     0.028390  p :     0.063684
      px      :     0.020412
      py      :     0.014882


                      *****************************
                      * MAYER POPULATION ANALYSIS *
                      *****************************

  NA   - Mulliken gross atomic population
  ZA   - Total nuclear charge
  QA   - Mulliken gross atomic charge
  VA   - Mayer's total valence
  BVA  - Mayer's bonded valence
  FA   - Mayer's free valence

  ATOM       NA         ZA         QA         VA         BVA        FA
  0 C      6.0607     6.0000    -0.0607     3.8192     3.8192    -0.0000
  1 N      7.2942     7.0000    -0.2942     3.1493     3.1493     0.0000
  2 C      6.2728     6.0000    -0.2728     3.8216     3.8216    -0.0000
  3 C      5.5579     6.0000     0.4421     3.8154     3.8154     0.0000
  4 N      7.4628     7.0000    -0.4628     3.0816     3.0816     0.0000
  5 C      6.5335     6.0000    -0.5335     3.8140     3.8140    -0.0000
  6 H      0.9196     1.0000     0.0804     0.9987     0.9987    -0.0000
  7 H      0.9413     1.0000     0.0587     1.0043     1.0043    -0.0000
  8 H      0.8389     1.0000     0.1611     0.9840     0.9840    -0.0000
  9 H      0.8113     1.0000     0.1887     0.9772     0.9772     0.0000
 10 H      0.7836     1.0000     0.2164     0.9657     0.9657     0.0000
 11 H      0.8903     1.0000     0.1097     0.9921     0.9921     0.0000
 12 H      0.9151     1.0000     0.0849     0.9651     0.9651    -0.0000
 13 H      0.8868     1.0000     0.1132     0.9774     0.9774    -0.0000
 14 H      0.9109     1.0000     0.0891     0.9771     0.9771    -0.0000
 15 H      0.9202     1.0000     0.0798     0.9816     0.9816    -0.0000

  Mayer bond orders larger than 0.100000
B(  0-C ,  1-N ) :   0.9165 B(  0-C ,  2-C ) :   0.9462 B(  0-C , 11-H ) :   0.9615 
B(  0-C , 12-H ) :   0.9722 B(  1-N ,  3-C ) :   1.1620 B(  1-N ,  8-H ) :   0.9328 
B(  2-C , 13-H ) :   0.9775 B(  2-C , 14-H ) :   0.9669 B(  2-C , 15-H ) :   0.9730 
B(  3-C ,  4-N ) :   1.0870 B(  3-C ,  5-C ) :   1.5839 B(  4-N ,  9-H ) :   0.9293 
B(  4-N , 10-H ) :   0.9294 B(  5-C ,  6-H ) :   0.9974 B(  5-C ,  7-H ) :   1.0051 


-------
TIMINGS
-------

Total SCF time: 0 days 0 hours 0 min 7 sec 

Total time                  ....       7.836 sec
Sum of individual times     ....       7.603 sec  ( 97.0%)

Fock matrix formation       ....       6.583 sec  ( 84.0%)
  Split-RI-J                ....       1.890 sec  ( 28.7% of F)
  XC integration            ....       4.635 sec  ( 70.4% of F)
    Basis function eval.    ....       1.598 sec  ( 34.5% of XC)
    Density eval.           ....       1.223 sec  ( 26.4% of XC)
    XC-Functional eval.     ....       0.177 sec  (  3.8% of XC)
    XC-Potential eval.      ....       1.472 sec  ( 31.7% of XC)
Diagonalization             ....       0.113 sec  (  1.4%)
Density matrix formation    ....       0.007 sec  (  0.1%)
Population analysis         ....       0.013 sec  (  0.2%)
Initial guess               ....       0.205 sec  (  2.6%)
Orbital Transformation      ....       0.000 sec  (  0.0%)
Orbital Orthonormalization  ....       0.000 sec  (  0.0%)
DIIS solution               ....       0.070 sec  (  0.9%)
SOSCF solution              ....       0.087 sec  (  1.1%)
Grid generation             ....       0.525 sec  (  6.7%)

Maximum memory used throughout the entire SCF-calculation: 27.4 MB


-------------------------------------------------------------------------------
                          DFT DISPERSION CORRECTION                            
                                                                               
                              DFTD3 V3.1  Rev 1                                
                          USING Becke-Johnson damping                          
-------------------------------------------------------------------------------
The BLYP functional is recognized
Active option DFTDOPT                   ...         4   

molecular C6(AA) [au] = 1935.989701 


            DFT-D V3
 parameters
 s6 scaling factor         :     1.0000 
 a1 scaling factor         :     0.4298 
 s8 scaling factor         :     2.6996 
 a2 scaling factor         :     4.2359 
 ad hoc parameters k1-k3   :    16.0000     1.3333    -4.0000 

 Edisp/kcal,au: -15.982203562444  -0.025469259857 
 E6   /kcal   :  -6.662596300 
 E8   /kcal   :  -9.319607262 
 % E8         :  58.312404957 

-------------------------   ----------------
Dispersion correction           -0.025469260
-------------------------   ----------------


-------------------------   --------------------
FINAL SINGLE POINT ENERGY      -267.907328223301
-------------------------   --------------------


                            ***************************************
                            *     ORCA property calculations      *
                            ***************************************

                                    ---------------------
                                    Active property flags
                                    ---------------------
   (+) Dipole Moment


------------------------------------------------------------------------------
                       ORCA ELECTRIC PROPERTIES CALCULATION
------------------------------------------------------------------------------

Dipole Moment Calculation                       ... on
Quadrupole Moment Calculation                   ... off
Polarizability Calculation                      ... off
GBWName                                         ... TZVP_BLYP_C3_wt_dlpno_pos.gbw
Electron density file                           ... TZVP_BLYP_C3_wt_dlpno_pos.scfp
The origin for moment calculation is the CENTER OF MASS  = ( 7.790827,  1.385432 -6.995112)

-------------
DIPOLE MOMENT
-------------
                                X             Y             Z
Electronic contribution:      3.72925      -1.33251      -1.34096
Nuclear contribution   :     -3.02065       1.64092       1.99316
                        -----------------------------------------
Total Dipole Moment    :      0.70860       0.30841       0.65220
                        -----------------------------------------
Magnitude (a.u.)       :      1.01124
Magnitude (Debye)      :      2.57036



--------------------
Rotational spectrum 
--------------------
 
Rotational constants in cm-1:     0.259304     0.069422     0.060943 
Rotational constants in MHz :  7773.747720  2081.225169  1827.013389 

 Dipole components along the rotational axes: 
x,y,z [a.u.] :    -0.074880    -1.004781    -0.086070 
x,y,z [Debye]:    -0.190329    -2.553951    -0.218772 

 

Timings for individual modules:

Sum of individual times         ...        8.475 sec (=   0.141 min)
GTO integral calculation        ...        0.428 sec (=   0.007 min)   5.0 %
SCF iterations                  ...        8.048 sec (=   0.134 min)  95.0 %
                             ****ORCA TERMINATED NORMALLY****
TOTAL RUN TIME: 0 days 0 hours 0 minutes 8 seconds 866 msec
