
                                        *****************
                                        * O   R   C   A *
                                        *****************

                                            #,                                       
                                            ###                                      
                                            ####                                     
                                            #####                                    
                                            ######                                   
                                           ########,                                 
                                     ,,################,,,,,                         
                               ,,#################################,,                 
                          ,,##########################################,,             
                       ,#########################################, ''#####,          
                    ,#############################################,,   '####,        
                  ,##################################################,,,,####,       
                ,###########''''           ''''###############################       
              ,#####''   ,,,,##########,,,,          '''####'''          '####       
            ,##' ,,,,###########################,,,                        '##       
           ' ,,###''''                  '''############,,,                           
         ,,##''                                '''############,,,,        ,,,,,,###''
      ,#''                                            '''#######################'''  
     '                                                          ''''####''''         
             ,#######,   #######,   ,#######,      ##                                
            ,#'     '#,  ##    ##  ,#'     '#,    #''#        ######   ,####,        
            ##       ##  ##   ,#'  ##            #'  '#       #        #'  '#        
            ##       ##  #######   ##           ,######,      #####,   #    #        
            '#,     ,#'  ##    ##  '#,     ,#' ,#      #,         ##   #,  ,#        
             '#######'   ##     ##  '#######'  #'      '#     #####' # '####'        



                  #######################################################
                  #                        -***-                        #
                  #          Department of theory and spectroscopy      #
                  #    Directorship and core code : Frank Neese         #
                  #        Max Planck Institute fuer Kohlenforschung    #
                  #                Kaiser Wilhelm Platz 1               #
                  #                 D-45470 Muelheim/Ruhr               #
                  #                      Germany                        #
                  #                                                     #
                  #                  All rights reserved                #
                  #                        -***-                        #
                  #######################################################


                         Program Version 5.0.0 -  RELEASE  -
                                (SVN: $Rev: 19529$)
                ($Date: 2021-06-28 11:36:33 +0200 (Mo, 28 Jun 2021) $)


 With contributions from (in alphabetic order):
   Daniel Aravena         : Magnetic Suceptibility
   Michael Atanasov       : Ab Initio Ligand Field Theory (pilot matlab implementation)
   Alexander A. Auer      : GIAO ZORA, VPT2 properties, NMR spectrum
   Ute Becker             : Parallelization
   Giovanni Bistoni       : ED, misc. LED, open-shell LED, HFLD
   Martin Brehm           : Molecular dynamics
   Dmytro Bykov           : SCF Hessian
   Vijay G. Chilkuri      : MRCI spin determinant printing, contributions to CSF-ICE
   Dipayan Datta          : RHF DLPNO-CCSD density
   Achintya Kumar Dutta   : EOM-CC, STEOM-CC
   Dmitry Ganyushin       : Spin-Orbit,Spin-Spin,Magnetic field MRCI
   Miquel Garcia          : C-PCM Hessian, Gaussian charge scheme
   Yang Guo               : DLPNO-NEVPT2, F12-NEVPT2, CIM, IAO-localization
   Andreas Hansen         : Spin unrestricted coupled pair/coupled cluster methods
   Benjamin Helmich-Paris : MC-RPA, TRAH-SCF, COSX integrals
   Lee Huntington         : MR-EOM, pCC
   Robert Izsak           : Overlap fitted RIJCOSX, COSX-SCS-MP3, EOM
   Marcus Kettner         : VPT2
   Christian Kollmar      : KDIIS, OOCD, Brueckner-CCSD(T), CCSD density, CASPT2, CASPT2-K
   Simone Kossmann        : Meta GGA functionals, TD-DFT gradient, OOMP2, MP2 Hessian
   Martin Krupicka        : Initial AUTO-CI
   Lucas Lang             : DCDCAS
   Marvin Lechner         : AUTO-CI (C++ implementation), FIC-MRCC
   Dagmar Lenk            : GEPOL surface, SMD
   Dimitrios Liakos       : Extrapolation schemes; Compound Job, initial MDCI parallelization
   Dimitrios Manganas     : Further ROCIS development; embedding schemes
   Dimitrios Pantazis     : SARC Basis sets
   Anastasios Papadopoulos: AUTO-CI, single reference methods and gradients
   Taras Petrenko         : DFT Hessian,TD-DFT gradient, ASA, ECA, R-Raman, ABS, FL, XAS/XES, NRVS
   Peter Pinski           : DLPNO-MP2, DLPNO-MP2 Gradient
   Christoph Reimann      : Effective Core Potentials
   Marius Retegan         : Local ZFS, SOC
   Christoph Riplinger    : Optimizer, TS searches, QM/MM, DLPNO-CCSD(T), (RO)-DLPNO pert. Triples
   Tobias Risthaus        : Range-separated hybrids, TD-DFT gradient, RPA, STAB
   Michael Roemelt        : Original ROCIS implementation
   Masaaki Saitow         : Open-shell DLPNO-CCSD energy and density
   Barbara Sandhoefer     : DKH picture change effects
   Avijit Sen             : IP-ROCIS
   Kantharuban Sivalingam : CASSCF convergence, NEVPT2, FIC-MRCI
   Bernardo de Souza      : ESD, SOC TD-DFT
   Georgi Stoychev        : AutoAux, RI-MP2 NMR
   Willem Van den Heuvel  : Paramagnetic NMR
   Boris Wezisla          : Elementary symmetry handling
   Frank Wennmohs         : Technical directorship


 We gratefully acknowledge several colleagues who have allowed us to
 interface, adapt or use parts of their codes:
   Stefan Grimme, W. Hujo, H. Kruse, P. Pracht,  : VdW corrections, initial TS optimization,
                  C. Bannwarth, S. Ehlert          DFT functionals, gCP, sTDA/sTD-DF
   Ed Valeev, F. Pavosevic, A. Kumar             : LibInt (2-el integral package), F12 methods
   Garnet Chan, S. Sharma, J. Yang, R. Olivares  : DMRG
   Ulf Ekstrom                                   : XCFun DFT Library
   Mihaly Kallay                                 : mrcc  (arbitrary order and MRCC methods)
   Jiri Pittner, Ondrej Demel                    : Mk-CCSD
   Frank Weinhold                                : gennbo (NPA and NBO analysis)
   Christopher J. Cramer and Donald G. Truhlar   : smd solvation model
   Lars Goerigk                                  : TD-DFT with DH, B97 family of functionals
   V. Asgeirsson, H. Jonsson                     : NEB implementation
   FAccTs GmbH                                   : IRC, NEB, NEB-TS, DLPNO-Multilevel, CI-OPT
                                                   MM, QMMM, 2- and 3-layer-ONIOM, Crystal-QMMM,
                                                   LR-CPCM, SF, NACMEs, symmetry and pop. for TD-DFT,
                                                   nearIR, NL-DFT gradient (VV10), updates on ESD,
                                                   ML-optimized integration grids
   S Lehtola, MJT Oliveira, MAL Marques          : LibXC Library
   Liviu Ungur et al                             : ANISO software


 Your calculation uses the libint2 library for the computation of 2-el integrals
 For citations please refer to: http://libint.valeyev.net

 Your ORCA version has been built with support for libXC version: 5.1.0
 For citations please refer to: https://tddft.org/programs/libxc/

 This ORCA versions uses:
   CBLAS   interface :  Fast vector & matrix operations
   LAPACKE interface :  Fast linear algebra routines
   SCALAPACK package :  Parallel linear algebra routines
   Shared memory     :  Shared parallel matrices
   BLAS/LAPACK       :  OpenBLAS 0.3.15  USE64BITINT DYNAMIC_ARCH NO_AFFINITY Haswell SINGLE_THREADED
        Core in use  :  Haswell
   Copyright (c) 2011-2014, The OpenBLAS Project


Your calculation utilizes the atom-pairwise dispersion correction
with the Becke-Johnson damping scheme (D3BJ)
Cite in your paper:
S.Grimme, S.Ehrlich, L.Goerigk, J Comput Chem, (2011), 32, 1456–1465 
S.Grimme, J.Antony, S.Ehrlich and H.Krieg, J.Chem.Phys., 132, (2010), 154104 
   

================================================================================

----- Orbital basis set information -----
Your calculation utilizes the basis: def2-SVPD
   F. Weigend and R. Ahlrichs, Phys. Chem. Chem. Phys. 7, 3297 (2005).
   D. Rappoport and F. Furche, J. Chem. Phys. 133 134105 (2010).

----- AuxJ basis set information -----
Your calculation utilizes the auxiliary basis: def2/J
   F. Weigend, Phys. Chem. Chem. Phys. 8, 1057 (2006).

================================================================================
                                        WARNINGS
                       Please study these warnings very carefully!
================================================================================



WARNING: Found flag for RIJCOSX approximation but no HF exchange needed!
  ===> : RIJCOSX  will be disabled and Split-RI-J is turned on

INFO   : the flag for use of the SHARK integral package has been found!

================================================================================
                                       INPUT FILE
================================================================================
NAME = 14Feb_SVPD_PBE_A_wt_wb97_typ1_neg.com
|  1> !PBE D3BJ RIJCOSX def2-SVPD def2/J TightSCF 
|  2> *xyz -1 1 
|  3> C          0.64866        1.00359       -3.64560
|  4> C          0.13297        2.38587       -4.02462
|  5> C         -1.36646        2.47911       -4.31393
|  6> C         -2.35773        2.30686       -3.13675
|  7> H         -1.63680        1.72709       -5.06399
|  8> H         -1.58235        3.44561       -4.76869
|  9> O         -3.44376        2.84652       -3.25274
| 10> O         -1.97092        1.58304       -2.15123
| 11> H          0.41484        3.10285       -3.24517
| 12> H          0.68317        2.68756       -4.91972
| 13> H          0.37534        0.30051       -4.40446
| 14> H          0.21856        0.70606       -2.71212
| 15> H          1.71431        1.03324       -3.55398
| 16> *
| 17> %MaxCore 64000
| 18> 
| 19> %pal nprocs 4
| 20> end  
| 21> 
| 22> %scf
| 23>   MaxIter 150
| 24> end
| 25> 
| 26> 
| 27>                          ****END OF INPUT****
================================================================================

                       ****************************
                       * Single Point Calculation *
                       ****************************

---------------------------------
CARTESIAN COORDINATES (ANGSTROEM)
---------------------------------
  C      0.648660    1.003590   -3.645600
  C      0.132970    2.385870   -4.024620
  C     -1.366460    2.479110   -4.313930
  C     -2.357730    2.306860   -3.136750
  H     -1.636800    1.727090   -5.063990
  H     -1.582350    3.445610   -4.768690
  O     -3.443760    2.846520   -3.252740
  O     -1.970920    1.583040   -2.151230
  H      0.414840    3.102850   -3.245170
  H      0.683170    2.687560   -4.919720
  H      0.375340    0.300510   -4.404460
  H      0.218560    0.706060   -2.712120
  H      1.714310    1.033240   -3.553980

----------------------------
CARTESIAN COORDINATES (A.U.)
----------------------------
  NO LB      ZA    FRAG     MASS         X           Y           Z
   0 C     6.0000    0    12.011    1.225790    1.896510   -6.889186
   1 C     6.0000    0    12.011    0.251277    4.508641   -7.605430
   2 C     6.0000    0    12.011   -2.582235    4.684839   -8.152146
   3 C     6.0000    0    12.011   -4.455464    4.359334   -5.927598
   4 H     1.0000    0     1.008   -3.093104    3.263727   -9.569554
   5 H     1.0000    0     1.008   -2.990208    6.511259   -9.011518
   6 O     8.0000    0    15.999   -6.507763    5.379143   -6.146788
   7 O     8.0000    0    15.999   -3.724499    2.991512   -4.065236
   8 H     1.0000    0     1.008    0.783934    5.863537   -6.132483
   9 H     1.0000    0     1.008    1.291004    5.078752   -9.296923
  10 H     1.0000    0     1.008    0.709290    0.567882   -8.323223
  11 H     1.0000    0     1.008    0.413019    1.334260   -5.125164
  12 H     1.0000    0     1.008    3.239576    1.952541   -6.716049

--------------------------------
INTERNAL COORDINATES (ANGSTROEM)
--------------------------------
 C      0   0   0     0.000000000000     0.00000000     0.00000000
 C      1   0   0     1.523249925291     0.00000000     0.00000000
 C      2   1   0     1.529929507722   115.73143054     0.00000000
 C      3   2   1     1.548560308093   118.47882882    69.26105950
 H      3   2   1     1.095996258935   109.22876055   306.99587259
 H      3   2   1     1.089741895909   109.09447516   191.65918400
 O      4   3   2     1.218256030808   116.67932681   153.78014971
 O      4   3   2     1.282492510271   116.99179008   332.02427143
 H      2   1   3     1.095925782067   109.24662404   125.16332320
 H      2   1   3     1.093133526199   106.48671664   239.00413491
 H      1   2   3     1.069997106725   109.47088171    54.83675893
 H      1   2   3     1.069997673502   109.47076563   294.83680064
 H      1   2   3     1.069992181934   109.47113693   174.83695651

---------------------------
INTERNAL COORDINATES (A.U.)
---------------------------
 C      0   0   0     0.000000000000     0.00000000     0.00000000
 C      1   0   0     2.878525192317     0.00000000     0.00000000
 C      2   1   0     2.891147773800   115.73143054     0.00000000
 C      3   2   1     2.926354884156   118.47882882    69.26105950
 H      3   2   1     2.071132773190   109.22876055   306.99587259
 H      3   2   1     2.059313739929   109.09447516   191.65918400
 O      4   3   2     2.302170259225   116.67932681   153.78014971
 O      4   3   2     2.423559613216   116.99179008   332.02427143
 H      2   1   3     2.070999591211   109.24662404   125.16332320
 H      2   1   3     2.065722992324   106.48671664   239.00413491
 H      1   2   3     2.022001495798   109.47088171    54.83675893
 H      1   2   3     2.022002566852   109.47076563   294.83680064
 H      1   2   3     2.021992189292   109.47113693   174.83695651

---------------------
BASIS SET INFORMATION
---------------------
There are 3 groups of distinct atoms

 Group   1 Type C   : 8s4p2d contracted to 4s2p2d pattern {5111/31/11}
 Group   2 Type H   : 4s2p contracted to 2s2p pattern {31/11}
 Group   3 Type O   : 8s5p2d contracted to 4s3p2d pattern {5111/311/11}

Atom   0C    basis set group =>   1
Atom   1C    basis set group =>   1
Atom   2C    basis set group =>   1
Atom   3C    basis set group =>   1
Atom   4H    basis set group =>   2
Atom   5H    basis set group =>   2
Atom   6O    basis set group =>   3
Atom   7O    basis set group =>   3
Atom   8H    basis set group =>   2
Atom   9H    basis set group =>   2
Atom  10H    basis set group =>   2
Atom  11H    basis set group =>   2
Atom  12H    basis set group =>   2
---------------------------------
AUXILIARY/J BASIS SET INFORMATION
---------------------------------
There are 3 groups of distinct atoms

 Group   1 Type C   : 12s5p4d2f1g contracted to 6s4p3d1f1g pattern {711111/2111/211/2/1}
 Group   2 Type H   : 5s2p1d contracted to 3s1p1d pattern {311/2/1}
 Group   3 Type O   : 12s5p4d2f1g contracted to 6s4p3d1f1g pattern {711111/2111/211/2/1}

Atom   0C    basis set group =>   1
Atom   1C    basis set group =>   1
Atom   2C    basis set group =>   1
Atom   3C    basis set group =>   1
Atom   4H    basis set group =>   2
Atom   5H    basis set group =>   2
Atom   6O    basis set group =>   3
Atom   7O    basis set group =>   3
Atom   8H    basis set group =>   2
Atom   9H    basis set group =>   2
Atom  10H    basis set group =>   2
Atom  11H    basis set group =>   2
Atom  12H    basis set group =>   2


           ************************************************************
           *        Program running with 4 parallel MPI-processes     *
           *              working on a common directory               *
           ************************************************************
------------------------------------------------------------------------------
                           ORCA GTO INTEGRAL CALCULATION
                           -- RI-GTO INTEGRALS CHOSEN --
------------------------------------------------------------------------------
------------------------------------------------------------------------------
                   ___                                                        
                  /   \      - P O W E R E D   B Y -                         
                 /     \                                                     
                 |  |  |   _    _      __       _____    __    __             
                 |  |  |  | |  | |    /  \     |  _  \  |  |  /  |          
                  \  \/   | |  | |   /    \    | | | |  |  | /  /          
                 / \  \   | |__| |  /  /\  \   | |_| |  |  |/  /          
                |  |  |   |  __  | /  /__\  \  |    /   |      \           
                |  |  |   | |  | | |   __   |  |    \   |  |\   \          
                \     /   | |  | | |  |  |  |  | |\  \  |  | \   \       
                 \___/    |_|  |_| |__|  |__|  |_| \__\ |__|  \__/        
                                                                              
                      - O R C A' S   B I G   F R I E N D -                    
                                      &                                       
                       - I N T E G R A L  F E E D E R -                       
                                                                              
 v1 FN, 2020, v2 2021                                                         
------------------------------------------------------------------------------


Reading SHARK input file 14Feb_SVPD_PBE_A_wt_wb97_typ1_neg.SHARKINP.tmp ... ok
----------------------
SHARK INTEGRAL PACKAGE
----------------------

Number of atoms                             ...     13
Number of basis functions                   ...    182
Number of shells                            ...     78
Maximum angular momentum                    ...      2
Integral batch strategy                     ... SHARK/LIBINT Hybrid
RI-J (if used) integral strategy            ... SPLIT-RIJ (Revised 2003 algorithm where possible)
Printlevel                                  ...      1
Contraction scheme used                     ... SEGMENTED contraction
Coulomb Range Separation                    ... NOT USED
Exchange Range Separation                   ... NOT USED
Finite Nucleus Model                        ... NOT USED
Auxiliary Coulomb fitting basis             ... AVAILABLE
   # of basis functions in Aux-J            ...    371
   # of shells in Aux-J                     ...    125
   Maximum angular momentum in Aux-J        ...      4
Auxiliary J/K fitting basis                 ... NOT available
Auxiliary Correlation fitting basis         ... NOT available
Auxiliary 'external' fitting basis          ... NOT available
Integral threshold                          ...     2.500000e-11
Primitive cut-off                           ...     2.500000e-12
Primitive pair pre-selection threshold      ...     2.500000e-12

Calculating pre-screening integrals         ... done (  0.0 sec) Dimension = 78
Organizing shell pair data                  ... done (  0.0 sec)
Shell pair information
Total number of shell pairs                 ...      3081
Shell pairs after pre-screening             ...      3029
Total number of primitive shell pairs       ...      8355
Primitive shell pairs kept                  ...      6897
          la=0 lb=0:    722 shell pairs
          la=1 lb=0:   1045 shell pairs
          la=1 lb=1:    403 shell pairs
          la=2 lb=0:    450 shell pairs
          la=2 lb=1:    332 shell pairs
          la=2 lb=2:     77 shell pairs

Calculating one electron integrals          ... done (  0.0 sec)
Calculating RI/J V-Matrix + Cholesky decomp.... done (  0.0 sec)
Calculating Nuclear repulsion               ... done (  0.0 sec) ENN=    232.437649914478 Eh

SHARK setup successfully completed in   0.2 seconds

Maximum memory used throughout the entire GTOINT-calculation: 8.9 MB


           ************************************************************
           *        Program running with 4 parallel MPI-processes     *
           *              working on a common directory               *
           ************************************************************
-------------------------------------------------------------------------------
                                 ORCA SCF
-------------------------------------------------------------------------------

------------
SCF SETTINGS
------------
Hamiltonian:
 Density Functional     Method          .... DFT(GTOs)
 Exchange Functional    Exchange        .... PBE
   PBE kappa parameter   XKappa         ....  0.804000
   PBE mue parameter    XMuePBE         ....  0.219520
 Correlation Functional Correlation     .... PBE
   PBE beta parameter  CBetaPBE         ....  0.066725
 LDA part of GGA corr.  LDAOpt          .... PW91-LDA
 Gradients option       PostSCFGGA      .... off
   Density functional embedding theory  .... OFF
   NL short-range parameter             ....  6.400000
 RI-approximation to the Coulomb term is turned on
   Number of AuxJ basis functions       .... 371


General Settings:
 Integral files         IntName         .... 14Feb_SVPD_PBE_A_wt_wb97_typ1_neg
 Hartree-Fock type      HFTyp           .... RHF
 Total Charge           Charge          ....   -1
 Multiplicity           Mult            ....    1
 Number of Electrons    NEL             ....   48
 Basis Dimension        Dim             ....  182
 Nuclear Repulsion      ENuc            ....    232.4376499145 Eh

Convergence Acceleration:
 DIIS                   CNVDIIS         .... on
   Start iteration      DIISMaxIt       ....    12
   Startup error        DIISStart       ....  0.200000
   # of expansion vecs  DIISMaxEq       ....     5
   Bias factor          DIISBfac        ....   1.050
   Max. coefficient     DIISMaxC        ....  10.000
 Trust-Rad. Augm. Hess. CNVTRAH         .... auto
   Auto Start mean grad. ratio tolernc. ....  1.125000
   Auto Start start iteration           ....    20
   Auto Start num. interpolation iter.  ....    10
   Max. Number of Micro iterations      ....    16
   Max. Number of Macro iterations      .... Maxiter - #DIIS iter
   Number of Davidson start vectors     ....     2
   Converg. threshold I  (grad. norm)   ....   1.000e-05
   Converg. threshold II (energy diff.) ....   1.000e-08
   Grad. Scal. Fac. for Micro threshold ....   0.100
   Minimum threshold for Micro iter.    ....   0.010
   NR start threshold (gradient norm)   ....   0.001
   Initial trust radius                 ....   0.400
   Minimum AH scaling param. (alpha)    ....   1.000
   Maximum AH scaling param. (alpha)    .... 1000.000
   Orbital update algorithm             .... Taylor
   White noise on init. David. guess    .... on
   Maximum white noise                  ....   0.010
   Quad. conv. algorithm                .... NR
 SOSCF                  CNVSOSCF        .... on
   Start iteration      SOSCFMaxIt      ....   150
   Startup grad/error   SOSCFStart      ....  0.003300
 Level Shifting         CNVShift        .... on
   Level shift para.    LevelShift      ....    0.2500
   Turn off err/grad.   ShiftErr        ....    0.0010
 Zerner damping         CNVZerner       .... off
 Static damping         CNVDamp         .... on
   Fraction old density DampFac         ....    0.7000
   Max. Damping (<1)    DampMax         ....    0.9800
   Min. Damping (>=0)   DampMin         ....    0.0000
   Turn off err/grad.   DampErr         ....    0.1000
 Fernandez-Rico         CNVRico         .... off

SCF Procedure:
 Maximum # iterations   MaxIter         ....   150
 SCF integral mode      SCFMode         .... Direct
   Integral package                     .... SHARK and LIBINT hybrid scheme
 Reset frequency        DirectResetFreq ....    20
 Integral Threshold     Thresh          ....  2.500e-11 Eh
 Primitive CutOff       TCut            ....  2.500e-12 Eh

Convergence Tolerance:
 Convergence Check Mode ConvCheckMode   .... Total+1el-Energy
 Convergence forced     ConvForced      .... 0
 Energy Change          TolE            ....  1.000e-08 Eh
 1-El. energy change                    ....  1.000e-05 Eh
 Orbital Gradient       TolG            ....  1.000e-05
 Orbital Rotation angle TolX            ....  1.000e-05
 DIIS Error             TolErr          ....  5.000e-07


Diagonalization of the overlap matrix:
Smallest eigenvalue                        ... 1.013e-04
Time for diagonalization                   ...    0.009 sec
Threshold for overlap eigenvalues          ... 1.000e-08
Number of eigenvalues below threshold      ... 0
Time for construction of square roots      ...    0.006 sec
Total time needed                          ...    0.016 sec

Time for model grid setup =    0.083 sec

------------------------------
INITIAL GUESS: MODEL POTENTIAL
------------------------------
Loading Hartree-Fock densities                     ... done
Calculating cut-offs                               ... done
Initializing the effective Hamiltonian             ... done
Setting up the integral package (SHARK)            ... done
Starting the Coulomb interaction                   ... done (   0.0 sec)
Reading the grid                                   ... done
Mapping shells                                     ... done
Starting the XC term evaluation                    ... done (   0.1 sec)
  promolecular density results
     # of electrons  =     47.000203668
     EX              =    -38.782826107
     EC              =     -1.546591064
     EX+EC           =    -40.329417171
Transforming the Hamiltonian                       ... done (   0.0 sec)
Diagonalizing the Hamiltonian                      ... done (   0.0 sec)
Back transforming the eigenvectors                 ... done (   0.0 sec)
Now organizing SCF variables                       ... done
                      ------------------
                      INITIAL GUESS DONE (   0.2 sec)
                      ------------------
-------------------
DFT GRID GENERATION
-------------------

General Integration Accuracy     IntAcc      ... 4.388
Radial Grid Type                 RadialGrid  ... OptM3 with GC (2021)
Angular Grid (max. ang.)         AngularGrid ... 4 (Lebedev-302)
Angular grid pruning method      GridPruning ... 4 (adaptive)
Weight generation scheme         WeightScheme... Becke
Basis function cutoff            BFCut       ... 1.0000e-11
Integration weight cutoff        WCut        ... 1.0000e-14
Angular grids for H and He will be reduced by one unit
Partially contracted basis set               ... off
Rotationally invariant grid construction     ... off

Total number of grid points                  ...    60773
Total number of batches                      ...      957
Average number of points per batch           ...       63
Average number of grid points per atom       ...     4675
Time for grid setup =    0.391 sec

--------------
SCF ITERATIONS
--------------
ITER       Energy         Delta-E        Max-DP      RMS-DP      [F,P]     Damp
               ***  Starting incremental Fock matrix formation  ***
  0   -306.2690329356   0.000000000000 0.14271709  0.00417328  0.2737517 0.7000
  1   -306.4295233599  -0.160490424369 0.32690747  0.00424695  0.0903474 0.7000
                               ***Turning on DIIS***
  2   -306.4754719010  -0.045948541033 0.76686961  0.00899076  0.0250562 0.0000
  3   -306.5571052130  -0.081633312004 0.32007898  0.00327342  0.0603442 0.0000
  4   -306.5772910727  -0.020185859776 0.21384706  0.00202948  0.0233456 0.0000
  5   -306.5797277190  -0.002436646306 0.13018440  0.00127098  0.0034728 0.0000
                      *** Initiating the SOSCF procedure ***
                           *** Shutting down DIIS ***
                      *** Re-Reading the Fockian *** 
                      *** Removing any level shift *** 
ITER      Energy       Delta-E        Grad      Rot      Max-DP    RMS-DP
  6   -306.57987132  -0.0001436059  0.000716  0.000716  0.069788  0.000704
               *** Restarting incremental Fock matrix formation ***
  7   -306.57988902  -0.0000176970  0.000538  0.004368  0.084642  0.000906
  8   -306.57984807   0.0000409525  0.002051  0.002341  0.008935  0.000153
  9   -306.57990085  -0.0000527772  0.000158  0.000927  0.018439  0.000203
 10   -306.57989911   0.0000017334  0.000316  0.000246  0.000830  0.000019
 11   -306.57990172  -0.0000026020  0.000036  0.000393  0.006748  0.000075
 12   -306.57990167   0.0000000470  0.000040  0.000118  0.002181  0.000024
 13   -306.57990179  -0.0000001201  0.000006  0.000068  0.001080  0.000012
 14   -306.57990179  -0.0000000010  0.000003  0.000023  0.000423  0.000005
                  ***Gradient check signals convergence***
              ***Rediagonalizing the Fockian in SOSCF/NRSCF***

               *****************************************************
               *                     SUCCESS                       *
               *           SCF CONVERGED AFTER  15 CYCLES          *
               *****************************************************


----------------
TOTAL SCF ENERGY
----------------

Total Energy       :         -306.57990179 Eh           -8342.46325 eV

Components:
Nuclear Repulsion  :          232.43764991 Eh            6324.95001 eV
Electronic Energy  :         -539.01755171 Eh          -14667.41326 eV
One Electron Energy:         -887.16332305 Eh          -24140.94132 eV
Two Electron Energy:          348.14577135 Eh            9473.52806 eV

Virial components:
Potential Energy   :         -610.40878877 Eh          -16610.06758 eV
Kinetic Energy     :          303.82888698 Eh            8267.60433 eV
Virial Ratio       :            2.00905449


DFT components:
N(Alpha)           :       24.000186796989 electrons
N(Beta)            :       24.000186796989 electrons
N(Total)           :       48.000373593978 electrons
E(X)               :      -39.728302566094 Eh       
E(C)               :       -1.587998923039 Eh       
E(XC)              :      -41.316301489132 Eh       
DFET-embed. en.    :        0.000000000000 Eh       

---------------
SCF CONVERGENCE
---------------

  Last Energy change         ...   -1.6252e-09  Tolerance :   1.0000e-08
  Last MAX-Density change    ...    1.8541e-04  Tolerance :   1.0000e-07
  Last RMS-Density change    ...    1.9562e-06  Tolerance :   5.0000e-09
  Last Orbital Gradient      ...    6.5040e-07  Tolerance :   1.0000e-05
  Last Orbital Rotation      ...    8.1051e-06  Tolerance :   1.0000e-05

             **** THE GBW FILE WAS UPDATED (14Feb_SVPD_PBE_A_wt_wb97_typ1_neg.gbw) ****
             **** DENSITY 14Feb_SVPD_PBE_A_wt_wb97_typ1_neg.scfp WAS UPDATED ****
             **** ENERGY FILE WAS UPDATED (14Feb_SVPD_PBE_A_wt_wb97_typ1_neg.en.tmp) ****
             **** THE GBW FILE WAS UPDATED (14Feb_SVPD_PBE_A_wt_wb97_typ1_neg.gbw) ****
             **** DENSITY 14Feb_SVPD_PBE_A_wt_wb97_typ1_neg.scfp WAS UPDATED ****
----------------
ORBITAL ENERGIES
----------------

  NO   OCC          E(Eh)            E(eV) 
   0   2.0000     -18.514101      -503.7943 
   1   2.0000     -18.505092      -503.5492 
   2   2.0000      -9.776837      -266.0413 
   3   2.0000      -9.746423      -265.2136 
   4   2.0000      -9.733364      -264.8583 
   5   2.0000      -9.723497      -264.5898 
   6   2.0000      -0.735884       -20.0244 
   7   2.0000      -0.640761       -17.4360 
   8   2.0000      -0.556034       -15.1305 
   9   2.0000      -0.466784       -12.7018 
  10   2.0000      -0.378775       -10.3070 
  11   2.0000      -0.274057        -7.4575 
  12   2.0000      -0.247466        -6.7339 
  13   2.0000      -0.236664        -6.4400 
  14   2.0000      -0.213661        -5.8140 
  15   2.0000      -0.178286        -4.8514 
  16   2.0000      -0.171368        -4.6632 
  17   2.0000      -0.163049        -4.4368 
  18   2.0000      -0.147889        -4.0243 
  19   2.0000      -0.134190        -3.6515 
  20   2.0000      -0.123113        -3.3501 
  21   2.0000      -0.018736        -0.5098 
  22   2.0000      -0.002997        -0.0816 
  23   2.0000       0.012381         0.3369 
  24   0.0000       0.130054         3.5390 
  25   0.0000       0.158100         4.3021 
  26   0.0000       0.166191         4.5223 
  27   0.0000       0.181333         4.9343 
  28   0.0000       0.195387         5.3168 
  29   0.0000       0.214349         5.8327 
  30   0.0000       0.218876         5.9559 
  31   0.0000       0.228633         6.2214 
  32   0.0000       0.234110         6.3705 
  33   0.0000       0.237966         6.4754 
  34   0.0000       0.253799         6.9062 
  35   0.0000       0.261554         7.1172 
  36   0.0000       0.269500         7.3335 
  37   0.0000       0.283190         7.7060 
  38   0.0000       0.292676         7.9641 
  39   0.0000       0.293613         7.9896 
  40   0.0000       0.300762         8.1841 
  41   0.0000       0.320783         8.7290 
  42   0.0000       0.325584         8.8596 
  43   0.0000       0.339648         9.2423 
  44   0.0000       0.361026         9.8240 
  45   0.0000       0.369892        10.0653 
  46   0.0000       0.380031        10.3412 
  47   0.0000       0.390495        10.6259 
  48   0.0000       0.405367        11.0306 
  49   0.0000       0.414106        11.2684 
  50   0.0000       0.420552        11.4438 
  51   0.0000       0.429652        11.6914 
  52   0.0000       0.430200        11.7063 
  53   0.0000       0.439567        11.9612 
  54   0.0000       0.447193        12.1687 
  55   0.0000       0.461450        12.5567 
  56   0.0000       0.467585        12.7236 
  57   0.0000       0.481704        13.1078 
  58   0.0000       0.486196        13.2301 
  59   0.0000       0.491491        13.3741 
  60   0.0000       0.510779        13.8990 
  61   0.0000       0.513983        13.9862 
  62   0.0000       0.525578        14.3017 
  63   0.0000       0.535737        14.5781 
  64   0.0000       0.540682        14.7127 
  65   0.0000       0.559277        15.2187 
  66   0.0000       0.561324        15.2744 
  67   0.0000       0.562887        15.3169 
  68   0.0000       0.579417        15.7667 
  69   0.0000       0.589161        16.0319 
  70   0.0000       0.592599        16.1254 
  71   0.0000       0.601191        16.3592 
  72   0.0000       0.617873        16.8132 
  73   0.0000       0.619607        16.8604 
  74   0.0000       0.623741        16.9729 
  75   0.0000       0.627858        17.0849 
  76   0.0000       0.647451        17.6180 
  77   0.0000       0.648898        17.6574 
  78   0.0000       0.665499        18.1091 
  79   0.0000       0.674541        18.3552 
  80   0.0000       0.685811        18.6619 
  81   0.0000       0.688963        18.7476 
  82   0.0000       0.695462        18.9245 
  83   0.0000       0.706250        19.2180 
  84   0.0000       0.709883        19.3169 
  85   0.0000       0.727644        19.8002 
  86   0.0000       0.736965        20.0538 
  87   0.0000       0.744998        20.2724 
  88   0.0000       0.764051        20.7909 
  89   0.0000       0.786341        21.3974 
  90   0.0000       0.811820        22.0907 
  91   0.0000       0.824417        22.4335 
  92   0.0000       0.840219        22.8635 
  93   0.0000       0.845881        23.0176 
  94   0.0000       0.881700        23.9923 
  95   0.0000       0.892307        24.2809 
  96   0.0000       0.910421        24.7738 
  97   0.0000       0.921945        25.0874 
  98   0.0000       0.935392        25.4533 
  99   0.0000       0.961300        26.1583 
 100   0.0000       1.006880        27.3986 
 101   0.0000       1.034238        28.1430 
 102   0.0000       1.052944        28.6521 
 103   0.0000       1.064707        28.9722 
 104   0.0000       1.084380        29.5075 
 105   0.0000       1.100960        29.9587 
 106   0.0000       1.117952        30.4210 
 107   0.0000       1.121632        30.5212 
 108   0.0000       1.144055        31.1313 
 109   0.0000       1.151558        31.3355 
 110   0.0000       1.175684        31.9920 
 111   0.0000       1.188531        32.3416 
 112   0.0000       1.200904        32.6782 
 113   0.0000       1.226527        33.3755 
 114   0.0000       1.243642        33.8412 
 115   0.0000       1.263701        34.3870 
 116   0.0000       1.302744        35.4495 
 117   0.0000       1.320135        35.9227 
 118   0.0000       1.382181        37.6111 
 119   0.0000       1.412411        38.4337 
 120   0.0000       1.440866        39.2080 
 121   0.0000       1.468825        39.9688 
 122   0.0000       1.531965        41.6869 
 123   0.0000       1.650524        44.9130 
 124   0.0000       1.655975        45.0614 
 125   0.0000       1.673056        45.5262 
 126   0.0000       1.694733        46.1160 
 127   0.0000       1.708816        46.4992 
 128   0.0000       1.720069        46.8055 
 129   0.0000       1.765147        48.0321 
 130   0.0000       1.777901        48.3791 
 131   0.0000       1.793008        48.7902 
 132   0.0000       1.808993        49.2252 
 133   0.0000       1.856527        50.5187 
 134   0.0000       1.878151        51.1071 
 135   0.0000       1.895176        51.5704 
 136   0.0000       1.940047        52.7914 
 137   0.0000       1.963654        53.4337 
 138   0.0000       1.994680        54.2780 
 139   0.0000       2.032093        55.2961 
 140   0.0000       2.033068        55.3226 
 141   0.0000       2.066222        56.2248 
 142   0.0000       2.081266        56.6341 
 143   0.0000       2.101186        57.1762 
 144   0.0000       2.123789        57.7912 
 145   0.0000       2.146677        58.4141 
 146   0.0000       2.154498        58.6269 
 147   0.0000       2.173709        59.1496 
 148   0.0000       2.208820        60.1050 
 149   0.0000       2.233039        60.7641 
 150   0.0000       2.263069        61.5812 
 151   0.0000       2.346674        63.8563 
 152   0.0000       2.352051        64.0026 
 153   0.0000       2.374280        64.6075 
 154   0.0000       2.441585        66.4389 
 155   0.0000       2.501258        68.0627 
 156   0.0000       2.526396        68.7467 
 157   0.0000       2.552890        69.4677 
 158   0.0000       2.609918        71.0195 
 159   0.0000       2.640387        71.8486 
 160   0.0000       2.680901        72.9510 
 161   0.0000       2.687923        73.1421 
 162   0.0000       2.747439        74.7616 
 163   0.0000       2.781432        75.6866 
 164   0.0000       2.841480        77.3206 
 165   0.0000       2.979193        81.0680 
 166   0.0000       2.999171        81.6116 
 167   0.0000       3.017960        82.1229 
 168   0.0000       3.039420        82.7068 
 169   0.0000       3.086165        83.9788 
 170   0.0000       3.126519        85.0769 
 171   0.0000       3.140989        85.4707 
 172   0.0000       3.171100        86.2900 
 173   0.0000       3.185747        86.6886 
 174   0.0000       3.226535        87.7985 
 175   0.0000       3.257648        88.6451 
 176   0.0000       3.286579        89.4324 
 177   0.0000       3.354123        91.2703 
 178   0.0000       3.422263        93.1245 
 179   0.0000       3.572573        97.2147 
 180   0.0000       3.815046       103.8127 
 181   0.0000       3.967105       107.9504 

                    ********************************
                    * MULLIKEN POPULATION ANALYSIS *
                    ********************************

-----------------------
MULLIKEN ATOMIC CHARGES
-----------------------
   0 C :    0.734887
   1 C :   -0.359648
   2 C :   -0.048947
   3 C :    0.372693
   4 H :    0.059578
   5 H :   -0.008140
   6 O :   -0.602767
   7 O :   -0.707348
   8 H :   -0.097913
   9 H :   -0.059637
  10 H :   -0.074155
  11 H :   -0.147509
  12 H :   -0.061096
Sum of atomic charges:   -1.0000000

--------------------------------
MULLIKEN REDUCED ORBITAL CHARGES
--------------------------------
  0 C s       :     2.416601  s :     2.416601
      pz      :     0.924578  p :     2.720687
      px      :     0.810046
      py      :     0.986063
      dz2     :    -0.007952  d :     0.127825
      dxz     :    -0.024647
      dyz     :     0.070001
      dx2y2   :     0.062649
      dxy     :     0.027774
  1 C s       :     2.850076  s :     2.850076
      pz      :     0.894017  p :     2.894628
      px      :     0.985614
      py      :     1.014996
      dz2     :     0.021141  d :     0.614944
      dxz     :     0.122053
      dyz     :     0.142756
      dx2y2   :     0.085654
      dxy     :     0.243340
  2 C s       :     2.831001  s :     2.831001
      pz      :     1.084789  p :     2.930597
      px      :     0.931579
      py      :     0.914229
      dz2     :     0.026843  d :     0.287349
      dxz     :     0.098264
      dyz     :     0.006560
      dx2y2   :     0.077709
      dxy     :     0.077974
  3 C s       :     2.953521  s :     2.953521
      pz      :     0.863829  p :     2.463630
      px      :     0.821379
      py      :     0.778422
      dz2     :     0.060098  d :     0.210156
      dxz     :     0.039819
      dyz     :     0.059524
      dx2y2   :     0.043263
      dxy     :     0.007453
  4 H s       :     0.889710  s :     0.889710
      pz      :     0.035903  p :     0.050712
      px      :     0.000619
      py      :     0.014190
  5 H s       :     0.943249  s :     0.943249
      pz      :     0.009319  p :     0.064891
      px      :    -0.009252
      py      :     0.064824
  6 O s       :     3.857055  s :     3.857055
      pz      :     1.809620  p :     4.713158
      px      :     1.342270
      py      :     1.561268
      dz2     :     0.002580  d :     0.032554
      dxz     :     0.008069
      dyz     :     0.002449
      dx2y2   :     0.012461
      dxy     :     0.006995
  7 O s       :     3.881521  s :     3.881521
      pz      :     1.468609  p :     4.798686
      px      :     1.808684
      py      :     1.521393
      dz2     :     0.007897  d :     0.027141
      dxz     :     0.002610
      dyz     :     0.004857
      dx2y2   :     0.007321
      dxy     :     0.004457
  8 H s       :     1.039279  s :     1.039279
      pz      :     0.024357  p :     0.058634
      px      :     0.005790
      py      :     0.028487
  9 H s       :     1.043792  s :     1.043792
      pz      :     0.039404  p :     0.015845
      px      :    -0.002553
      py      :    -0.021006
 10 H s       :     1.029700  s :     1.029700
      pz      :     0.041339  p :     0.044455
      px      :    -0.019966
      py      :     0.023082
 11 H s       :     1.030284  s :     1.030284
      pz      :     0.077529  p :     0.117225
      px      :     0.039270
      py      :     0.000426
 12 H s       :     1.037159  s :     1.037159
      pz      :    -0.028808  p :     0.023937
      px      :     0.057310
      py      :    -0.004565


                     *******************************
                     * LOEWDIN POPULATION ANALYSIS *
                     *******************************

----------------------
LOEWDIN ATOMIC CHARGES
----------------------
   0 C :    0.098688
   1 C :   -0.100779
   2 C :   -0.000284
   3 C :   -0.314613
   4 H :    0.011774
   5 H :   -0.004217
   6 O :   -0.283288
   7 O :   -0.305904
   8 H :    0.016735
   9 H :   -0.005308
  10 H :   -0.029124
  11 H :   -0.042937
  12 H :   -0.040743

-------------------------------
LOEWDIN REDUCED ORBITAL CHARGES
-------------------------------
  0 C s       :     2.710204  s :     2.710204
      pz      :     0.942149  p :     2.759704
      px      :     0.909083
      py      :     0.908472
      dz2     :     0.059592  d :     0.431404
      dxz     :     0.036174
      dyz     :     0.134512
      dx2y2   :     0.134791
      dxy     :     0.066334
  1 C s       :     2.699633  s :     2.699633
      pz      :     0.901442  p :     2.695162
      px      :     0.897455
      py      :     0.896265
      dz2     :     0.075439  d :     0.705984
      dxz     :     0.146605
      dyz     :     0.145334
      dx2y2   :     0.161350
      dxy     :     0.177256
  2 C s       :     2.699936  s :     2.699936
      pz      :     0.906746  p :     2.681209
      px      :     0.875254
      py      :     0.899209
      dz2     :     0.094772  d :     0.619139
      dxz     :     0.157982
      dyz     :     0.107807
      dx2y2   :     0.144349
      dxy     :     0.114229
  3 C s       :     2.677900  s :     2.677900
      pz      :     0.827525  p :     2.448822
      px      :     0.868697
      py      :     0.752600
      dz2     :     0.241459  d :     1.187891
      dxz     :     0.301544
      dyz     :     0.198586
      dx2y2   :     0.233802
      dxy     :     0.212501
  4 H s       :     0.719655  s :     0.719655
      pz      :     0.099210  p :     0.268572
      px      :     0.066077
      py      :     0.103284
  5 H s       :     0.725543  s :     0.725543
      pz      :     0.085116  p :     0.278674
      px      :     0.074975
      py      :     0.118583
  6 O s       :     3.454722  s :     3.454722
      pz      :     1.634362  p :     4.585925
      px      :     1.473526
      py      :     1.478037
      dz2     :     0.023906  d :     0.242640
      dxz     :     0.067593
      dyz     :     0.021494
      dx2y2   :     0.068207
      dxy     :     0.061441
  7 O s       :     3.480231  s :     3.480231
      pz      :     1.497257  p :     4.600667
      px      :     1.645323
      py      :     1.458087
      dz2     :     0.059759  d :     0.225006
      dxz     :     0.046348
      dyz     :     0.055402
      dx2y2   :     0.028420
      dxy     :     0.035076
  8 H s       :     0.729134  s :     0.729134
      pz      :     0.102055  p :     0.254130
      px      :     0.066218
      py      :     0.085857
  9 H s       :     0.737352  s :     0.737352
      pz      :     0.112774  p :     0.267956
      px      :     0.083089
      py      :     0.072093
 10 H s       :     0.742973  s :     0.742973
      pz      :     0.109131  p :     0.286151
      px      :     0.083934
      py      :     0.093086
 11 H s       :     0.716595  s :     0.716595
      pz      :     0.128856  p :     0.326342
      px      :     0.120392
      py      :     0.077094
 12 H s       :     0.751556  s :     0.751556
      pz      :     0.080768  p :     0.289187
      px      :     0.135454
      py      :     0.072965


                      *****************************
                      * MAYER POPULATION ANALYSIS *
                      *****************************

  NA   - Mulliken gross atomic population
  ZA   - Total nuclear charge
  QA   - Mulliken gross atomic charge
  VA   - Mayer's total valence
  BVA  - Mayer's bonded valence
  FA   - Mayer's free valence

  ATOM       NA         ZA         QA         VA         BVA        FA
  0 C      5.2651     6.0000     0.7349     3.9182     3.9182     0.0000
  1 C      6.3596     6.0000    -0.3596     5.3576     5.3576     0.0000
  2 C      6.0489     6.0000    -0.0489     4.4038     4.4038     0.0000
  3 C      5.6273     6.0000     0.3727     4.2783     4.2783    -0.0000
  4 H      0.9404     1.0000     0.0596     1.0616     1.0616    -0.0000
  5 H      1.0081     1.0000    -0.0081     1.1852     1.1852     0.0000
  6 O      8.6028     8.0000    -0.6028     1.6488     1.6488     0.0000
  7 O      8.7073     8.0000    -0.7073     1.5789     1.5789    -0.0000
  8 H      1.0979     1.0000    -0.0979     1.1771     1.1771     0.0000
  9 H      1.0596     1.0000    -0.0596     1.0975     1.0975     0.0000
 10 H      1.0742     1.0000    -0.0742     1.0428     1.0428    -0.0000
 11 H      1.1475     1.0000    -0.1475     1.2378     1.2378     0.0000
 12 H      1.0611     1.0000    -0.0611     1.0106     1.0106     0.0000

  Mayer bond orders larger than 0.100000
B(  0-C ,  1-C ) :   1.3171 B(  0-C ,  8-H ) :   0.1158 B(  0-C ,  9-H ) :   0.1010 
B(  0-C , 10-H ) :   0.7816 B(  0-C , 11-H ) :   0.8380 B(  0-C , 12-H ) :   0.7407 
B(  1-C ,  2-C ) :   1.2102 B(  1-C ,  4-H ) :   0.1355 B(  1-C ,  5-H ) :   0.1307 
B(  1-C ,  8-H ) :   0.9339 B(  1-C ,  9-H ) :   0.8566 B(  1-C , 10-H ) :   0.2192 
B(  1-C , 11-H ) :   0.2350 B(  1-C , 12-H ) :   0.2322 B(  2-C ,  3-C ) :   1.0529 
B(  2-C ,  4-H ) :   0.8275 B(  2-C ,  5-H ) :   0.9223 B(  2-C ,  8-H ) :   0.1474 
B(  2-C ,  9-H ) :   0.1289 B(  3-C ,  5-H ) :   0.1516 B(  3-C ,  6-O ) :   1.4987 
B(  3-C ,  7-O ) :   1.4332 

-------
TIMINGS
-------

Total SCF time: 0 days 0 hours 0 min 5 sec 

Total time                  ....       5.630 sec
Sum of individual times     ....       5.462 sec  ( 97.0%)

Fock matrix formation       ....       4.718 sec  ( 83.8%)
  Split-RI-J                ....       1.015 sec  ( 21.5% of F)
  XC integration            ....       3.667 sec  ( 77.7% of F)
    Basis function eval.    ....       1.230 sec  ( 33.6% of XC)
    Density eval.           ....       0.888 sec  ( 24.2% of XC)
    XC-Functional eval.     ....       0.206 sec  (  5.6% of XC)
    XC-Potential eval.      ....       1.211 sec  ( 33.0% of XC)
Diagonalization             ....       0.052 sec  (  0.9%)
Density matrix formation    ....       0.004 sec  (  0.1%)
Population analysis         ....       0.006 sec  (  0.1%)
Initial guess               ....       0.127 sec  (  2.2%)
Orbital Transformation      ....       0.000 sec  (  0.0%)
Orbital Orthonormalization  ....       0.000 sec  (  0.0%)
DIIS solution               ....       0.037 sec  (  0.7%)
SOSCF solution              ....       0.044 sec  (  0.8%)
Grid generation             ....       0.474 sec  (  8.4%)

Maximum memory used throughout the entire SCF-calculation: 20.1 MB


-------------------------------------------------------------------------------
                          DFT DISPERSION CORRECTION                            
                                                                               
                              DFTD3 V3.1  Rev 1                                
                          USING Becke-Johnson damping                          
-------------------------------------------------------------------------------
The PBE functional is recognized
Active option DFTDOPT                   ...         4   

molecular C6(AA) [au] = 1383.707760 


            DFT-D V3
 parameters
 s6 scaling factor         :     1.0000 
 a1 scaling factor         :     0.4289 
 s8 scaling factor         :     0.7875 
 a2 scaling factor         :     4.4407 
 ad hoc parameters k1-k3   :    16.0000     1.3333    -4.0000 

 Edisp/kcal,au: -6.074803826048  -0.009680815078 
 E6   /kcal   :  -4.357392814 
 E8   /kcal   :  -1.717411012 
 % E8         :  28.271053048 

-------------------------   ----------------
Dispersion correction           -0.009680815
-------------------------   ----------------


-------------------------   --------------------
FINAL SINGLE POINT ENERGY      -306.589582606126
-------------------------   --------------------


                            ***************************************
                            *     ORCA property calculations      *
                            ***************************************

                                    ---------------------
                                    Active property flags
                                    ---------------------
   (+) Dipole Moment


------------------------------------------------------------------------------
                       ORCA ELECTRIC PROPERTIES CALCULATION
------------------------------------------------------------------------------

Dipole Moment Calculation                       ... on
Quadrupole Moment Calculation                   ... off
Polarizability Calculation                      ... off
GBWName                                         ... 14Feb_SVPD_PBE_A_wt_wb97_typ1_neg.gbw
Electron density file                           ... 14Feb_SVPD_PBE_A_wt_wb97_typ1_neg.scfp
The origin for moment calculation is the CENTER OF MASS  = (-2.642292,  3.952473 -6.443284)

-------------
DIPOLE MOMENT
-------------
                                X             Y             Z
Electronic contribution:     -7.28906       1.46121       3.19237
Nuclear contribution   :      9.31936      -1.53308      -4.48293
                        -----------------------------------------
Total Dipole Moment    :      2.03030      -0.07187      -1.29056
                        -----------------------------------------
Magnitude (a.u.)       :      2.40683
Magnitude (Debye)      :      6.11767



--------------------
Rotational spectrum 
--------------------
 
Rotational constants in cm-1:     0.250458     0.077448     0.063252 
Rotational constants in MHz :  7508.538874  2321.842942  1896.252250 

 Dipole components along the rotational axes: 
x,y,z [a.u.] :    -2.211588    -0.945972    -0.082663 
x,y,z [Debye]:    -5.621411    -2.404470    -0.210112 

 

Timings for individual modules:

Sum of individual times         ...        6.274 sec (=   0.105 min)
GTO integral calculation        ...        0.400 sec (=   0.007 min)   6.4 %
SCF iterations                  ...        5.874 sec (=   0.098 min)  93.6 %
                             ****ORCA TERMINATED NORMALLY****
TOTAL RUN TIME: 0 days 0 hours 0 minutes 6 seconds 668 msec
