
                                        *****************
                                        * O   R   C   A *
                                        *****************

                                            #,                                       
                                            ###                                      
                                            ####                                     
                                            #####                                    
                                            ######                                   
                                           ########,                                 
                                     ,,################,,,,,                         
                               ,,#################################,,                 
                          ,,##########################################,,             
                       ,#########################################, ''#####,          
                    ,#############################################,,   '####,        
                  ,##################################################,,,,####,       
                ,###########''''           ''''###############################       
              ,#####''   ,,,,##########,,,,          '''####'''          '####       
            ,##' ,,,,###########################,,,                        '##       
           ' ,,###''''                  '''############,,,                           
         ,,##''                                '''############,,,,        ,,,,,,###''
      ,#''                                            '''#######################'''  
     '                                                          ''''####''''         
             ,#######,   #######,   ,#######,      ##                                
            ,#'     '#,  ##    ##  ,#'     '#,    #''#        ######   ,####,        
            ##       ##  ##   ,#'  ##            #'  '#       #        #'  '#        
            ##       ##  #######   ##           ,######,      #####,   #    #        
            '#,     ,#'  ##    ##  '#,     ,#' ,#      #,         ##   #,  ,#        
             '#######'   ##     ##  '#######'  #'      '#     #####' # '####'        



                  #######################################################
                  #                        -***-                        #
                  #          Department of theory and spectroscopy      #
                  #    Directorship and core code : Frank Neese         #
                  #        Max Planck Institute fuer Kohlenforschung    #
                  #                Kaiser Wilhelm Platz 1               #
                  #                 D-45470 Muelheim/Ruhr               #
                  #                      Germany                        #
                  #                                                     #
                  #                  All rights reserved                #
                  #                        -***-                        #
                  #######################################################


                         Program Version 5.0.0 -  RELEASE  -
                                (SVN: $Rev: 19529$)
                ($Date: 2021-06-28 11:36:33 +0200 (Mo, 28 Jun 2021) $)


 With contributions from (in alphabetic order):
   Daniel Aravena         : Magnetic Suceptibility
   Michael Atanasov       : Ab Initio Ligand Field Theory (pilot matlab implementation)
   Alexander A. Auer      : GIAO ZORA, VPT2 properties, NMR spectrum
   Ute Becker             : Parallelization
   Giovanni Bistoni       : ED, misc. LED, open-shell LED, HFLD
   Martin Brehm           : Molecular dynamics
   Dmytro Bykov           : SCF Hessian
   Vijay G. Chilkuri      : MRCI spin determinant printing, contributions to CSF-ICE
   Dipayan Datta          : RHF DLPNO-CCSD density
   Achintya Kumar Dutta   : EOM-CC, STEOM-CC
   Dmitry Ganyushin       : Spin-Orbit,Spin-Spin,Magnetic field MRCI
   Miquel Garcia          : C-PCM Hessian, Gaussian charge scheme
   Yang Guo               : DLPNO-NEVPT2, F12-NEVPT2, CIM, IAO-localization
   Andreas Hansen         : Spin unrestricted coupled pair/coupled cluster methods
   Benjamin Helmich-Paris : MC-RPA, TRAH-SCF, COSX integrals
   Lee Huntington         : MR-EOM, pCC
   Robert Izsak           : Overlap fitted RIJCOSX, COSX-SCS-MP3, EOM
   Marcus Kettner         : VPT2
   Christian Kollmar      : KDIIS, OOCD, Brueckner-CCSD(T), CCSD density, CASPT2, CASPT2-K
   Simone Kossmann        : Meta GGA functionals, TD-DFT gradient, OOMP2, MP2 Hessian
   Martin Krupicka        : Initial AUTO-CI
   Lucas Lang             : DCDCAS
   Marvin Lechner         : AUTO-CI (C++ implementation), FIC-MRCC
   Dagmar Lenk            : GEPOL surface, SMD
   Dimitrios Liakos       : Extrapolation schemes; Compound Job, initial MDCI parallelization
   Dimitrios Manganas     : Further ROCIS development; embedding schemes
   Dimitrios Pantazis     : SARC Basis sets
   Anastasios Papadopoulos: AUTO-CI, single reference methods and gradients
   Taras Petrenko         : DFT Hessian,TD-DFT gradient, ASA, ECA, R-Raman, ABS, FL, XAS/XES, NRVS
   Peter Pinski           : DLPNO-MP2, DLPNO-MP2 Gradient
   Christoph Reimann      : Effective Core Potentials
   Marius Retegan         : Local ZFS, SOC
   Christoph Riplinger    : Optimizer, TS searches, QM/MM, DLPNO-CCSD(T), (RO)-DLPNO pert. Triples
   Tobias Risthaus        : Range-separated hybrids, TD-DFT gradient, RPA, STAB
   Michael Roemelt        : Original ROCIS implementation
   Masaaki Saitow         : Open-shell DLPNO-CCSD energy and density
   Barbara Sandhoefer     : DKH picture change effects
   Avijit Sen             : IP-ROCIS
   Kantharuban Sivalingam : CASSCF convergence, NEVPT2, FIC-MRCI
   Bernardo de Souza      : ESD, SOC TD-DFT
   Georgi Stoychev        : AutoAux, RI-MP2 NMR
   Willem Van den Heuvel  : Paramagnetic NMR
   Boris Wezisla          : Elementary symmetry handling
   Frank Wennmohs         : Technical directorship


 We gratefully acknowledge several colleagues who have allowed us to
 interface, adapt or use parts of their codes:
   Stefan Grimme, W. Hujo, H. Kruse, P. Pracht,  : VdW corrections, initial TS optimization,
                  C. Bannwarth, S. Ehlert          DFT functionals, gCP, sTDA/sTD-DF
   Ed Valeev, F. Pavosevic, A. Kumar             : LibInt (2-el integral package), F12 methods
   Garnet Chan, S. Sharma, J. Yang, R. Olivares  : DMRG
   Ulf Ekstrom                                   : XCFun DFT Library
   Mihaly Kallay                                 : mrcc  (arbitrary order and MRCC methods)
   Jiri Pittner, Ondrej Demel                    : Mk-CCSD
   Frank Weinhold                                : gennbo (NPA and NBO analysis)
   Christopher J. Cramer and Donald G. Truhlar   : smd solvation model
   Lars Goerigk                                  : TD-DFT with DH, B97 family of functionals
   V. Asgeirsson, H. Jonsson                     : NEB implementation
   FAccTs GmbH                                   : IRC, NEB, NEB-TS, DLPNO-Multilevel, CI-OPT
                                                   MM, QMMM, 2- and 3-layer-ONIOM, Crystal-QMMM,
                                                   LR-CPCM, SF, NACMEs, symmetry and pop. for TD-DFT,
                                                   nearIR, NL-DFT gradient (VV10), updates on ESD,
                                                   ML-optimized integration grids
   S Lehtola, MJT Oliveira, MAL Marques          : LibXC Library
   Liviu Ungur et al                             : ANISO software


 Your calculation uses the libint2 library for the computation of 2-el integrals
 For citations please refer to: http://libint.valeyev.net

 Your ORCA version has been built with support for libXC version: 5.1.0
 For citations please refer to: https://tddft.org/programs/libxc/

 This ORCA versions uses:
   CBLAS   interface :  Fast vector & matrix operations
   LAPACKE interface :  Fast linear algebra routines
   SCALAPACK package :  Parallel linear algebra routines
   Shared memory     :  Shared parallel matrices
   BLAS/LAPACK       :  OpenBLAS 0.3.15  USE64BITINT DYNAMIC_ARCH NO_AFFINITY Haswell SINGLE_THREADED
        Core in use  :  Haswell
   Copyright (c) 2011-2014, The OpenBLAS Project




***************************************
The coordinates will be read from file: D3.xyz
***************************************


Your calculation utilizes the atom-pairwise dispersion correction
with the zero-damping scheme (D30)
Cite in your paper:
S.Grimme, J.Antony, S.Ehrlich and H.Krieg, J.Chem.Phys., 132, (2010), 154104 
   

XCFun DFT library Copyright 2009-2010 Ulf Ekstrom and contributors.
See http://admol.org/xcfun for more information.
This is free software; see the source code for copying conditions.
There is ABSOLUTELY NO WARRANTY; not even for MERCHANTABILITY or FITNESS FOR A PARTICULAR PURPOSE.
For details see the documentation.
Scientific users of this library should cite U. Ekstrom, L. Visscher, R. Bast, A. J. Thorvaldsen and K. Ruud;
J.Chem.Theor.Comp. 2010, DOI: 10.1021/ct100117s
XCFun Version 0.99 

================================================================================

----- Orbital basis set information -----
Your calculation utilizes the basis: def2-SVPD
   F. Weigend and R. Ahlrichs, Phys. Chem. Chem. Phys. 7, 3297 (2005).
   D. Rappoport and F. Furche, J. Chem. Phys. 133 134105 (2010).

----- AuxJ basis set information -----
Your calculation utilizes the auxiliary basis: def2/J
   F. Weigend, Phys. Chem. Chem. Phys. 8, 1057 (2006).

================================================================================
                                        WARNINGS
                       Please study these warnings very carefully!
================================================================================


INFO   : the flag for use of the SHARK integral package has been found!

================================================================================
                                       INPUT FILE
================================================================================
NAME = new_SVPD_D3_wb97.com
|  1> !wB97X-D3 RIJCOSX def2-SVPD def2/J TightSCF xyzfile                                                                                         
|  2> 
|  3> *xyzfile 0 1 D3.xyz
|  4> 
|  5> %MaxCore 64000
|  6> 
|  7> %pal nprocs 18                                                                                                                                                  
|  8> end  
|  9> 
| 10> %scf
| 11>   MaxIter 150
| 12> end
| 13> 
| 14> 
| 15>                          ****END OF INPUT****
================================================================================

                       ****************************
                       * Single Point Calculation *
                       ****************************

---------------------------------
CARTESIAN COORDINATES (ANGSTROEM)
---------------------------------
  C      1.364014    0.468742   -2.813764
  C      0.428844    0.321402   -1.655312
  C      0.968045    1.630639   -3.715749
  C     -0.508347    1.722679   -4.124300
  S     -1.328608    0.146737   -4.435781
  H     -0.591511    2.294958   -5.047219
  H     -1.114114    2.235610   -3.374362
  H      0.748578   -0.400542   -1.001345
  H     -0.461053    0.023332   -2.077731
  H      0.310258    1.201375   -1.134948
  O     -2.571347    0.475733   -5.068341
  O     -1.514963   -0.400512   -3.063420
  H      1.294847   -0.468742   -3.364684
  H      2.376216    0.597400   -2.431495
  H      1.578688    1.520652   -4.612733
  H      1.266653    2.575988   -3.250448
  F     -0.377928   -0.627558   -5.201141

----------------------------
CARTESIAN COORDINATES (A.U.)
----------------------------
  NO LB      ZA    FRAG     MASS         X           Y           Z
   0 C     6.0000    0    12.011    2.577613    0.885794   -5.317243
   1 C     6.0000    0    12.011    0.810397    0.607362   -3.128086
   2 C     6.0000    0    12.011    1.829340    3.081460   -7.021748
   3 C     6.0000    0    12.011   -0.960637    3.255391   -7.793797
   4 S    16.0000    0    32.060   -2.510706    0.277293   -8.382411
   5 H     1.0000    0     1.008   -1.117793    4.336842   -9.537861
   6 H     1.0000    0     1.008   -2.105370    4.224692   -6.376620
   7 H     1.0000    0     1.008    1.414607   -0.756914   -1.892268
   8 H     1.0000    0     1.008   -0.871263    0.044091   -3.926343
   9 H     1.0000    0     1.008    0.586304    2.270269   -2.144740
  10 O     8.0000    0    15.999   -4.859141    0.899004   -9.577777
  11 O     8.0000    0    15.999   -2.862865   -0.756858   -5.789025
  12 H     1.0000    0     1.008    2.446907   -0.885794   -6.358332
  13 H     1.0000    0     1.008    4.490397    1.128923   -4.594859
  14 H     1.0000    0     1.008    2.983289    2.873617   -8.716802
  15 H     1.0000    0     1.008    2.393627    4.867912   -6.142456
  16 F     9.0000    0    18.998   -0.714181   -1.185912   -9.828732

--------------------------------
INTERNAL COORDINATES (ANGSTROEM)
--------------------------------
 C      0   0   0     0.000000000000     0.00000000     0.00000000
 C      1   0   0     1.496082644153     0.00000000     0.00000000
 C      1   2   0     1.523276986165   111.78574835     0.00000000
 C      3   1   2     1.534639907758   116.96610613   312.35687673
 S      4   3   1     1.803729576901   115.53546181   322.90164793
 H      4   3   1     1.089127713397   109.30310525   203.31009572
 H      4   3   1     1.091997757689   112.27304617    84.70998257
 H      2   1   3     1.025234739163   111.61251220   185.58989743
 H      2   1   3     1.029174108930   104.54812007    67.76448551
 H      2   1   3     1.029170891533   112.29201844   307.54130561
 O      5   4   3     1.432748531584   105.66805202   192.14346639
 O      5   4   3     1.489155407372   102.64126396    74.09187164
 H      1   2   3     1.089574803285   105.49200082   240.58245163
 H      1   2   3     1.089603298998   108.70200745   122.93184163
 H      3   1   2     1.090670582737   105.33866757   191.12355848
 H      3   1   2     1.095151687265   109.63126824    76.89996065
 F      5   4   3     1.445372423700   105.09276026   316.90631317

---------------------------
INTERNAL COORDINATES (A.U.)
---------------------------
 C      0   0   0     0.000000000000     0.00000000     0.00000000
 C      1   0   0     2.827186471163     0.00000000     0.00000000
 C      1   2   0     2.878576329958   111.78574835     0.00000000
 C      3   1   2     2.900049139849   116.96610613   312.35687673
 S      4   3   1     3.408554919996   115.53546181   322.90164793
 H      4   3   1     2.058153103184   109.30310525   203.31009572
 H      4   3   1     2.063576700888   112.27304617    84.70998257
 H      2   1   3     1.937412880000   111.61251220   185.58989743
 H      2   1   3     1.944857210000   104.54812007    67.76448551
 H      2   1   3     1.944851130000   112.29201844   307.54130561
 O      5   4   3     2.707502343471   105.66805202   192.14346639
 O      5   4   3     2.814095890782   102.64126396    74.09187164
 H      1   2   3     2.058997980629   105.49200082   240.58245163
 H      1   2   3     2.059051829723   108.70200745   122.93184163
 H      3   1   2     2.061068703697   105.33866757   191.12355848
 H      3   1   2     2.069536764032   109.63126824    76.89996065
 F      5   4   3     2.731358042316   105.09276026   316.90631317

---------------------
BASIS SET INFORMATION
---------------------
There are 5 groups of distinct atoms

 Group   1 Type C   : 8s4p2d contracted to 4s2p2d pattern {5111/31/11}
 Group   2 Type S   : 11s8p2d contracted to 5s4p2d pattern {53111/5111/11}
 Group   3 Type H   : 4s2p contracted to 2s2p pattern {31/11}
 Group   4 Type O   : 8s5p2d contracted to 4s3p2d pattern {5111/311/11}
 Group   5 Type F   : 8s5p2d contracted to 4s3p2d pattern {5111/311/11}

Atom   0C    basis set group =>   1
Atom   1C    basis set group =>   1
Atom   2C    basis set group =>   1
Atom   3C    basis set group =>   1
Atom   4S    basis set group =>   2
Atom   5H    basis set group =>   3
Atom   6H    basis set group =>   3
Atom   7H    basis set group =>   3
Atom   8H    basis set group =>   3
Atom   9H    basis set group =>   3
Atom  10O    basis set group =>   4
Atom  11O    basis set group =>   4
Atom  12H    basis set group =>   3
Atom  13H    basis set group =>   3
Atom  14H    basis set group =>   3
Atom  15H    basis set group =>   3
Atom  16F    basis set group =>   5
---------------------------------
AUXILIARY/J BASIS SET INFORMATION
---------------------------------
There are 5 groups of distinct atoms

 Group   1 Type C   : 12s5p4d2f1g contracted to 6s4p3d1f1g pattern {711111/2111/211/2/1}
 Group   2 Type S   : 14s5p5d2f1g contracted to 8s4p3d1f1g pattern {71111111/2111/311/2/1}
 Group   3 Type H   : 5s2p1d contracted to 3s1p1d pattern {311/2/1}
 Group   4 Type O   : 12s5p4d2f1g contracted to 6s4p3d1f1g pattern {711111/2111/211/2/1}
 Group   5 Type F   : 12s5p4d2f1g contracted to 6s4p3d1f1g pattern {711111/2111/211/2/1}

Atom   0C    basis set group =>   1
Atom   1C    basis set group =>   1
Atom   2C    basis set group =>   1
Atom   3C    basis set group =>   1
Atom   4S    basis set group =>   2
Atom   5H    basis set group =>   3
Atom   6H    basis set group =>   3
Atom   7H    basis set group =>   3
Atom   8H    basis set group =>   3
Atom   9H    basis set group =>   3
Atom  10O    basis set group =>   4
Atom  11O    basis set group =>   4
Atom  12H    basis set group =>   3
Atom  13H    basis set group =>   3
Atom  14H    basis set group =>   3
Atom  15H    basis set group =>   3
Atom  16F    basis set group =>   5


           ************************************************************
           *        Program running with 18 parallel MPI-processes    *
           *              working on a common directory               *
           ************************************************************
------------------------------------------------------------------------------
                           ORCA GTO INTEGRAL CALCULATION
                           -- RI-GTO INTEGRALS CHOSEN --
------------------------------------------------------------------------------
------------------------------------------------------------------------------
                   ___                                                        
                  /   \      - P O W E R E D   B Y -                         
                 /     \                                                     
                 |  |  |   _    _      __       _____    __    __             
                 |  |  |  | |  | |    /  \     |  _  \  |  |  /  |          
                  \  \/   | |  | |   /    \    | | | |  |  | /  /          
                 / \  \   | |__| |  /  /\  \   | |_| |  |  |/  /          
                |  |  |   |  __  | /  /__\  \  |    /   |      \           
                |  |  |   | |  | | |   __   |  |    \   |  |\   \          
                \     /   | |  | | |  |  |  |  | |\  \  |  | \   \       
                 \___/    |_|  |_| |__|  |__|  |_| \__\ |__|  \__/        
                                                                              
                      - O R C A' S   B I G   F R I E N D -                    
                                      &                                       
                       - I N T E G R A L  F E E D E R -                       
                                                                              
 v1 FN, 2020, v2 2021                                                         
------------------------------------------------------------------------------


Reading SHARK input file new_SVPD_D3_wb97.SHARKINP.tmp ... ok
----------------------
SHARK INTEGRAL PACKAGE
----------------------

Number of atoms                             ...     17
Number of basis functions                   ...    248
Number of shells                            ...    106
Maximum angular momentum                    ...      2
Integral batch strategy                     ... SHARK/LIBINT Hybrid
RI-J (if used) integral strategy            ... SPLIT-RIJ (Revised 2003 algorithm where possible)
Printlevel                                  ...      1
Contraction scheme used                     ... SEGMENTED contraction
Coulomb Range Separation                    ... NOT USED
Exchange Range Separation                   ... Long Range
   Mu parameter                             ...  0.250000
   Scaling (regular/separated)              ...  0.195728  0.804272
Finite Nucleus Model                        ... NOT USED
Auxiliary Coulomb fitting basis             ... AVAILABLE
   # of basis functions in Aux-J            ...    493
   # of shells in Aux-J                     ...    167
   Maximum angular momentum in Aux-J        ...      4
Auxiliary J/K fitting basis                 ... NOT available
Auxiliary Correlation fitting basis         ... NOT available
Auxiliary 'external' fitting basis          ... NOT available
Integral threshold                          ...     2.500000e-11
Primitive cut-off                           ...     2.500000e-12
Primitive pair pre-selection threshold      ...     2.500000e-12

Calculating pre-screening integrals         ... done (  0.1 sec) Dimension = 106
Organizing shell pair data                  ... done (  0.1 sec)
Shell pair information
Total number of shell pairs                 ...      5671
Shell pairs after pre-screening             ...      5532
Total number of primitive shell pairs       ...     15717
Primitive shell pairs kept                  ...     12452
          la=0 lb=0:   1276 shell pairs
          la=1 lb=0:   1939 shell pairs
          la=1 lb=1:    766 shell pairs
          la=2 lb=0:    802 shell pairs
          la=2 lb=1:    615 shell pairs
          la=2 lb=2:    134 shell pairs

Calculating one electron integrals          ... done (  0.0 sec)
Calculating RI/J V-Matrix + Cholesky decomp.... done (  0.1 sec)
Calculating Nuclear repulsion               ... done (  0.0 sec) ENN=    554.866219483877 Eh

SHARK setup successfully completed in   0.3 seconds

Maximum memory used throughout the entire GTOINT-calculation: 10.9 MB


           ************************************************************
           *        Program running with 18 parallel MPI-processes    *
           *              working on a common directory               *
           ************************************************************
-------------------------------------------------------------------------------
                                 ORCA SCF
-------------------------------------------------------------------------------

------------
SCF SETTINGS
------------
Hamiltonian:
 Density Functional     Method          .... DFT(GTOs)
 Exchange Functional    Exchange        .... WB97X-D3
 Correlation Functional Correlation     .... WB97X-D3
 Gradients option       PostSCFGGA      .... off
 Hybrid DFT is turned on
   Fraction HF Exchange ScalHFX         ....  0.195728
   Scaling of DF-GGA-X  ScalDFX         ....  0.000000
   Scaling of DF-GGA-C  ScalDFC         ....  1.000000
   Scaling of DF-LDA-C  ScalLDAC        ....  1.000000
   Perturbative correction              ....  0.000000
   Density functional embedding theory  .... OFF
 Long-range corrected/Screened/Range-Separated Hybrid DFT is turned on
   Amount of maximum screened exact exchange              ....  0.804272
   Range separation parameter mu (erf(mu*r12)/r12)        ....  0.250000
 RI-approximation to the Coulomb term is turned on
   Number of AuxJ basis functions       .... 493
   RIJ-COSX (HFX calculated with COS-X)).... on


General Settings:
 Integral files         IntName         .... new_SVPD_D3_wb97
 Hartree-Fock type      HFTyp           .... RHF
 Total Charge           Charge          ....    0
 Multiplicity           Mult            ....    1
 Number of Electrons    NEL             ....   74
 Basis Dimension        Dim             ....  248
 Nuclear Repulsion      ENuc            ....    554.8662194839 Eh

Convergence Acceleration:
 DIIS                   CNVDIIS         .... on
   Start iteration      DIISMaxIt       ....    12
   Startup error        DIISStart       ....  0.200000
   # of expansion vecs  DIISMaxEq       ....     5
   Bias factor          DIISBfac        ....   1.050
   Max. coefficient     DIISMaxC        ....  10.000
 Trust-Rad. Augm. Hess. CNVTRAH         .... auto
   Auto Start mean grad. ratio tolernc. ....  1.125000
   Auto Start start iteration           ....    20
   Auto Start num. interpolation iter.  ....    10
   Max. Number of Micro iterations      ....    16
   Max. Number of Macro iterations      .... Maxiter - #DIIS iter
   Number of Davidson start vectors     ....     2
   Converg. threshold I  (grad. norm)   ....   1.000e-05
   Converg. threshold II (energy diff.) ....   1.000e-08
   Grad. Scal. Fac. for Micro threshold ....   0.100
   Minimum threshold for Micro iter.    ....   0.010
   NR start threshold (gradient norm)   ....   0.001
   Initial trust radius                 ....   0.400
   Minimum AH scaling param. (alpha)    ....   1.000
   Maximum AH scaling param. (alpha)    .... 1000.000
   Orbital update algorithm             .... Taylor
   White noise on init. David. guess    .... on
   Maximum white noise                  ....   0.010
   Quad. conv. algorithm                .... NR
 SOSCF                  CNVSOSCF        .... on
   Start iteration      SOSCFMaxIt      ....   150
   Startup grad/error   SOSCFStart      ....  0.003300
 Level Shifting         CNVShift        .... on
   Level shift para.    LevelShift      ....    0.2500
   Turn off err/grad.   ShiftErr        ....    0.0010
 Zerner damping         CNVZerner       .... off
 Static damping         CNVDamp         .... on
   Fraction old density DampFac         ....    0.7000
   Max. Damping (<1)    DampMax         ....    0.9800
   Min. Damping (>=0)   DampMin         ....    0.0000
   Turn off err/grad.   DampErr         ....    0.1000
 Fernandez-Rico         CNVRico         .... off

SCF Procedure:
 Maximum # iterations   MaxIter         ....   150
 SCF integral mode      SCFMode         .... Direct
   Integral package                     .... SHARK and LIBINT hybrid scheme
 Reset frequency        DirectResetFreq ....    20
 Integral Threshold     Thresh          ....  2.500e-11 Eh
 Primitive CutOff       TCut            ....  2.500e-12 Eh

Convergence Tolerance:
 Convergence Check Mode ConvCheckMode   .... Total+1el-Energy
 Convergence forced     ConvForced      .... 0
 Energy Change          TolE            ....  1.000e-08 Eh
 1-El. energy change                    ....  1.000e-05 Eh
 Orbital Gradient       TolG            ....  1.000e-05
 Orbital Rotation angle TolX            ....  1.000e-05
 DIIS Error             TolErr          ....  5.000e-07


Diagonalization of the overlap matrix:
Smallest eigenvalue                        ... 4.628e-05
Time for diagonalization                   ...    0.017 sec
Threshold for overlap eigenvalues          ... 1.000e-08
Number of eigenvalues below threshold      ... 0
Time for construction of square roots      ...    0.026 sec
Total time needed                          ...    0.045 sec

Time for model grid setup =    0.146 sec

------------------------------
INITIAL GUESS: MODEL POTENTIAL
------------------------------
Loading Hartree-Fock densities                     ... done
Calculating cut-offs                               ... done
Initializing the effective Hamiltonian             ... done
Setting up the integral package (SHARK)            ... done
Starting the Coulomb interaction                   ... done (   0.0 sec)
Reading the grid                                   ... done
Mapping shells                                     ... done
Starting the XC term evaluation                    ... done (   0.1 sec)
  promolecular density results
     # of electrons  =     73.993783269
     EX              =    -74.542479968
     EC              =     -2.609264442
     EX+EC           =    -77.151744410
Transforming the Hamiltonian                       ... done (   0.0 sec)
Diagonalizing the Hamiltonian                      ... done (   0.0 sec)
Back transforming the eigenvectors                 ... done (   0.0 sec)
Now organizing SCF variables                       ... done
                      ------------------
                      INITIAL GUESS DONE (   0.3 sec)
                      ------------------
-------------------
DFT GRID GENERATION
-------------------

General Integration Accuracy     IntAcc      ... 4.388
Radial Grid Type                 RadialGrid  ... OptM3 with GC (2021)
Angular Grid (max. ang.)         AngularGrid ... 4 (Lebedev-302)
Angular grid pruning method      GridPruning ... 4 (adaptive)
Weight generation scheme         WeightScheme... Becke
Basis function cutoff            BFCut       ... 1.0000e-11
Integration weight cutoff        WCut        ... 1.0000e-14
Angular grids for H and He will be reduced by one unit
Partially contracted basis set               ... off
Rotationally invariant grid construction     ... off

Total number of grid points                  ...    80938
Total number of batches                      ...     1275
Average number of points per batch           ...       63
Average number of grid points per atom       ...     4761
Time for grid setup =    0.674 sec

--------------------
COSX GRID GENERATION
--------------------

GRIDX 1
-------
General Integration Accuracy     IntAcc      ... 3.816
Radial Grid Type                 RadialGrid  ... OptM3 with GC (2021)
Angular Grid (max. ang.)         AngularGrid ... 1 (Lebedev-50)
Angular grid pruning method      GridPruning ... 4 (adaptive)
Weight generation scheme         WeightScheme... Becke
Basis function cutoff            BFCut       ... 1.0000e-11
Integration weight cutoff        WCut        ... 1.0000e-14
Angular grids for H and He will be reduced by one unit
Partially contracted basis set               ... on
Rotationally invariant grid construction     ... off

Total number of grid points                  ...    10058
Total number of batches                      ...      168
Average number of points per batch           ...       59
Average number of grid points per atom       ...      592
UseSFitting                                  ... on

GRIDX 2
-------
General Integration Accuracy     IntAcc      ... 4.020
Radial Grid Type                 RadialGrid  ... OptM3 with GC (2021)
Angular Grid (max. ang.)         AngularGrid ... 2 (Lebedev-110)
Angular grid pruning method      GridPruning ... 4 (adaptive)
Weight generation scheme         WeightScheme... Becke
Basis function cutoff            BFCut       ... 1.0000e-11
Integration weight cutoff        WCut        ... 1.0000e-14
Angular grids for H and He will be reduced by one unit
Partially contracted basis set               ... on
Rotationally invariant grid construction     ... off

Total number of grid points                  ...    23205
Total number of batches                      ...      372
Average number of points per batch           ...       62
Average number of grid points per atom       ...     1365
UseSFitting                                  ... on

GRIDX 3
-------
General Integration Accuracy     IntAcc      ... 4.338
Radial Grid Type                 RadialGrid  ... OptM3 with GC (2021)
Angular Grid (max. ang.)         AngularGrid ... 3 (Lebedev-194)
Angular grid pruning method      GridPruning ... 4 (adaptive)
Weight generation scheme         WeightScheme... Becke
Basis function cutoff            BFCut       ... 1.0000e-11
Integration weight cutoff        WCut        ... 1.0000e-14
Angular grids for H and He will be reduced by one unit
Partially contracted basis set               ... on
Rotationally invariant grid construction     ... off

Total number of grid points                  ...    52608
Total number of batches                      ...      831
Average number of points per batch           ...       63
Average number of grid points per atom       ...     3095
UseSFitting                                  ... on

Time for X-Grid setup             =    0.687 sec

--------------
SCF ITERATIONS
--------------
ITER       Energy         Delta-E        Max-DP      RMS-DP      [F,P]     Damp
               ***  Starting incremental Fock matrix formation  ***
  0   -805.2714910568   0.000000000000 0.66925924  0.00514753  0.2607264 0.7000
  1   -805.4524933888  -0.181002332047 0.41764165  0.00323899  0.1249835 0.7000
                               ***Turning on DIIS***
  2   -805.5292892888  -0.076795899956 0.76759273  0.00587578  0.0653558 0.0000
  3   -805.6568688924  -0.127579603646 0.23590541  0.00204606  0.0594134 0.0000
  4   -805.6785703494  -0.021701457003 0.07834790  0.00059025  0.0107109 0.0000
  5   -805.6793139143  -0.000743564856 0.00479938  0.00011461  0.0041771 0.0000
                      *** Initiating the SOSCF procedure ***
                           *** Shutting down DIIS ***
                      *** Re-Reading the Fockian *** 
                      *** Removing any level shift *** 
ITER      Energy       Delta-E        Grad      Rot      Max-DP    RMS-DP
  6   -805.67938284  -0.0000689236  0.000257  0.000257  0.001889  0.000056
               *** Restarting incremental Fock matrix formation ***
  7   -805.67934927   0.0000335681  0.000113  0.000142  0.004546  0.000067
  8   -805.67934976  -0.0000004951  0.000125  0.000055  0.000539  0.000015
  9   -805.67935051  -0.0000007418  0.000017  0.000034  0.000707  0.000007
 10   -805.67935051  -0.0000000059  0.000009  0.000007  0.000050  0.000001
                  ***Gradient check signals convergence***
              ***Rediagonalizing the Fockian in SOSCF/NRSCF***

               *****************************************************
               *                     SUCCESS                       *
               *           SCF CONVERGED AFTER  11 CYCLES          *
               *****************************************************

Old exchange energy                            =    -22.806242854 Eh
New exchange energy                            =    -22.806227633 Eh
Exchange energy change after final integration =      0.000015221 Eh
Total energy after final integration           =   -805.679335304 Eh
Final COS-X integration done in                =     4.290 sec

----------------
TOTAL SCF ENERGY
----------------

Total Energy       :         -805.67933530 Eh          -21923.64929 eV

Components:
Nuclear Repulsion  :          554.86621948 Eh           15098.67743 eV
Electronic Energy  :        -1360.54555479 Eh          -37022.32672 eV
One Electron Energy:        -2207.27680843 Eh          -60063.05550 eV
Two Electron Energy:          846.73125364 Eh           23040.72878 eV
Max COSX asymmetry :            0.00000620 Eh               0.00017 eV

Virial components:
Potential Energy   :        -1607.10199905 Eh          -43731.46866 eV
Kinetic Energy     :          801.42266374 Eh           21807.81937 eV
Virial Ratio       :            2.00531139


DFT components:
N(Alpha)           :       37.000018940205 electrons
N(Beta)            :       37.000018940205 electrons
N(Total)           :       74.000037880411 electrons
E(XC)              :      -55.715216003912 Eh       
DFET-embed. en.    :        0.000000000000 Eh       

---------------
SCF CONVERGENCE
---------------

  Last Energy change         ...   -1.2650e-08  Tolerance :   1.0000e-08
  Last MAX-Density change    ...    2.6645e-15  Tolerance :   1.0000e-07
  Last RMS-Density change    ...    3.9274e-17  Tolerance :   5.0000e-09
  Last Orbital Gradient      ...    2.2346e-06  Tolerance :   1.0000e-05
  Last Orbital Rotation      ...    2.3096e-06  Tolerance :   1.0000e-05

             **** THE GBW FILE WAS UPDATED (new_SVPD_D3_wb97.gbw) ****
             **** DENSITY new_SVPD_D3_wb97.scfp WAS UPDATED ****
             **** ENERGY FILE WAS UPDATED (new_SVPD_D3_wb97.en.tmp) ****
             **** THE GBW FILE WAS UPDATED (new_SVPD_D3_wb97.gbw) ****
             **** DENSITY new_SVPD_D3_wb97.scfp WAS UPDATED ****
----------------
ORBITAL ENERGIES
----------------

  NO   OCC          E(Eh)            E(eV) 
   0   2.0000     -89.244678     -2428.4712 
   1   2.0000     -24.928802      -678.3472 
   2   2.0000     -19.270773      -524.3844 
   3   2.0000     -19.252000      -523.8735 
   4   2.0000     -10.354246      -281.7534 
   5   2.0000     -10.317767      -280.7607 
   6   2.0000     -10.288540      -279.9654 
   7   2.0000     -10.221817      -278.1498 
   8   2.0000      -8.318601      -226.3606 
   9   2.0000      -6.282418      -170.9533 
  10   2.0000      -6.276046      -170.7799 
  11   2.0000      -6.274341      -170.7335 
  12   2.0000      -1.500276       -40.8246 
  13   2.0000      -1.238401       -33.6986 
  14   2.0000      -1.133839       -30.8533 
  15   2.0000      -0.952531       -25.9197 
  16   2.0000      -0.887696       -24.1554 
  17   2.0000      -0.836653       -22.7665 
  18   2.0000      -0.791716       -21.5437 
  19   2.0000      -0.725759       -19.7489 
  20   2.0000      -0.704505       -19.1706 
  21   2.0000      -0.693838       -18.8803 
  22   2.0000      -0.651648       -17.7322 
  23   2.0000      -0.608475       -16.5574 
  24   2.0000      -0.602068       -16.3831 
  25   2.0000      -0.576347       -15.6832 
  26   2.0000      -0.563545       -15.3348 
  27   2.0000      -0.530070       -14.4240 
  28   2.0000      -0.512932       -13.9576 
  29   2.0000      -0.498028       -13.5520 
  30   2.0000      -0.492537       -13.4026 
  31   2.0000      -0.466528       -12.6949 
  32   2.0000      -0.442809       -12.0494 
  33   2.0000      -0.429999       -11.7009 
  34   2.0000      -0.428145       -11.6504 
  35   2.0000      -0.417333       -11.3562 
  36   2.0000      -0.366911        -9.9842 
  37   0.0000       0.061741         1.6800 
  38   0.0000       0.085420         2.3244 
  39   0.0000       0.092484         2.5166 
  40   0.0000       0.099539         2.7086 
  41   0.0000       0.115078         3.1314 
  42   0.0000       0.120569         3.2808 
  43   0.0000       0.131253         3.5716 
  44   0.0000       0.138479         3.7682 
  45   0.0000       0.141936         3.8623 
  46   0.0000       0.149343         4.0638 
  47   0.0000       0.155419         4.2292 
  48   0.0000       0.174202         4.7403 
  49   0.0000       0.183737         4.9997 
  50   0.0000       0.193997         5.2789 
  51   0.0000       0.200096         5.4449 
  52   0.0000       0.207897         5.6572 
  53   0.0000       0.209311         5.6956 
  54   0.0000       0.214302         5.8315 
  55   0.0000       0.226952         6.1757 
  56   0.0000       0.232902         6.3376 
  57   0.0000       0.246339         6.7032 
  58   0.0000       0.253633         6.9017 
  59   0.0000       0.257875         7.0171 
  60   0.0000       0.264291         7.1917 
  61   0.0000       0.270876         7.3709 
  62   0.0000       0.281389         7.6570 
  63   0.0000       0.285942         7.7809 
  64   0.0000       0.299039         8.1373 
  65   0.0000       0.309886         8.4324 
  66   0.0000       0.313446         8.5293 
  67   0.0000       0.322251         8.7689 
  68   0.0000       0.327336         8.9073 
  69   0.0000       0.332449         9.0464 
  70   0.0000       0.337494         9.1837 
  71   0.0000       0.348790         9.4911 
  72   0.0000       0.355565         9.6754 
  73   0.0000       0.367853        10.0098 
  74   0.0000       0.371112        10.0985 
  75   0.0000       0.378636        10.3032 
  76   0.0000       0.390779        10.6336 
  77   0.0000       0.397908        10.8276 
  78   0.0000       0.405092        11.0231 
  79   0.0000       0.409686        11.1481 
  80   0.0000       0.421293        11.4640 
  81   0.0000       0.424001        11.5376 
  82   0.0000       0.431221        11.7341 
  83   0.0000       0.437530        11.9058 
  84   0.0000       0.451840        12.2952 
  85   0.0000       0.453907        12.3514 
  86   0.0000       0.457502        12.4492 
  87   0.0000       0.464604        12.6425 
  88   0.0000       0.471202        12.8221 
  89   0.0000       0.474127        12.9016 
  90   0.0000       0.485353        13.2071 
  91   0.0000       0.489718        13.3259 
  92   0.0000       0.502301        13.6683 
  93   0.0000       0.509714        13.8700 
  94   0.0000       0.512271        13.9396 
  95   0.0000       0.518220        14.1015 
  96   0.0000       0.533579        14.5194 
  97   0.0000       0.536994        14.6123 
  98   0.0000       0.548229        14.9181 
  99   0.0000       0.554285        15.0828 
 100   0.0000       0.556991        15.1565 
 101   0.0000       0.570957        15.5365 
 102   0.0000       0.574491        15.6327 
 103   0.0000       0.576049        15.6751 
 104   0.0000       0.584147        15.8954 
 105   0.0000       0.589170        16.0321 
 106   0.0000       0.598592        16.2885 
 107   0.0000       0.603848        16.4315 
 108   0.0000       0.614381        16.7182 
 109   0.0000       0.619623        16.8608 
 110   0.0000       0.627789        17.0830 
 111   0.0000       0.639953        17.4140 
 112   0.0000       0.641962        17.4687 
 113   0.0000       0.654447        17.8084 
 114   0.0000       0.662841        18.0368 
 115   0.0000       0.666571        18.1383 
 116   0.0000       0.680338        18.5129 
 117   0.0000       0.681350        18.5405 
 118   0.0000       0.689727        18.7684 
 119   0.0000       0.700221        19.0540 
 120   0.0000       0.709421        19.3043 
 121   0.0000       0.734940        19.9987 
 122   0.0000       0.741611        20.1803 
 123   0.0000       0.743686        20.2367 
 124   0.0000       0.751176        20.4405 
 125   0.0000       0.770028        20.9535 
 126   0.0000       0.775388        21.0994 
 127   0.0000       0.794659        21.6238 
 128   0.0000       0.804424        21.8895 
 129   0.0000       0.808307        21.9951 
 130   0.0000       0.821536        22.3551 
 131   0.0000       0.835844        22.7445 
 132   0.0000       0.852150        23.1882 
 133   0.0000       0.876102        23.8400 
 134   0.0000       0.889552        24.2060 
 135   0.0000       0.912193        24.8220 
 136   0.0000       0.920847        25.0575 
 137   0.0000       0.928624        25.2691 
 138   0.0000       0.985066        26.8050 
 139   0.0000       0.995726        27.0951 
 140   0.0000       1.025708        27.9109 
 141   0.0000       1.048460        28.5301 
 142   0.0000       1.055485        28.7212 
 143   0.0000       1.067353        29.0441 
 144   0.0000       1.082907        29.4674 
 145   0.0000       1.085378        29.5346 
 146   0.0000       1.097433        29.8627 
 147   0.0000       1.106331        30.1048 
 148   0.0000       1.122563        30.5465 
 149   0.0000       1.126601        30.6564 
 150   0.0000       1.136610        30.9287 
 151   0.0000       1.140165        31.0255 
 152   0.0000       1.154245        31.4086 
 153   0.0000       1.162443        31.6317 
 154   0.0000       1.183316        32.1997 
 155   0.0000       1.190300        32.3897 
 156   0.0000       1.199493        32.6399 
 157   0.0000       1.233232        33.5580 
 158   0.0000       1.244177        33.8558 
 159   0.0000       1.257947        34.2305 
 160   0.0000       1.279416        34.8147 
 161   0.0000       1.290781        35.1239 
 162   0.0000       1.314070        35.7577 
 163   0.0000       1.336770        36.3754 
 164   0.0000       1.359073        36.9823 
 165   0.0000       1.371799        37.3285 
 166   0.0000       1.399144        38.0726 
 167   0.0000       1.440133        39.1880 
 168   0.0000       1.455808        39.6145 
 169   0.0000       1.470309        40.0092 
 170   0.0000       1.489467        40.5305 
 171   0.0000       1.548748        42.1436 
 172   0.0000       1.562925        42.5294 
 173   0.0000       1.604151        43.6512 
 174   0.0000       1.617282        44.0085 
 175   0.0000       1.658302        45.1247 
 176   0.0000       1.671048        45.4715 
 177   0.0000       1.701264        46.2937 
 178   0.0000       1.713357        46.6228 
 179   0.0000       1.754407        47.7398 
 180   0.0000       1.772470        48.2314 
 181   0.0000       1.780590        48.4523 
 182   0.0000       1.798250        48.9329 
 183   0.0000       1.823961        49.6325 
 184   0.0000       1.841281        50.1038 
 185   0.0000       1.849459        50.3263 
 186   0.0000       1.868227        50.8370 
 187   0.0000       1.904585        51.8264 
 188   0.0000       1.925046        52.3832 
 189   0.0000       1.928939        52.4891 
 190   0.0000       1.962188        53.3938 
 191   0.0000       1.994914        54.2844 
 192   0.0000       2.006982        54.6128 
 193   0.0000       2.014925        54.8289 
 194   0.0000       2.034070        55.3499 
 195   0.0000       2.068878        56.2970 
 196   0.0000       2.092497        56.9397 
 197   0.0000       2.098859        57.1129 
 198   0.0000       2.115633        57.5693 
 199   0.0000       2.161940        58.8294 
 200   0.0000       2.170886        59.0728 
 201   0.0000       2.195494        59.7424 
 202   0.0000       2.211949        60.1902 
 203   0.0000       2.229807        60.6761 
 204   0.0000       2.281907        62.0939 
 205   0.0000       2.299780        62.5802 
 206   0.0000       2.319520        63.1173 
 207   0.0000       2.352045        64.0024 
 208   0.0000       2.384635        64.8892 
 209   0.0000       2.413582        65.6769 
 210   0.0000       2.426913        66.0397 
 211   0.0000       2.465377        67.0863 
 212   0.0000       2.473773        67.3148 
 213   0.0000       2.562900        69.7401 
 214   0.0000       2.573576        70.0306 
 215   0.0000       2.608093        70.9698 
 216   0.0000       2.663023        72.4645 
 217   0.0000       2.679904        72.9239 
 218   0.0000       2.735651        74.4409 
 219   0.0000       2.754573        74.9557 
 220   0.0000       2.802717        76.2658 
 221   0.0000       2.841567        77.3230 
 222   0.0000       2.897458        78.8438 
 223   0.0000       2.942795        80.0775 
 224   0.0000       2.952710        80.3473 
 225   0.0000       2.957231        80.4704 
 226   0.0000       2.975330        80.9629 
 227   0.0000       2.984705        81.2180 
 228   0.0000       3.019947        82.1769 
 229   0.0000       3.040897        82.7470 
 230   0.0000       3.048122        82.9436 
 231   0.0000       3.082671        83.8838 
 232   0.0000       3.122767        84.9748 
 233   0.0000       3.140567        85.4592 
 234   0.0000       3.220587        87.6366 
 235   0.0000       3.232430        87.9589 
 236   0.0000       3.262003        88.7636 
 237   0.0000       3.278248        89.2057 
 238   0.0000       3.323264        90.4306 
 239   0.0000       3.374155        91.8154 
 240   0.0000       3.409247        92.7703 
 241   0.0000       3.417414        92.9926 
 242   0.0000       3.435234        93.4775 
 243   0.0000       3.448800        93.8466 
 244   0.0000       3.455927        94.0406 
 245   0.0000       3.654081        99.4326 
 246   0.0000       3.786977       103.0489 
 247   0.0000       3.856979       104.9537 

                    ********************************
                    * MULLIKEN POPULATION ANALYSIS *
                    ********************************

-----------------------
MULLIKEN ATOMIC CHARGES
-----------------------
   0 C :   -0.366981
   1 C :    1.965172
   2 C :    0.229214
   3 C :    0.007140
   4 S :    1.574212
   5 H :   -0.161480
   6 H :    0.248379
   7 H :   -0.091092
   8 H :   -1.138421
   9 H :   -0.131533
  10 O :   -0.697271
  11 O :   -0.835284
  12 H :    0.056451
  13 H :   -0.286576
  14 H :    0.025716
  15 H :    0.011037
  16 F :   -0.408682
Sum of atomic charges:   -0.0000000

--------------------------------
MULLIKEN REDUCED ORBITAL CHARGES
--------------------------------
  0 C s       :     2.868327  s :     2.868327
      pz      :     1.005318  p :     2.930044
      px      :     0.969509
      py      :     0.955217
      dz2     :     0.246236  d :     0.568609
      dxz     :     0.064043
      dyz     :     0.120175
      dx2y2   :     0.091268
      dxy     :     0.046887
  1 C s       :     1.301666  s :     1.301666
      pz      :     0.912841  p :     2.602295
      px      :     0.905752
      py      :     0.783701
      dz2     :     0.044054  d :     0.130868
      dxz     :     0.029207
      dyz     :     0.022056
      dx2y2   :     0.032471
      dxy     :     0.003079
  2 C s       :     2.660896  s :     2.660896
      pz      :     0.896044  p :     2.777705
      px      :     0.889768
      py      :     0.991893
      dz2     :     0.041316  d :     0.332186
      dxz     :     0.171967
      dyz     :     0.000392
      dx2y2   :     0.089171
      dxy     :     0.029339
  3 C s       :     2.790698  s :     2.790698
      pz      :     0.973030  p :     2.944008
      px      :     1.081224
      py      :     0.889753
      dz2     :     0.020271  d :     0.258154
      dxz     :     0.092688
      dyz     :     0.000957
      dx2y2   :     0.082169
      dxy     :     0.062069
  4 S s       :     4.952331  s :     4.952331
      pz      :     2.812955  p :     8.679064
      px      :     2.844370
      py      :     3.021739
      dz2     :     0.176781  d :     0.794393
      dxz     :     0.162987
      dyz     :     0.140647
      dx2y2   :     0.120651
      dxy     :     0.193327
  5 H s       :     1.103607  s :     1.103607
      pz      :     0.045677  p :     0.057873
      px      :    -0.011088
      py      :     0.023284
  6 H s       :     0.735743  s :     0.735743
      pz      :    -0.003111  p :     0.015879
      px      :     0.008381
      py      :     0.010609
  7 H s       :     1.146533  s :     1.146533
      pz      :    -0.009910  p :    -0.055441
      px      :    -0.009546
      py      :    -0.035985
  8 H s       :     1.694891  s :     1.694891
      pz      :     0.163713  p :     0.443530
      px      :     0.195977
      py      :     0.083841
  9 H s       :     1.167199  s :     1.167199
      pz      :    -0.016303  p :    -0.035665
      px      :    -0.015781
      py      :    -0.003581
 10 O s       :     3.949123  s :     3.949123
      pz      :     1.695968  p :     4.721775
      px      :     1.320848
      py      :     1.704959
      dz2     :     0.003898  d :     0.026372
      dxz     :     0.004392
      dyz     :     0.000865
      dx2y2   :     0.005242
      dxy     :     0.011975
 11 O s       :     4.057109  s :     4.057109
      pz      :     1.259988  p :     4.774850
      px      :     1.776682
      py      :     1.738179
      dz2     :     0.015439  d :     0.003325
      dxz     :    -0.005374
      dyz     :    -0.007562
      dx2y2   :     0.003612
      dxy     :    -0.002790
 12 H s       :     0.964609  s :     0.964609
      pz      :    -0.018029  p :    -0.021060
      px      :    -0.029410
      py      :     0.026379
 13 H s       :     1.275247  s :     1.275247
      pz      :    -0.017191  p :     0.011329
      px      :     0.051146
      py      :    -0.022627
 14 H s       :     0.966034  s :     0.966034
      pz      :     0.023719  p :     0.008250
      px      :     0.015127
      py      :    -0.030596
 15 H s       :     0.983791  s :     0.983791
      pz      :    -0.010298  p :     0.005172
      px      :    -0.022196
      py      :     0.037666
 16 F s       :     3.951704  s :     3.951704
      pz      :     1.839297  p :     5.439481
      px      :     1.765235
      py      :     1.834949
      dz2     :     0.001051  d :     0.017497
      dxz     :     0.004844
      dyz     :     0.002458
      dx2y2   :     0.004943
      dxy     :     0.004202


                     *******************************
                     * LOEWDIN POPULATION ANALYSIS *
                     *******************************

----------------------
LOEWDIN ATOMIC CHARGES
----------------------
   0 C :   -0.055314
   1 C :    0.136566
   2 C :   -0.034275
   3 C :   -0.022520
   4 S :    1.175912
   5 H :    0.019497
   6 H :    0.042407
   7 H :   -0.020696
   8 H :   -0.177189
   9 H :   -0.018373
  10 O :   -0.449196
  11 O :   -0.449926
  12 H :    0.014906
  13 H :    0.025201
  14 H :    0.022579
  15 H :    0.036521
  16 F :   -0.246100

-------------------------------
LOEWDIN REDUCED ORBITAL CHARGES
-------------------------------
  0 C s       :     2.667085  s :     2.667085
      pz      :     0.904396  p :     2.708105
      px      :     0.915151
      py      :     0.888558
      dz2     :     0.151611  d :     0.680123
      dxz     :     0.121368
      dyz     :     0.175543
      dx2y2   :     0.159740
      dxy     :     0.071860
  1 C s       :     2.647533  s :     2.647533
      pz      :     0.902923  p :     2.763902
      px      :     0.936352
      py      :     0.924627
      dz2     :     0.077553  d :     0.451998
      dxz     :     0.110495
      dyz     :     0.129954
      dx2y2   :     0.084896
      dxy     :     0.049100
  2 C s       :     2.674546  s :     2.674546
      pz      :     0.915459  p :     2.704622
      px      :     0.867952
      py      :     0.921211
      dz2     :     0.107318  d :     0.655106
      dxz     :     0.168658
      dyz     :     0.095961
      dx2y2   :     0.159177
      dxy     :     0.123992
  3 C s       :     2.709163  s :     2.709163
      pz      :     0.950219  p :     2.720838
      px      :     0.932713
      py      :     0.837906
      dz2     :     0.075865  d :     0.592520
      dxz     :     0.132809
      dyz     :     0.099199
      dx2y2   :     0.135018
      dxy     :     0.149628
  4 S s       :     4.654860  s :     4.654860
      pz      :     2.771910  p :     8.356747
      px      :     2.789722
      py      :     2.795115
      dz2     :     0.379071  d :     1.812481
      dxz     :     0.405073
      dyz     :     0.331226
      dx2y2   :     0.305710
      dxy     :     0.391401
  5 H s       :     0.721125  s :     0.721125
      pz      :     0.112898  p :     0.259378
      px      :     0.066935
      py      :     0.079544
  6 H s       :     0.705383  s :     0.705383
      pz      :     0.100850  p :     0.252209
      px      :     0.077516
      py      :     0.073844
  7 H s       :     0.745494  s :     0.745494
      pz      :     0.089717  p :     0.275202
      px      :     0.078258
      py      :     0.107227
  8 H s       :     0.654479  s :     0.654479
      pz      :     0.172202  p :     0.522710
      px      :     0.227007
      py      :     0.123500
  9 H s       :     0.743945  s :     0.743945
      pz      :     0.081699  p :     0.274429
      px      :     0.073255
      py      :     0.119474
 10 O s       :     3.557932  s :     3.557932
      pz      :     1.612722  p :     4.651712
      px      :     1.443640
      py      :     1.595351
      dz2     :     0.040869  d :     0.239551
      dxz     :     0.062583
      dyz     :     0.024366
      dx2y2   :     0.053757
      dxy     :     0.057976
 11 O s       :     3.512143  s :     3.512143
      pz      :     1.351758  p :     4.621184
      px      :     1.642157
      py      :     1.627270
      dz2     :     0.080145  d :     0.316599
      dxz     :     0.108018
      dyz     :     0.075784
      dx2y2   :     0.025266
      dxy     :     0.027387
 12 H s       :     0.716118  s :     0.716118
      pz      :     0.086919  p :     0.268975
      px      :     0.079020
      py      :     0.103036
 13 H s       :     0.733852  s :     0.733852
      pz      :     0.067841  p :     0.240947
      px      :     0.111019
      py      :     0.062087
 14 H s       :     0.724686  s :     0.724686
      pz      :     0.106374  p :     0.252735
      px      :     0.077183
      py      :     0.069177
 15 H s       :     0.720804  s :     0.720804
      pz      :     0.076962  p :     0.242675
      px      :     0.063310
      py      :     0.102403
 16 F s       :     3.692765  s :     3.692765
      pz      :     1.790006  p :     5.316260
      px      :     1.741075
      py      :     1.785179
      dz2     :     0.044772  d :     0.237075
      dxz     :     0.053502
      dyz     :     0.039297
      dx2y2   :     0.050601
      dxy     :     0.048903


                      *****************************
                      * MAYER POPULATION ANALYSIS *
                      *****************************

  NA   - Mulliken gross atomic population
  ZA   - Total nuclear charge
  QA   - Mulliken gross atomic charge
  VA   - Mayer's total valence
  BVA  - Mayer's bonded valence
  FA   - Mayer's free valence

  ATOM       NA         ZA         QA         VA         BVA        FA
  0 C      6.3670     6.0000    -0.3670     5.4225     5.4225    -0.0000
  1 C      4.0348     6.0000     1.9652     1.2399     1.2399     0.0000
  2 C      5.7708     6.0000     0.2292     4.4626     4.4626    -0.0000
  3 C      5.9929     6.0000     0.0071     4.4896     4.4896    -0.0000
  4 S     14.4258    16.0000     1.5742     4.7050     4.7050     0.0000
  5 H      1.1615     1.0000    -0.1615     1.1946     1.1946     0.0000
  6 H      0.7516     1.0000     0.2484     0.9176     0.9176     0.0000
  7 H      1.0911     1.0000    -0.0911     0.7431     0.7431    -0.0000
  8 H      2.1384     1.0000    -1.1384     0.9485     0.9485    -0.0000
  9 H      1.1315     1.0000    -0.1315     0.8436     0.8436     0.0000
 10 O      8.6973     8.0000    -0.6973     1.7130     1.7130     0.0000
 11 O      8.8353     8.0000    -0.8353     1.7959     1.7959    -0.0000
 12 H      0.9435     1.0000     0.0565     0.8937     0.8937     0.0000
 13 H      1.2866     1.0000    -0.2866     1.0718     1.0718    -0.0000
 14 H      0.9743     1.0000     0.0257     1.0443     1.0443    -0.0000
 15 H      0.9890     1.0000     0.0110     0.9920     0.9920    -0.0000
 16 F      9.4087     9.0000    -0.4087     0.7641     0.7641    -0.0000

  Mayer bond orders larger than 0.100000
B(  0-C ,  1-C ) :   0.9842 B(  0-C ,  2-C ) :   1.1783 B(  0-C ,  7-H ) :   0.2187 
B(  0-C ,  8-H ) :   0.5221 B(  0-C ,  9-H ) :   0.2735 B(  0-C , 12-H ) :   0.8345 
B(  0-C , 13-H ) :   1.0031 B(  0-C , 14-H ) :   0.1374 B(  0-C , 15-H ) :   0.1567 
B(  1-C ,  7-H ) :   0.5095 B(  1-C ,  8-H ) :  -0.5426 B(  1-C ,  9-H ) :   0.2573 
B(  1-C , 11-O ) :  -0.1660 B(  1-C , 12-H ) :   0.1269 B(  2-C ,  3-C ) :   1.2561 
B(  2-C ,  5-H ) :   0.1802 B(  2-C , 12-H ) :   0.1309 B(  2-C , 14-H ) :   0.8506 
B(  2-C , 15-H ) :   0.7974 B(  3-C ,  4-S ) :   0.9866 B(  3-C ,  5-H ) :   0.9424 
B(  3-C ,  6-H ) :   0.8501 B(  3-C ,  8-H ) :   0.1170 B(  3-C , 11-O ) :   0.1269 
B(  3-C , 14-H ) :   0.1226 B(  4-S ,  8-H ) :  -0.1357 B(  4-S , 10-O ) :   1.5965 
B(  4-S , 11-O ) :   1.4042 B(  4-S , 16-F ) :   0.6502 B(  7-H ,  8-H ) :   0.2762 
B(  7-H ,  9-H ) :  -0.1836 B(  8-H ,  9-H ) :   0.5241 B(  8-H , 11-O ) :   0.2828 


-------
TIMINGS
-------

Total SCF time: 0 days 0 hours 0 min 29 sec 

Total time                  ....      29.139 sec
Sum of individual times     ....      28.665 sec  ( 98.4%)

Fock matrix formation       ....      26.463 sec  ( 90.8%)
  Split-RI-J                ....       1.996 sec  (  7.5% of F)
  Chain of spheres X        ....      20.947 sec  ( 79.2% of F)
  XC integration            ....       3.335 sec  ( 12.6% of F)
    Basis function eval.    ....       0.817 sec  ( 24.5% of XC)
    Density eval.           ....       0.853 sec  ( 25.6% of XC)
    XC-Functional eval.     ....       0.162 sec  (  4.9% of XC)
    XC-Potential eval.      ....       0.933 sec  ( 28.0% of XC)
Diagonalization             ....       0.184 sec  (  0.6%)
Density matrix formation    ....       0.029 sec  (  0.1%)
Population analysis         ....       0.027 sec  (  0.1%)
Initial guess               ....       0.153 sec  (  0.5%)
Orbital Transformation      ....       0.000 sec  (  0.0%)
Orbital Orthonormalization  ....       0.000 sec  (  0.0%)
DIIS solution               ....       0.131 sec  (  0.4%)
SOSCF solution              ....       0.172 sec  (  0.6%)
Grid generation             ....       1.507 sec  (  5.2%)

Maximum memory used throughout the entire SCF-calculation: 58.9 MB


-------------------------------------------------------------------------------
                          DFT DISPERSION CORRECTION                            
                                                                               
                              DFTD3 V3.1  Rev 1                                
                              USING zero damping                               
-------------------------------------------------------------------------------
The omegaB97X-D3 functional is recognized. Fit by Chai et al.
Active option DFTDOPT                   ...         3   

molecular C6(AA) [au] = 2866.760423 


            DFT-D V3
 parameters
 s6 scaling factor         :     1.0000 
 rs6 scaling factor        :     1.2810 
 s8 scaling factor         :     1.0000 
 rs8 scaling factor        :     1.0940 
 Damping factor alpha6     :    14.0000 
 Damping factor alpha8     :    16.0000 
 ad hoc parameters k1-k3   :    16.0000     1.3333    -4.0000 

 Edisp/kcal,au: -4.077127947439  -0.006497316265 
 E6   /kcal   :  -1.526853212 
 E8   /kcal   :  -2.550274736 
 % E8         :  62.550765355 

-------------------------   ----------------
Dispersion correction           -0.006497316
-------------------------   ----------------


-------------------------   --------------------
FINAL SINGLE POINT ENERGY      -805.685832620388
-------------------------   --------------------


                            ***************************************
                            *     ORCA property calculations      *
                            ***************************************

                                    ---------------------
                                    Active property flags
                                    ---------------------
   (+) Dipole Moment


------------------------------------------------------------------------------
                       ORCA ELECTRIC PROPERTIES CALCULATION
------------------------------------------------------------------------------

Dipole Moment Calculation                       ... on
Quadrupole Moment Calculation                   ... off
Polarizability Calculation                      ... off
GBWName                                         ... new_SVPD_D3_wb97.gbw
Electron density file                           ... new_SVPD_D3_wb97.scfp
The origin for moment calculation is the CENTER OF MASS  = (-1.114172,  0.720036 -7.353779)

-------------
DIPOLE MOMENT
-------------
                                X             Y             Z
Electronic contribution:     -8.61833      -5.92355      -9.90535
Nuclear contribution   :      9.83476       6.70164       9.41257
                        -----------------------------------------
Total Dipole Moment    :      1.21643       0.77809      -0.49278
                        -----------------------------------------
Magnitude (a.u.)       :      1.52577
Magnitude (Debye)      :      3.87819



--------------------
Rotational spectrum 
--------------------
 
Rotational constants in cm-1:     0.099832     0.045916     0.042219 
Rotational constants in MHz :  2992.874960  1376.530174  1265.693813 

 Dipole components along the rotational axes: 
x,y,z [a.u.] :     0.754264    -1.317194    -0.155068 
x,y,z [Debye]:     1.917187    -3.348042    -0.394151 

 

Timings for individual modules:

Sum of individual times         ...       30.337 sec (=   0.506 min)
GTO integral calculation        ...        0.741 sec (=   0.012 min)   2.4 %
SCF iterations                  ...       29.596 sec (=   0.493 min)  97.6 %
                             ****ORCA TERMINATED NORMALLY****
TOTAL RUN TIME: 0 days 0 hours 0 minutes 30 seconds 977 msec
