
                                        *****************
                                        * O   R   C   A *
                                        *****************

                                            #,                                       
                                            ###                                      
                                            ####                                     
                                            #####                                    
                                            ######                                   
                                           ########,                                 
                                     ,,################,,,,,                         
                               ,,#################################,,                 
                          ,,##########################################,,             
                       ,#########################################, ''#####,          
                    ,#############################################,,   '####,        
                  ,##################################################,,,,####,       
                ,###########''''           ''''###############################       
              ,#####''   ,,,,##########,,,,          '''####'''          '####       
            ,##' ,,,,###########################,,,                        '##       
           ' ,,###''''                  '''############,,,                           
         ,,##''                                '''############,,,,        ,,,,,,###''
      ,#''                                            '''#######################'''  
     '                                                          ''''####''''         
             ,#######,   #######,   ,#######,      ##                                
            ,#'     '#,  ##    ##  ,#'     '#,    #''#        ######   ,####,        
            ##       ##  ##   ,#'  ##            #'  '#       #        #'  '#        
            ##       ##  #######   ##           ,######,      #####,   #    #        
            '#,     ,#'  ##    ##  '#,     ,#' ,#      #,         ##   #,  ,#        
             '#######'   ##     ##  '#######'  #'      '#     #####' # '####'        



                  #######################################################
                  #                        -***-                        #
                  #          Department of theory and spectroscopy      #
                  #    Directorship and core code : Frank Neese         #
                  #        Max Planck Institute fuer Kohlenforschung    #
                  #                Kaiser Wilhelm Platz 1               #
                  #                 D-45470 Muelheim/Ruhr               #
                  #                      Germany                        #
                  #                                                     #
                  #                  All rights reserved                #
                  #                        -***-                        #
                  #######################################################


                         Program Version 5.0.0 -  RELEASE  -
                                (SVN: $Rev: 19529$)
                ($Date: 2021-06-28 11:36:33 +0200 (Mo, 28 Jun 2021) $)


 With contributions from (in alphabetic order):
   Daniel Aravena         : Magnetic Suceptibility
   Michael Atanasov       : Ab Initio Ligand Field Theory (pilot matlab implementation)
   Alexander A. Auer      : GIAO ZORA, VPT2 properties, NMR spectrum
   Ute Becker             : Parallelization
   Giovanni Bistoni       : ED, misc. LED, open-shell LED, HFLD
   Martin Brehm           : Molecular dynamics
   Dmytro Bykov           : SCF Hessian
   Vijay G. Chilkuri      : MRCI spin determinant printing, contributions to CSF-ICE
   Dipayan Datta          : RHF DLPNO-CCSD density
   Achintya Kumar Dutta   : EOM-CC, STEOM-CC
   Dmitry Ganyushin       : Spin-Orbit,Spin-Spin,Magnetic field MRCI
   Miquel Garcia          : C-PCM Hessian, Gaussian charge scheme
   Yang Guo               : DLPNO-NEVPT2, F12-NEVPT2, CIM, IAO-localization
   Andreas Hansen         : Spin unrestricted coupled pair/coupled cluster methods
   Benjamin Helmich-Paris : MC-RPA, TRAH-SCF, COSX integrals
   Lee Huntington         : MR-EOM, pCC
   Robert Izsak           : Overlap fitted RIJCOSX, COSX-SCS-MP3, EOM
   Marcus Kettner         : VPT2
   Christian Kollmar      : KDIIS, OOCD, Brueckner-CCSD(T), CCSD density, CASPT2, CASPT2-K
   Simone Kossmann        : Meta GGA functionals, TD-DFT gradient, OOMP2, MP2 Hessian
   Martin Krupicka        : Initial AUTO-CI
   Lucas Lang             : DCDCAS
   Marvin Lechner         : AUTO-CI (C++ implementation), FIC-MRCC
   Dagmar Lenk            : GEPOL surface, SMD
   Dimitrios Liakos       : Extrapolation schemes; Compound Job, initial MDCI parallelization
   Dimitrios Manganas     : Further ROCIS development; embedding schemes
   Dimitrios Pantazis     : SARC Basis sets
   Anastasios Papadopoulos: AUTO-CI, single reference methods and gradients
   Taras Petrenko         : DFT Hessian,TD-DFT gradient, ASA, ECA, R-Raman, ABS, FL, XAS/XES, NRVS
   Peter Pinski           : DLPNO-MP2, DLPNO-MP2 Gradient
   Christoph Reimann      : Effective Core Potentials
   Marius Retegan         : Local ZFS, SOC
   Christoph Riplinger    : Optimizer, TS searches, QM/MM, DLPNO-CCSD(T), (RO)-DLPNO pert. Triples
   Tobias Risthaus        : Range-separated hybrids, TD-DFT gradient, RPA, STAB
   Michael Roemelt        : Original ROCIS implementation
   Masaaki Saitow         : Open-shell DLPNO-CCSD energy and density
   Barbara Sandhoefer     : DKH picture change effects
   Avijit Sen             : IP-ROCIS
   Kantharuban Sivalingam : CASSCF convergence, NEVPT2, FIC-MRCI
   Bernardo de Souza      : ESD, SOC TD-DFT
   Georgi Stoychev        : AutoAux, RI-MP2 NMR
   Willem Van den Heuvel  : Paramagnetic NMR
   Boris Wezisla          : Elementary symmetry handling
   Frank Wennmohs         : Technical directorship


 We gratefully acknowledge several colleagues who have allowed us to
 interface, adapt or use parts of their codes:
   Stefan Grimme, W. Hujo, H. Kruse, P. Pracht,  : VdW corrections, initial TS optimization,
                  C. Bannwarth, S. Ehlert          DFT functionals, gCP, sTDA/sTD-DF
   Ed Valeev, F. Pavosevic, A. Kumar             : LibInt (2-el integral package), F12 methods
   Garnet Chan, S. Sharma, J. Yang, R. Olivares  : DMRG
   Ulf Ekstrom                                   : XCFun DFT Library
   Mihaly Kallay                                 : mrcc  (arbitrary order and MRCC methods)
   Jiri Pittner, Ondrej Demel                    : Mk-CCSD
   Frank Weinhold                                : gennbo (NPA and NBO analysis)
   Christopher J. Cramer and Donald G. Truhlar   : smd solvation model
   Lars Goerigk                                  : TD-DFT with DH, B97 family of functionals
   V. Asgeirsson, H. Jonsson                     : NEB implementation
   FAccTs GmbH                                   : IRC, NEB, NEB-TS, DLPNO-Multilevel, CI-OPT
                                                   MM, QMMM, 2- and 3-layer-ONIOM, Crystal-QMMM,
                                                   LR-CPCM, SF, NACMEs, symmetry and pop. for TD-DFT,
                                                   nearIR, NL-DFT gradient (VV10), updates on ESD,
                                                   ML-optimized integration grids
   S Lehtola, MJT Oliveira, MAL Marques          : LibXC Library
   Liviu Ungur et al                             : ANISO software


 Your calculation uses the libint2 library for the computation of 2-el integrals
 For citations please refer to: http://libint.valeyev.net

 Your ORCA version has been built with support for libXC version: 5.1.0
 For citations please refer to: https://tddft.org/programs/libxc/

 This ORCA versions uses:
   CBLAS   interface :  Fast vector & matrix operations
   LAPACKE interface :  Fast linear algebra routines
   SCALAPACK package :  Parallel linear algebra routines
   Shared memory     :  Shared parallel matrices
   BLAS/LAPACK       :  OpenBLAS 0.3.15  USE64BITINT DYNAMIC_ARCH NO_AFFINITY Haswell SINGLE_THREADED
        Core in use  :  Haswell
   Copyright (c) 2011-2014, The OpenBLAS Project


Your calculation utilizes the atom-pairwise dispersion correction
with the zero-damping scheme (D30)
Cite in your paper:
S.Grimme, J.Antony, S.Ehrlich and H.Krieg, J.Chem.Phys., 132, (2010), 154104 
   

XCFun DFT library Copyright 2009-2010 Ulf Ekstrom and contributors.
See http://admol.org/xcfun for more information.
This is free software; see the source code for copying conditions.
There is ABSOLUTELY NO WARRANTY; not even for MERCHANTABILITY or FITNESS FOR A PARTICULAR PURPOSE.
For details see the documentation.
Scientific users of this library should cite U. Ekstrom, L. Visscher, R. Bast, A. J. Thorvaldsen and K. Ruud;
J.Chem.Theor.Comp. 2010, DOI: 10.1021/ct100117s
XCFun Version 0.99 

================================================================================

----- Orbital basis set information -----
Your calculation utilizes the basis: def2-SVPD
   F. Weigend and R. Ahlrichs, Phys. Chem. Chem. Phys. 7, 3297 (2005).
   D. Rappoport and F. Furche, J. Chem. Phys. 133 134105 (2010).

----- AuxJ basis set information -----
Your calculation utilizes the auxiliary basis: def2/J
   F. Weigend, Phys. Chem. Chem. Phys. 8, 1057 (2006).

================================================================================
                                        WARNINGS
                       Please study these warnings very carefully!
================================================================================


WARNING: Minnesota functionals are quite sensitive to the integration grid.
         see SE Wheeler, KN Houk, JCTC 2010, 6, 395,
             N Mardirossian, M Head-Gordon, JCTC 2016, 12, 4303.
         DEFGRID3 seems to be a minimum grid for reliable results with these functionals!
  ===> : Please increase the integration grid!


INFO   : the flag for use of the SHARK integral package has been found!

================================================================================
                                       INPUT FILE
================================================================================
NAME = 14Feb_SVPD_M062X_C1_wt_wb97_typ1_neg.com
|  1> !M062X D3Zero RIJCOSX def2-SVPD def2/J TightSCF 
|  2> *xyz 0 1
|  3> C          4.93020       -7.37532       -2.64962
|  4> C          3.84189       -6.95161       -3.63283
|  5> H          3.45814       -5.95442       -3.40712
|  6> H          2.98848       -7.64361       -3.56708
|  7> S          4.31812       -6.91593       -5.36869
|  8> F          5.40615       -5.89948       -5.51297
|  9> O          3.11191       -6.44508       -6.04379
| 10> C          6.17399       -6.48552       -2.60631
| 11> H          4.46961       -7.40617       -1.65588
| 12> H          5.23013       -8.39868       -2.88591
| 13> O          4.76340       -8.23942       -5.69863
| 14> H          6.62449       -6.45478       -3.57637
| 15> H          6.87304       -6.88376       -1.90088
| 16> H          5.89434       -5.49571       -2.31140
| 17> *
| 18> 
| 19> %MaxCore 64000
| 20> 
| 21> %pal nprocs 8
| 22> end  
| 23> 
| 24> %scf
| 25>   MaxIter 150
| 26> end
| 27> 
| 28> 
| 29>                          ****END OF INPUT****
================================================================================

                       ****************************
                       * Single Point Calculation *
                       ****************************

---------------------------------
CARTESIAN COORDINATES (ANGSTROEM)
---------------------------------
  C      4.930200   -7.375320   -2.649620
  C      3.841890   -6.951610   -3.632830
  H      3.458140   -5.954420   -3.407120
  H      2.988480   -7.643610   -3.567080
  S      4.318120   -6.915930   -5.368690
  F      5.406150   -5.899480   -5.512970
  O      3.111910   -6.445080   -6.043790
  C      6.173990   -6.485520   -2.606310
  H      4.469610   -7.406170   -1.655880
  H      5.230130   -8.398680   -2.885910
  O      4.763400   -8.239420   -5.698630
  H      6.624490   -6.454780   -3.576370
  H      6.873040   -6.883760   -1.900880
  H      5.894340   -5.495710   -2.311400

----------------------------
CARTESIAN COORDINATES (A.U.)
----------------------------
  NO LB      ZA    FRAG     MASS         X           Y           Z
   0 C     6.0000    0    12.011    9.316728  -13.937335   -5.007056
   1 C     6.0000    0    12.011    7.260120  -13.136639   -6.865054
   2 H     1.0000    0     1.008    6.534938  -11.252223   -6.438524
   3 H     1.0000    0     1.008    5.647409  -14.444330   -6.740804
   4 S    16.0000    0    32.060    8.160064  -13.069214  -10.145354
   5 F     9.0000    0    18.998   10.216143  -11.148402  -10.418003
   6 O     8.0000    0    15.999    5.880658  -12.179436  -11.421108
   7 C     6.0000    0    12.011   11.667150  -12.255857   -4.925212
   8 H     1.0000    0     1.008    8.446339  -13.995633   -3.129160
   9 H     1.0000    0     1.008    9.883513  -15.871205   -5.453580
  10 O     8.0000    0    15.999    9.001521  -15.570247  -10.768850
  11 H     1.0000    0     1.008   12.518472  -12.197766   -6.758360
  12 H     1.0000    0     1.008   12.988163  -13.008421   -3.592143
  13 H     1.0000    0     1.008   11.138688  -10.385387   -4.367913

--------------------------------
INTERNAL COORDINATES (ANGSTROEM)
--------------------------------
 C      0   0   0     0.000000000000     0.00000000     0.00000000
 C      1   0   0     1.526646889199     0.00000000     0.00000000
 H      2   1   0     1.092060878660   111.76657198     0.00000000
 H      2   1   3     1.100679649398   109.86246394   241.61204958
 S      2   1   3     1.800354969138   115.96941522   121.52143752
 F      5   2   1     1.495926669927   107.38869656   297.68884658
 O      5   2   1     1.460274733261   103.51153753   181.67714202
 C      1   2   3     1.529912860329   115.87230956   299.62488677
 H      1   2   3     1.095725357104   106.99235855    61.93754525
 H      1   2   3     1.092271330119   108.44900947   176.54294881
 O      5   2   1     1.434838130975   106.58999943    58.18902687
 H      8   1   2     1.070005421108   109.47102995   301.01982198
 H      8   1   2     1.069998824766   109.47126889   181.02026995
 H      8   1   2     1.069999937710   109.47161890    61.01999562

---------------------------
INTERNAL COORDINATES (A.U.)
---------------------------
 C      0   0   0     0.000000000000     0.00000000     0.00000000
 C      1   0   0     2.884944523788     0.00000000     0.00000000
 H      2   1   0     2.063695982237   111.76657198     0.00000000
 H      2   1   3     2.079983098544   109.86246394   241.61204958
 S      2   1   3     3.402177835515   115.96941522   121.52143752
 F      5   2   1     2.826891722592   107.38869656   297.68884658
 O      5   2   1     2.759519326148   103.51153753   181.67714202
 C      1   2   3     2.891116314786   115.87230956   299.62488677
 H      1   2   3     2.070620842919   106.99235855    61.93754525
 H      1   2   3     2.064093677859   108.44900947   176.54294881
 O      5   2   1     2.711451114050   106.58999943    58.18902687
 H      8   1   2     2.022017207705   109.47102995   301.01982198
 H      8   1   2     2.022004742425   109.47126889   181.02026995
 H      8   1   2     2.022006845585   109.47161890    61.01999562

---------------------
BASIS SET INFORMATION
---------------------
There are 5 groups of distinct atoms

 Group   1 Type C   : 8s4p2d contracted to 4s2p2d pattern {5111/31/11}
 Group   2 Type H   : 4s2p contracted to 2s2p pattern {31/11}
 Group   3 Type S   : 11s8p2d contracted to 5s4p2d pattern {53111/5111/11}
 Group   4 Type F   : 8s5p2d contracted to 4s3p2d pattern {5111/311/11}
 Group   5 Type O   : 8s5p2d contracted to 4s3p2d pattern {5111/311/11}

Atom   0C    basis set group =>   1
Atom   1C    basis set group =>   1
Atom   2H    basis set group =>   2
Atom   3H    basis set group =>   2
Atom   4S    basis set group =>   3
Atom   5F    basis set group =>   4
Atom   6O    basis set group =>   5
Atom   7C    basis set group =>   1
Atom   8H    basis set group =>   2
Atom   9H    basis set group =>   2
Atom  10O    basis set group =>   5
Atom  11H    basis set group =>   2
Atom  12H    basis set group =>   2
Atom  13H    basis set group =>   2
---------------------------------
AUXILIARY/J BASIS SET INFORMATION
---------------------------------
There are 5 groups of distinct atoms

 Group   1 Type C   : 12s5p4d2f1g contracted to 6s4p3d1f1g pattern {711111/2111/211/2/1}
 Group   2 Type H   : 5s2p1d contracted to 3s1p1d pattern {311/2/1}
 Group   3 Type S   : 14s5p5d2f1g contracted to 8s4p3d1f1g pattern {71111111/2111/311/2/1}
 Group   4 Type F   : 12s5p4d2f1g contracted to 6s4p3d1f1g pattern {711111/2111/211/2/1}
 Group   5 Type O   : 12s5p4d2f1g contracted to 6s4p3d1f1g pattern {711111/2111/211/2/1}

Atom   0C    basis set group =>   1
Atom   1C    basis set group =>   1
Atom   2H    basis set group =>   2
Atom   3H    basis set group =>   2
Atom   4S    basis set group =>   3
Atom   5F    basis set group =>   4
Atom   6O    basis set group =>   5
Atom   7C    basis set group =>   1
Atom   8H    basis set group =>   2
Atom   9H    basis set group =>   2
Atom  10O    basis set group =>   5
Atom  11H    basis set group =>   2
Atom  12H    basis set group =>   2
Atom  13H    basis set group =>   2


           ************************************************************
           *        Program running with 8 parallel MPI-processes     *
           *              working on a common directory               *
           ************************************************************
------------------------------------------------------------------------------
                           ORCA GTO INTEGRAL CALCULATION
                           -- RI-GTO INTEGRALS CHOSEN --
------------------------------------------------------------------------------
------------------------------------------------------------------------------
                   ___                                                        
                  /   \      - P O W E R E D   B Y -                         
                 /     \                                                     
                 |  |  |   _    _      __       _____    __    __             
                 |  |  |  | |  | |    /  \     |  _  \  |  |  /  |          
                  \  \/   | |  | |   /    \    | | | |  |  | /  /          
                 / \  \   | |__| |  /  /\  \   | |_| |  |  |/  /          
                |  |  |   |  __  | /  /__\  \  |    /   |      \           
                |  |  |   | |  | | |   __   |  |    \   |  |\   \          
                \     /   | |  | | |  |  |  |  | |\  \  |  | \   \       
                 \___/    |_|  |_| |__|  |__|  |_| \__\ |__|  \__/        
                                                                              
                      - O R C A' S   B I G   F R I E N D -                    
                                      &                                       
                       - I N T E G R A L  F E E D E R -                       
                                                                              
 v1 FN, 2020, v2 2021                                                         
------------------------------------------------------------------------------


Reading SHARK input file 14Feb_SVPD_M062X_C1_wt_wb97_typ1_neg.SHARKINP.tmp ... ok
----------------------
SHARK INTEGRAL PACKAGE
----------------------

Number of atoms                             ...     14
Number of basis functions                   ...    212
Number of shells                            ...     90
Maximum angular momentum                    ...      2
Integral batch strategy                     ... SHARK/LIBINT Hybrid
RI-J (if used) integral strategy            ... SPLIT-RIJ (Revised 2003 algorithm where possible)
Printlevel                                  ...      1
Contraction scheme used                     ... SEGMENTED contraction
Coulomb Range Separation                    ... NOT USED
Exchange Range Separation                   ... NOT USED
Finite Nucleus Model                        ... NOT USED
Auxiliary Coulomb fitting basis             ... AVAILABLE
   # of basis functions in Aux-J            ...    422
   # of shells in Aux-J                     ...    142
   Maximum angular momentum in Aux-J        ...      4
Auxiliary J/K fitting basis                 ... NOT available
Auxiliary Correlation fitting basis         ... NOT available
Auxiliary 'external' fitting basis          ... NOT available
Integral threshold                          ...     2.500000e-11
Primitive cut-off                           ...     2.500000e-12
Primitive pair pre-selection threshold      ...     2.500000e-12

Calculating pre-screening integrals         ... done (  0.0 sec) Dimension = 90
Organizing shell pair data                  ... done (  0.0 sec)
Shell pair information
Total number of shell pairs                 ...      4095
Shell pairs after pre-screening             ...      3989
Total number of primitive shell pairs       ...     11447
Primitive shell pairs kept                  ...      9072
          la=0 lb=0:    908 shell pairs
          la=1 lb=0:   1380 shell pairs
          la=1 lb=1:    552 shell pairs
          la=2 lb=0:    590 shell pairs
          la=2 lb=1:    455 shell pairs
          la=2 lb=2:    104 shell pairs

Calculating one electron integrals          ... done (  0.0 sec)
Calculating RI/J V-Matrix + Cholesky decomp.... done (  0.0 sec)
Calculating Nuclear repulsion               ... done (  0.0 sec) ENN=    447.197693140704 Eh

SHARK setup successfully completed in   0.2 seconds

Maximum memory used throughout the entire GTOINT-calculation: 8.9 MB


           ************************************************************
           *        Program running with 8 parallel MPI-processes     *
           *              working on a common directory               *
           ************************************************************
-------------------------------------------------------------------------------
                                 ORCA SCF
-------------------------------------------------------------------------------

------------
SCF SETTINGS
------------
Hamiltonian:
 Density Functional     Method          .... DFT(GTOs)
 Exchange Functional    Exchange        .... M062X
 Correlation Functional Correlation     .... M062X
 Gradients option       PostSCFGGA      .... off
 Hybrid DFT is turned on
   Fraction HF Exchange ScalHFX         ....  0.540000
   Scaling of DF-GGA-X  ScalDFX         ....  0.460000
   Scaling of DF-GGA-C  ScalDFC         ....  1.000000
   Scaling of DF-LDA-C  ScalLDAC        ....  1.000000
   Perturbative correction              ....  0.000000
   Density functional embedding theory  .... OFF
 RI-approximation to the Coulomb term is turned on
   Number of AuxJ basis functions       .... 422
   RIJ-COSX (HFX calculated with COS-X)).... on


General Settings:
 Integral files         IntName         .... 14Feb_SVPD_M062X_C1_wt_wb97_typ1_neg
 Hartree-Fock type      HFTyp           .... RHF
 Total Charge           Charge          ....    0
 Multiplicity           Mult            ....    1
 Number of Electrons    NEL             ....   66
 Basis Dimension        Dim             ....  212
 Nuclear Repulsion      ENuc            ....    447.1976931407 Eh

Convergence Acceleration:
 DIIS                   CNVDIIS         .... on
   Start iteration      DIISMaxIt       ....    12
   Startup error        DIISStart       ....  0.200000
   # of expansion vecs  DIISMaxEq       ....     5
   Bias factor          DIISBfac        ....   1.050
   Max. coefficient     DIISMaxC        ....  10.000
 Trust-Rad. Augm. Hess. CNVTRAH         .... auto
   Auto Start mean grad. ratio tolernc. ....  1.125000
   Auto Start start iteration           ....    20
   Auto Start num. interpolation iter.  ....    10
   Max. Number of Micro iterations      ....    16
   Max. Number of Macro iterations      .... Maxiter - #DIIS iter
   Number of Davidson start vectors     ....     2
   Converg. threshold I  (grad. norm)   ....   1.000e-05
   Converg. threshold II (energy diff.) ....   1.000e-08
   Grad. Scal. Fac. for Micro threshold ....   0.100
   Minimum threshold for Micro iter.    ....   0.010
   NR start threshold (gradient norm)   ....   0.001
   Initial trust radius                 ....   0.400
   Minimum AH scaling param. (alpha)    ....   1.000
   Maximum AH scaling param. (alpha)    .... 1000.000
   Orbital update algorithm             .... Taylor
   White noise on init. David. guess    .... on
   Maximum white noise                  ....   0.010
   Quad. conv. algorithm                .... NR
 SOSCF                  CNVSOSCF        .... on
   Start iteration      SOSCFMaxIt      ....   150
   Startup grad/error   SOSCFStart      ....  0.003300
 Level Shifting         CNVShift        .... on
   Level shift para.    LevelShift      ....    0.2500
   Turn off err/grad.   ShiftErr        ....    0.0010
 Zerner damping         CNVZerner       .... off
 Static damping         CNVDamp         .... on
   Fraction old density DampFac         ....    0.7000
   Max. Damping (<1)    DampMax         ....    0.9800
   Min. Damping (>=0)   DampMin         ....    0.0000
   Turn off err/grad.   DampErr         ....    0.1000
 Fernandez-Rico         CNVRico         .... off

SCF Procedure:
 Maximum # iterations   MaxIter         ....   150
 SCF integral mode      SCFMode         .... Direct
   Integral package                     .... SHARK and LIBINT hybrid scheme
 Reset frequency        DirectResetFreq ....    20
 Integral Threshold     Thresh          ....  2.500e-11 Eh
 Primitive CutOff       TCut            ....  2.500e-12 Eh

Convergence Tolerance:
 Convergence Check Mode ConvCheckMode   .... Total+1el-Energy
 Convergence forced     ConvForced      .... 0
 Energy Change          TolE            ....  1.000e-08 Eh
 1-El. energy change                    ....  1.000e-05 Eh
 Orbital Gradient       TolG            ....  1.000e-05
 Orbital Rotation angle TolX            ....  1.000e-05
 DIIS Error             TolErr          ....  5.000e-07


Diagonalization of the overlap matrix:
Smallest eigenvalue                        ... 1.760e-04
Time for diagonalization                   ...    0.011 sec
Threshold for overlap eigenvalues          ... 1.000e-08
Number of eigenvalues below threshold      ... 0
Time for construction of square roots      ...    0.009 sec
Total time needed                          ...    0.021 sec

Time for model grid setup =    0.074 sec

------------------------------
INITIAL GUESS: MODEL POTENTIAL
------------------------------
Loading Hartree-Fock densities                     ... done
Calculating cut-offs                               ... done
Initializing the effective Hamiltonian             ... done
Setting up the integral package (SHARK)            ... done
Starting the Coulomb interaction                   ... done (   0.0 sec)
Reading the grid                                   ... done
Mapping shells                                     ... done
Starting the XC term evaluation                    ... done (   0.1 sec)
  promolecular density results
     # of electrons  =     65.999296309
     EX              =    -68.754337017
     EC              =     -2.325935200
     EX+EC           =    -71.080272217
Transforming the Hamiltonian                       ... done (   0.0 sec)
Diagonalizing the Hamiltonian                      ... done (   0.0 sec)
Back transforming the eigenvectors                 ... done (   0.0 sec)
Now organizing SCF variables                       ... done
                      ------------------
                      INITIAL GUESS DONE (   0.2 sec)
                      ------------------
-------------------
DFT GRID GENERATION
-------------------

General Integration Accuracy     IntAcc      ... 4.388
Radial Grid Type                 RadialGrid  ... OptM3 with GC (2021)
Angular Grid (max. ang.)         AngularGrid ... 4 (Lebedev-302)
Angular grid pruning method      GridPruning ... 4 (adaptive)
Weight generation scheme         WeightScheme... Becke
Basis function cutoff            BFCut       ... 1.0000e-11
Integration weight cutoff        WCut        ... 1.0000e-14
Angular grids for H and He will be reduced by one unit
Partially contracted basis set               ... off
Rotationally invariant grid construction     ... off

Total number of grid points                  ...    68650
Total number of batches                      ...     1081
Average number of points per batch           ...       63
Average number of grid points per atom       ...     4904
Time for grid setup =    0.394 sec

--------------------
COSX GRID GENERATION
--------------------

GRIDX 1
-------
General Integration Accuracy     IntAcc      ... 3.816
Radial Grid Type                 RadialGrid  ... OptM3 with GC (2021)
Angular Grid (max. ang.)         AngularGrid ... 1 (Lebedev-50)
Angular grid pruning method      GridPruning ... 4 (adaptive)
Weight generation scheme         WeightScheme... Becke
Basis function cutoff            BFCut       ... 1.0000e-11
Integration weight cutoff        WCut        ... 1.0000e-14
Angular grids for H and He will be reduced by one unit
Partially contracted basis set               ... on
Rotationally invariant grid construction     ... off

Total number of grid points                  ...     8516
Total number of batches                      ...      143
Average number of points per batch           ...       59
Average number of grid points per atom       ...      608
UseSFitting                                  ... on

GRIDX 2
-------
General Integration Accuracy     IntAcc      ... 4.020
Radial Grid Type                 RadialGrid  ... OptM3 with GC (2021)
Angular Grid (max. ang.)         AngularGrid ... 2 (Lebedev-110)
Angular grid pruning method      GridPruning ... 4 (adaptive)
Weight generation scheme         WeightScheme... Becke
Basis function cutoff            BFCut       ... 1.0000e-11
Integration weight cutoff        WCut        ... 1.0000e-14
Angular grids for H and He will be reduced by one unit
Partially contracted basis set               ... on
Rotationally invariant grid construction     ... off

Total number of grid points                  ...    20011
Total number of batches                      ...      321
Average number of points per batch           ...       62
Average number of grid points per atom       ...     1429
UseSFitting                                  ... on

GRIDX 3
-------
General Integration Accuracy     IntAcc      ... 4.338
Radial Grid Type                 RadialGrid  ... OptM3 with GC (2021)
Angular Grid (max. ang.)         AngularGrid ... 3 (Lebedev-194)
Angular grid pruning method      GridPruning ... 4 (adaptive)
Weight generation scheme         WeightScheme... Becke
Basis function cutoff            BFCut       ... 1.0000e-11
Integration weight cutoff        WCut        ... 1.0000e-14
Angular grids for H and He will be reduced by one unit
Partially contracted basis set               ... on
Rotationally invariant grid construction     ... off

Total number of grid points                  ...    45539
Total number of batches                      ...      719
Average number of points per batch           ...       63
Average number of grid points per atom       ...     3253
UseSFitting                                  ... on

Time for X-Grid setup             =    0.329 sec

--------------
SCF ITERATIONS
--------------
ITER       Energy         Delta-E        Max-DP      RMS-DP      [F,P]     Damp
               ***  Starting incremental Fock matrix formation  ***
  0   -766.0426730990   0.000000000000 0.16422450  0.00295991  0.2748907 0.7000
  1   -766.2039829762  -0.161309877177 0.07613298  0.00182461  0.1165594 0.7000
                               ***Turning on DIIS***
  2   -766.2666584748  -0.062675498552 0.12372410  0.00288971  0.0478114 0.0000
  3   -766.3714668160  -0.104808341214 0.07827660  0.00129035  0.0602611 0.0000
  4   -766.3908326882  -0.019365872212 0.01139876  0.00028262  0.0109663 0.0000
  5   -766.3915341985  -0.000701510282 0.00251395  0.00008932  0.0037126 0.0000
                      *** Initiating the SOSCF procedure ***
                           *** Shutting down DIIS ***
                      *** Re-Reading the Fockian *** 
                      *** Removing any level shift *** 
ITER      Energy       Delta-E        Grad      Rot      Max-DP    RMS-DP
  6   -766.39158888  -0.0000546814  0.000218  0.000218  0.001091  0.000040
               *** Restarting incremental Fock matrix formation ***
  7   -766.39126755   0.0003213322  0.000120  0.000119  0.002315  0.000071
  8   -766.39126833  -0.0000007811  0.000132  0.000066  0.000453  0.000017
  9   -766.39126906  -0.0000007357  0.000019  0.000026  0.000306  0.000010
 10   -766.39126906   0.0000000043  0.000017  0.000014  0.000080  0.000002
 11   -766.39126909  -0.0000000277  0.000004  0.000003  0.000041  0.000001
 12   -766.39126909   0.0000000011  0.000003  0.000001  0.000014  0.000000
                  ***Gradient check signals convergence***
              ***Rediagonalizing the Fockian in SOSCF/NRSCF***

               *****************************************************
               *                     SUCCESS                       *
               *           SCF CONVERGED AFTER  13 CYCLES          *
               *****************************************************

Old exchange energy                            =    -37.593531386 Eh
New exchange energy                            =    -37.593511498 Eh
Exchange energy change after final integration =      0.000019888 Eh
Total energy after final integration           =   -766.391249200 Eh
Final COS-X integration done in                =     1.564 sec

----------------
TOTAL SCF ENERGY
----------------

Total Energy       :         -766.39124920 Eh          -20854.56612 eV

Components:
Nuclear Repulsion  :          447.19769314 Eh           12168.86788 eV
Electronic Energy  :        -1213.58894234 Eh          -33023.43400 eV
One Electron Energy:        -1940.34194987 Eh          -52799.38872 eV
Two Electron Energy:          726.75300753 Eh           19775.95472 eV
Max COSX asymmetry :            0.00001560 Eh               0.00042 eV

Virial components:
Potential Energy   :        -1528.76533519 Eh          -41599.81966 eV
Kinetic Energy     :          762.37408599 Eh           20745.25355 eV
Virial Ratio       :            2.00526928


DFT components:
N(Alpha)           :       33.000114032240 electrons
N(Beta)            :       33.000114032240 electrons
N(Total)           :       66.000228064481 electrons
E(XC)              :      -34.552365457374 Eh       
DFET-embed. en.    :        0.000000000000 Eh       

---------------
SCF CONVERGENCE
---------------

  Last Energy change         ...   -1.4808e-09  Tolerance :   1.0000e-08
  Last MAX-Density change    ...    3.1086e-15  Tolerance :   1.0000e-07
  Last RMS-Density change    ...    4.1509e-17  Tolerance :   5.0000e-09
  Last Orbital Gradient      ...    3.8896e-07  Tolerance :   1.0000e-05
  Last Orbital Rotation      ...    5.5031e-07  Tolerance :   1.0000e-05

             **** THE GBW FILE WAS UPDATED (14Feb_SVPD_M062X_C1_wt_wb97_typ1_neg.gbw) ****
             **** DENSITY 14Feb_SVPD_M062X_C1_wt_wb97_typ1_neg.scfp WAS UPDATED ****
             **** ENERGY FILE WAS UPDATED (14Feb_SVPD_M062X_C1_wt_wb97_typ1_neg.en.tmp) ****
             **** THE GBW FILE WAS UPDATED (14Feb_SVPD_M062X_C1_wt_wb97_typ1_neg.gbw) ****
             **** DENSITY 14Feb_SVPD_M062X_C1_wt_wb97_typ1_neg.scfp WAS UPDATED ****
----------------
ORBITAL ENERGIES
----------------

  NO   OCC          E(Eh)            E(eV) 
   0   2.0000     -90.196081     -2454.3601 
   1   2.0000     -25.356135      -689.9755 
   2   2.0000     -19.657580      -534.9100 
   3   2.0000     -19.647158      -534.6263 
   4   2.0000     -10.617563      -288.9186 
   5   2.0000     -10.584732      -288.0252 
   6   2.0000     -10.559924      -287.3501 
   7   2.0000      -8.520012      -231.8413 
   8   2.0000      -6.448166      -175.4635 
   9   2.0000      -6.443299      -175.3311 
  10   2.0000      -6.442300      -175.3039 
  11   2.0000      -1.474545       -40.1244 
  12   2.0000      -1.235640       -33.6235 
  13   2.0000      -1.134647       -30.8753 
  14   2.0000      -0.930186       -25.3116 
  15   2.0000      -0.843988       -22.9661 
  16   2.0000      -0.793108       -21.5816 
  17   2.0000      -0.725062       -19.7299 
  18   2.0000      -0.663758       -18.0618 
  19   2.0000      -0.658789       -17.9266 
  20   2.0000      -0.634765       -17.2728 
  21   2.0000      -0.573788       -15.6136 
  22   2.0000      -0.554215       -15.0810 
  23   2.0000      -0.543552       -14.7908 
  24   2.0000      -0.532605       -14.4929 
  25   2.0000      -0.508353       -13.8330 
  26   2.0000      -0.471566       -12.8320 
  27   2.0000      -0.453852       -12.3500 
  28   2.0000      -0.440826       -11.9955 
  29   2.0000      -0.429908       -11.6984 
  30   2.0000      -0.414140       -11.2693 
  31   2.0000      -0.395824       -10.7709 
  32   2.0000      -0.391146       -10.6436 
  33   0.0000       0.013586         0.3697 
  34   0.0000       0.036362         0.9895 
  35   0.0000       0.042272         1.1503 
  36   0.0000       0.043812         1.1922 
  37   0.0000       0.065490         1.7821 
  38   0.0000       0.074025         2.0143 
  39   0.0000       0.079455         2.1621 
  40   0.0000       0.082148         2.2354 
  41   0.0000       0.107751         2.9320 
  42   0.0000       0.111893         3.0448 
  43   0.0000       0.116000         3.1565 
  44   0.0000       0.133757         3.6397 
  45   0.0000       0.138212         3.7609 
  46   0.0000       0.142483         3.8772 
  47   0.0000       0.147699         4.0191 
  48   0.0000       0.155529         4.2322 
  49   0.0000       0.163241         4.4420 
  50   0.0000       0.171526         4.6675 
  51   0.0000       0.176539         4.8039 
  52   0.0000       0.183052         4.9811 
  53   0.0000       0.195488         5.3195 
  54   0.0000       0.200101         5.4450 
  55   0.0000       0.210483         5.7275 
  56   0.0000       0.214449         5.8354 
  57   0.0000       0.230497         6.2721 
  58   0.0000       0.242542         6.5999 
  59   0.0000       0.248201         6.7539 
  60   0.0000       0.248532         6.7629 
  61   0.0000       0.261314         7.1107 
  62   0.0000       0.267005         7.2656 
  63   0.0000       0.281044         7.6476 
  64   0.0000       0.286190         7.7876 
  65   0.0000       0.295376         8.0376 
  66   0.0000       0.311330         8.4717 
  67   0.0000       0.315961         8.5977 
  68   0.0000       0.319035         8.6814 
  69   0.0000       0.330426         8.9913 
  70   0.0000       0.339653         9.2424 
  71   0.0000       0.353903         9.6302 
  72   0.0000       0.356467         9.7000 
  73   0.0000       0.365935         9.9576 
  74   0.0000       0.369338        10.0502 
  75   0.0000       0.372908        10.1473 
  76   0.0000       0.386132        10.5072 
  77   0.0000       0.389304        10.5935 
  78   0.0000       0.392031        10.6677 
  79   0.0000       0.405884        11.0447 
  80   0.0000       0.414281        11.2732 
  81   0.0000       0.422544        11.4980 
  82   0.0000       0.430988        11.7278 
  83   0.0000       0.437969        11.9177 
  84   0.0000       0.449487        12.2312 
  85   0.0000       0.458046        12.4641 
  86   0.0000       0.468726        12.7547 
  87   0.0000       0.472638        12.8611 
  88   0.0000       0.482312        13.1244 
  89   0.0000       0.491929        13.3861 
  90   0.0000       0.499745        13.5987 
  91   0.0000       0.501872        13.6566 
  92   0.0000       0.510850        13.9009 
  93   0.0000       0.513730        13.9793 
  94   0.0000       0.522858        14.2277 
  95   0.0000       0.531560        14.4645 
  96   0.0000       0.540063        14.6959 
  97   0.0000       0.550334        14.9753 
  98   0.0000       0.556135        15.1332 
  99   0.0000       0.559083        15.2134 
 100   0.0000       0.581736        15.8298 
 101   0.0000       0.591469        16.0947 
 102   0.0000       0.594079        16.1657 
 103   0.0000       0.608658        16.5624 
 104   0.0000       0.621497        16.9118 
 105   0.0000       0.638482        17.3740 
 106   0.0000       0.650639        17.7048 
 107   0.0000       0.665560        18.1108 
 108   0.0000       0.679391        18.4872 
 109   0.0000       0.698838        19.0163 
 110   0.0000       0.719043        19.5661 
 111   0.0000       0.731608        19.9081 
 112   0.0000       0.744395        20.2560 
 113   0.0000       0.774943        21.0873 
 114   0.0000       0.780601        21.2412 
 115   0.0000       0.790112        21.5000 
 116   0.0000       0.801251        21.8031 
 117   0.0000       0.829205        22.5638 
 118   0.0000       0.841300        22.8929 
 119   0.0000       0.859150        23.3787 
 120   0.0000       0.885554        24.0971 
 121   0.0000       0.926007        25.1979 
 122   0.0000       0.970912        26.4199 
 123   0.0000       0.976689        26.5771 
 124   0.0000       0.985808        26.8252 
 125   0.0000       0.989388        26.9226 
 126   0.0000       1.006224        27.3807 
 127   0.0000       1.025792        27.9132 
 128   0.0000       1.036141        28.1948 
 129   0.0000       1.044571        28.4242 
 130   0.0000       1.055458        28.7205 
 131   0.0000       1.063127        28.9291 
 132   0.0000       1.077050        29.3080 
 133   0.0000       1.089544        29.6480 
 134   0.0000       1.114321        30.3222 
 135   0.0000       1.130864        30.7724 
 136   0.0000       1.151386        31.3308 
 137   0.0000       1.155534        31.4437 
 138   0.0000       1.182239        32.1704 
 139   0.0000       1.222678        33.2708 
 140   0.0000       1.231538        33.5119 
 141   0.0000       1.267151        34.4809 
 142   0.0000       1.272714        34.6323 
 143   0.0000       1.319824        35.9142 
 144   0.0000       1.338173        36.4135 
 145   0.0000       1.351574        36.7782 
 146   0.0000       1.385459        37.7003 
 147   0.0000       1.412319        38.4312 
 148   0.0000       1.418967        38.6121 
 149   0.0000       1.506309        40.9888 
 150   0.0000       1.590227        43.2723 
 151   0.0000       1.599198        43.5164 
 152   0.0000       1.623834        44.1868 
 153   0.0000       1.636965        44.5441 
 154   0.0000       1.651962        44.9522 
 155   0.0000       1.662278        45.2329 
 156   0.0000       1.708555        46.4922 
 157   0.0000       1.724995        46.9395 
 158   0.0000       1.741898        47.3995 
 159   0.0000       1.762465        47.9591 
 160   0.0000       1.769472        48.1498 
 161   0.0000       1.791702        48.7547 
 162   0.0000       1.802238        49.0414 
 163   0.0000       1.845042        50.2062 
 164   0.0000       1.879932        51.1555 
 165   0.0000       1.901580        51.7446 
 166   0.0000       1.924018        52.3552 
 167   0.0000       1.933042        52.6007 
 168   0.0000       1.967600        53.5411 
 169   0.0000       1.981570        53.9213 
 170   0.0000       2.020149        54.9711 
 171   0.0000       2.034054        55.3494 
 172   0.0000       2.052706        55.8570 
 173   0.0000       2.074533        56.4509 
 174   0.0000       2.098480        57.1026 
 175   0.0000       2.141714        58.2790 
 176   0.0000       2.156176        58.6725 
 177   0.0000       2.203778        59.9679 
 178   0.0000       2.213710        60.2381 
 179   0.0000       2.268418        61.7268 
 180   0.0000       2.329079        63.3775 
 181   0.0000       2.370853        64.5142 
 182   0.0000       2.431081        66.1531 
 183   0.0000       2.459351        66.9223 
 184   0.0000       2.505717        68.1840 
 185   0.0000       2.570335        69.9424 
 186   0.0000       2.576621        70.1134 
 187   0.0000       2.652024        72.1652 
 188   0.0000       2.695979        73.3613 
 189   0.0000       2.718661        73.9785 
 190   0.0000       2.860132        77.8282 
 191   0.0000       2.898379        78.8689 
 192   0.0000       2.920089        79.4597 
 193   0.0000       2.933261        79.8181 
 194   0.0000       2.940517        80.0155 
 195   0.0000       2.964239        80.6611 
 196   0.0000       2.975156        80.9581 
 197   0.0000       2.989635        81.3521 
 198   0.0000       3.021041        82.2067 
 199   0.0000       3.046970        82.9123 
 200   0.0000       3.087126        84.0050 
 201   0.0000       3.118000        84.8451 
 202   0.0000       3.137240        85.3686 
 203   0.0000       3.170725        86.2798 
 204   0.0000       3.209250        87.3281 
 205   0.0000       3.377059        91.8944 
 206   0.0000       3.400293        92.5267 
 207   0.0000       3.415866        92.9505 
 208   0.0000       3.449503        93.8658 
 209   0.0000       3.455483        94.0285 
 210   0.0000       3.623042        98.5880 
 211   0.0000       3.761348       102.3515 

                    ********************************
                    * MULLIKEN POPULATION ANALYSIS *
                    ********************************

-----------------------
MULLIKEN ATOMIC CHARGES
-----------------------
   0 C :   -0.260855
   1 C :   -0.051718
   2 H :    0.053229
   3 H :    0.062256
   4 S :    1.565844
   5 F :   -0.444589
   6 O :   -0.728390
   7 C :    0.768259
   8 H :   -0.071374
   9 H :   -0.018302
  10 O :   -0.691716
  11 H :   -0.144187
  12 H :   -0.043503
  13 H :    0.005045
Sum of atomic charges:   -0.0000000

--------------------------------
MULLIKEN REDUCED ORBITAL CHARGES
--------------------------------
  0 C s       :     2.814845  s :     2.814845
      pz      :     0.876819  p :     2.879029
      px      :     0.975594
      py      :     1.026616
      dz2     :     0.017359  d :     0.566981
      dxz     :     0.162586
      dyz     :     0.062148
      dx2y2   :     0.216731
      dxy     :     0.108156
  1 C s       :     2.889624  s :     2.889624
      pz      :     0.889458  p :     2.924337
      px      :     1.045057
      py      :     0.989822
      dz2     :     0.123313  d :     0.237757
      dxz     :     0.001566
      dyz     :     0.014599
      dx2y2   :     0.019246
      dxy     :     0.079032
  2 H s       :     0.908671  s :     0.908671
      pz      :    -0.002806  p :     0.038101
      px      :     0.009362
      py      :     0.031545
  3 H s       :     0.911081  s :     0.911081
      pz      :    -0.006186  p :     0.026663
      px      :     0.032427
      py      :     0.000422
  4 S s       :     5.010550  s :     5.010550
      pz      :     3.085702  p :     8.675665
      px      :     2.802317
      py      :     2.787645
      dz2     :     0.167114  d :     0.747941
      dxz     :     0.105772
      dyz     :     0.112436
      dx2y2   :     0.162378
      dxy     :     0.200241
  5 F s       :     3.958558  s :     3.958558
      pz      :     1.949183  p :     5.471577
      px      :     1.748455
      py      :     1.773939
      dz2     :     0.003008  d :     0.014454
      dxz     :     0.002335
      dyz     :     0.004403
      dx2y2   :    -0.001788
      dxy     :     0.006496
  6 O s       :     3.955118  s :     3.955118
      pz      :     1.667298  p :     4.748720
      px      :     1.348773
      py      :     1.732648
      dz2     :     0.004167  d :     0.024552
      dxz     :     0.003412
      dyz     :     0.004521
      dx2y2   :     0.008160
      dxy     :     0.004292
  7 C s       :     2.393468  s :     2.393468
      pz      :     0.902538  p :     2.752719
      px      :     0.916618
      py      :     0.933563
      dz2     :    -0.011833  d :     0.085554
      dxz     :     0.032708
      dyz     :    -0.000910
      dx2y2   :     0.051561
      dxy     :     0.014029
  8 H s       :     1.087857  s :     1.087857
      pz      :     0.032847  p :    -0.016482
      px      :    -0.013008
      py      :    -0.036321
  9 H s       :     1.001992  s :     1.001992
      pz      :    -0.014138  p :     0.016311
      px      :    -0.027255
      py      :     0.057704
 10 O s       :     3.942279  s :     3.942279
      pz      :     1.740934  p :     4.730532
      px      :     1.721643
      py      :     1.267954
      dz2     :     0.001455  d :     0.018905
      dxz     :    -0.000447
      dyz     :     0.004459
      dx2y2   :     0.008755
      dxy     :     0.004683
 11 H s       :     1.045283  s :     1.045283
      pz      :     0.111210  p :     0.098904
      px      :     0.018390
      py      :    -0.030695
 12 H s       :     1.042632  s :     1.042632
      pz      :     0.008694  p :     0.000871
      px      :    -0.004606
      py      :    -0.003217
 13 H s       :     0.989013  s :     0.989013
      pz      :    -0.032290  p :     0.005942
      px      :     0.005587
      py      :     0.032646


                     *******************************
                     * LOEWDIN POPULATION ANALYSIS *
                     *******************************

----------------------
LOEWDIN ATOMIC CHARGES
----------------------
   0 C :   -0.078394
   1 C :   -0.050127
   2 H :    0.026782
   3 H :    0.044017
   4 S :    1.152331
   5 F :   -0.289602
   6 O :   -0.487976
   7 C :    0.139446
   8 H :    0.031911
   9 H :    0.029717
  10 O :   -0.470220
  11 H :   -0.032308
  12 H :   -0.008614
  13 H :   -0.006963

-------------------------------
LOEWDIN REDUCED ORBITAL CHARGES
-------------------------------
  0 C s       :     2.678424  s :     2.678424
      pz      :     0.899105  p :     2.720598
      px      :     0.895319
      py      :     0.926173
      dz2     :     0.123358  d :     0.679372
      dxz     :     0.168639
      dyz     :     0.067609
      dx2y2   :     0.177137
      dxy     :     0.142629
  1 C s       :     2.715154  s :     2.715154
      pz      :     0.831550  p :     2.725755
      px      :     0.934415
      py      :     0.959790
      dz2     :     0.194219  d :     0.609218
      dxz     :     0.128533
      dyz     :     0.094846
      dx2y2   :     0.072585
      dxy     :     0.119035
  2 H s       :     0.717107  s :     0.717107
      pz      :     0.065016  p :     0.256111
      px      :     0.070178
      py      :     0.120917
  3 H s       :     0.704956  s :     0.704956
      pz      :     0.059217  p :     0.251027
      px      :     0.098571
      py      :     0.093239
  4 S s       :     4.660631  s :     4.660631
      pz      :     2.840923  p :     8.369520
      px      :     2.756821
      py      :     2.771777
      dz2     :     0.393499  d :     1.817518
      dxz     :     0.299470
      dyz     :     0.288898
      dx2y2   :     0.377931
      dxy     :     0.457719
  5 F s       :     3.713193  s :     3.713193
      pz      :     1.858484  p :     5.351867
      px      :     1.740177
      py      :     1.753206
      dz2     :     0.032336  d :     0.224542
      dxz     :     0.039286
      dyz     :     0.026622
      dx2y2   :     0.065258
      dxy     :     0.061040
  6 O s       :     3.570383  s :     3.570383
      pz      :     1.612778  p :     4.682374
      px      :     1.434452
      py      :     1.635144
      dz2     :     0.049154  d :     0.235219
      dxz     :     0.059881
      dyz     :     0.021401
      dx2y2   :     0.048334
      dxy     :     0.056449
  7 C s       :     2.690135  s :     2.690135
      pz      :     0.934095  p :     2.767527
      px      :     0.908691
      py      :     0.924742
      dz2     :     0.057659  d :     0.402892
      dxz     :     0.112173
      dyz     :     0.039049
      dx2y2   :     0.111768
      dxy     :     0.082242
  8 H s       :     0.723278  s :     0.723278
      pz      :     0.110781  p :     0.244811
      px      :     0.069438
      py      :     0.064593
  9 H s       :     0.716519  s :     0.716519
      pz      :     0.076968  p :     0.253764
      px      :     0.063583
      py      :     0.113213
 10 O s       :     3.560351  s :     3.560351
      pz      :     1.635790  p :     4.671310
      px      :     1.618947
      py      :     1.416574
      dz2     :     0.034943  d :     0.238558
      dxz     :     0.016394
      dyz     :     0.060656
      dx2y2   :     0.059077
      dxy     :     0.067488
 11 H s       :     0.727563  s :     0.727563
      pz      :     0.146522  p :     0.304745
      px      :     0.084126
      py      :     0.074096
 12 H s       :     0.740308  s :     0.740308
      pz      :     0.097750  p :     0.268306
      px      :     0.090644
      py      :     0.079912
 13 H s       :     0.739186  s :     0.739186
      pz      :     0.074696  p :     0.267777
      px      :     0.073774
      py      :     0.119307


                      *****************************
                      * MAYER POPULATION ANALYSIS *
                      *****************************

  NA   - Mulliken gross atomic population
  ZA   - Total nuclear charge
  QA   - Mulliken gross atomic charge
  VA   - Mayer's total valence
  BVA  - Mayer's bonded valence
  FA   - Mayer's free valence

  ATOM       NA         ZA         QA         VA         BVA        FA
  0 C      6.2609     6.0000    -0.2609     5.2048     5.2048    -0.0000
  1 C      6.0517     6.0000    -0.0517     4.4187     4.4187    -0.0000
  2 H      0.9468     1.0000     0.0532     1.1018     1.1018     0.0000
  3 H      0.9377     1.0000     0.0623     1.0616     1.0616    -0.0000
  4 S     14.4342    16.0000     1.5658     4.6454     4.6454    -0.0000
  5 F      9.4446     9.0000    -0.4446     0.6345     0.6345    -0.0000
  6 O      8.7284     8.0000    -0.7284     1.5875     1.5875    -0.0000
  7 C      5.2317     6.0000     0.7683     3.7750     3.7750    -0.0000
  8 H      1.0714     1.0000    -0.0714     1.0192     1.0192    -0.0000
  9 H      1.0183     1.0000    -0.0183     1.0813     1.0813    -0.0000
 10 O      8.6917     8.0000    -0.6917     1.6128     1.6128     0.0000
 11 H      1.1442     1.0000    -0.1442     1.2284     1.2284    -0.0000
 12 H      1.0435     1.0000    -0.0435     0.9531     0.9531    -0.0000
 13 H      0.9950     1.0000     0.0050     0.9770     0.9770    -0.0000

  Mayer bond orders larger than 0.100000
B(  0-C ,  1-C ) :   1.2683 B(  0-C ,  2-H ) :   0.1300 B(  0-C ,  3-H ) :   0.1144 
B(  0-C ,  7-C ) :   1.2749 B(  0-C ,  8-H ) :   0.8868 B(  0-C ,  9-H ) :   0.9358 
B(  0-C , 11-H ) :   0.2185 B(  0-C , 12-H ) :   0.1917 B(  0-C , 13-H ) :   0.2153 
B(  1-C ,  2-H ) :   0.9559 B(  1-C ,  3-H ) :   0.9056 B(  1-C ,  4-S ) :   0.9765 
B(  1-C ,  8-H ) :   0.1375 B(  1-C ,  9-H ) :   0.1368 B(  4-S ,  5-F ) :   0.5569 
B(  4-S ,  6-O ) :   1.5227 B(  4-S , 10-O ) :   1.4999 B(  7-C , 11-H ) :   0.8305 
B(  7-C , 12-H ) :   0.7848 B(  7-C , 13-H ) :   0.7462 B( 11-H , 13-H ) :   0.1061 


-------
TIMINGS
-------

Total SCF time: 0 days 0 hours 0 min 15 sec 

Total time                  ....      15.689 sec
Sum of individual times     ....      15.484 sec  ( 98.7%)

Fock matrix formation       ....      14.406 sec  ( 91.8%)
  Split-RI-J                ....       0.950 sec  (  6.6% of F)
  Chain of spheres X        ....       8.499 sec  ( 59.0% of F)
  XC integration            ....       4.845 sec  ( 33.6% of F)
    Basis function eval.    ....       0.727 sec  ( 15.0% of XC)
    Density eval.           ....       1.563 sec  ( 32.3% of XC)
    XC-Functional eval.     ....       0.260 sec  (  5.4% of XC)
    XC-Potential eval.      ....       1.987 sec  ( 41.0% of XC)
Diagonalization             ....       0.074 sec  (  0.5%)
Density matrix formation    ....       0.006 sec  (  0.0%)
Population analysis         ....       0.009 sec  (  0.1%)
Initial guess               ....       0.096 sec  (  0.6%)
Orbital Transformation      ....       0.000 sec  (  0.0%)
Orbital Orthonormalization  ....       0.000 sec  (  0.0%)
DIIS solution               ....       0.044 sec  (  0.3%)
SOSCF solution              ....       0.053 sec  (  0.3%)
Grid generation             ....       0.796 sec  (  5.1%)

Maximum memory used throughout the entire SCF-calculation: 55.2 MB


-------------------------------------------------------------------------------
                          DFT DISPERSION CORRECTION                            
                                                                               
                              DFTD3 V3.1  Rev 1                                
                              USING zero damping                               
-------------------------------------------------------------------------------
The M062X functional is recognized
Active option DFTDOPT                   ...         3   

molecular C6(AA) [au] = 2097.279624 


            DFT-D V3
 parameters
 s6 scaling factor         :     1.0000 
 rs6 scaling factor        :     1.6190 
 s8 scaling factor         :     0.0000 
 rs8 scaling factor        :     1.0000 
 Damping factor alpha6     :    14.0000 
 Damping factor alpha8     :    16.0000 
 ad hoc parameters k1-k3   :    16.0000     1.3333    -4.0000 

 Edisp/kcal,au: -0.185419793791  -0.000295485218 
 E6   /kcal   :  -0.185419794 
 E8   /kcal   :  -0.000000000 
 % E8         :   0.000000000 

-------------------------   ----------------
Dispersion correction           -0.000295485
-------------------------   ----------------


-------------------------   --------------------
FINAL SINGLE POINT ENERGY      -766.391544685042
-------------------------   --------------------


                            ***************************************
                            *     ORCA property calculations      *
                            ***************************************

                                    ---------------------
                                    Active property flags
                                    ---------------------
   (+) Dipole Moment


------------------------------------------------------------------------------
                       ORCA ELECTRIC PROPERTIES CALCULATION
------------------------------------------------------------------------------

Dipole Moment Calculation                       ... on
Quadrupole Moment Calculation                   ... off
Polarizability Calculation                      ... off
GBWName                                         ... 14Feb_SVPD_M062X_C1_wt_wb97_typ1_neg.gbw
Electron density file                           ... 14Feb_SVPD_M062X_C1_wt_wb97_typ1_neg.scfp
The origin for moment calculation is the CENTER OF MASS  = ( 8.725922, -12.993288 -8.852696)

-------------
DIPOLE MOMENT
-------------
                                X             Y             Z
Electronic contribution:     -1.88114       1.40213     -11.67746
Nuclear contribution   :      2.27444      -1.01744      13.40618
                        -----------------------------------------
Total Dipole Moment    :      0.39330       0.38469       1.72872
                        -----------------------------------------
Magnitude (a.u.)       :      1.81415
Magnitude (Debye)      :      4.61120



--------------------
Rotational spectrum 
--------------------
 
Rotational constants in cm-1:     0.126966     0.054929     0.051005 
Rotational constants in MHz :  3806.345018  1646.729702  1529.089209 

 Dipole components along the rotational axes: 
x,y,z [a.u.] :     1.729097     0.099179    -0.539929 
x,y,z [Debye]:     4.395016     0.252093    -1.372390 

 

Timings for individual modules:

Sum of individual times         ...       16.277 sec (=   0.271 min)
GTO integral calculation        ...        0.382 sec (=   0.006 min)   2.3 %
SCF iterations                  ...       15.895 sec (=   0.265 min)  97.7 %
                             ****ORCA TERMINATED NORMALLY****
TOTAL RUN TIME: 0 days 0 hours 0 minutes 16 seconds 686 msec
