
                                        *****************
                                        * O   R   C   A *
                                        *****************

                                            #,                                       
                                            ###                                      
                                            ####                                     
                                            #####                                    
                                            ######                                   
                                           ########,                                 
                                     ,,################,,,,,                         
                               ,,#################################,,                 
                          ,,##########################################,,             
                       ,#########################################, ''#####,          
                    ,#############################################,,   '####,        
                  ,##################################################,,,,####,       
                ,###########''''           ''''###############################       
              ,#####''   ,,,,##########,,,,          '''####'''          '####       
            ,##' ,,,,###########################,,,                        '##       
           ' ,,###''''                  '''############,,,                           
         ,,##''                                '''############,,,,        ,,,,,,###''
      ,#''                                            '''#######################'''  
     '                                                          ''''####''''         
             ,#######,   #######,   ,#######,      ##                                
            ,#'     '#,  ##    ##  ,#'     '#,    #''#        ######   ,####,        
            ##       ##  ##   ,#'  ##            #'  '#       #        #'  '#        
            ##       ##  #######   ##           ,######,      #####,   #    #        
            '#,     ,#'  ##    ##  '#,     ,#' ,#      #,         ##   #,  ,#        
             '#######'   ##     ##  '#######'  #'      '#     #####' # '####'        



                  #######################################################
                  #                        -***-                        #
                  #          Department of theory and spectroscopy      #
                  #    Directorship and core code : Frank Neese         #
                  #        Max Planck Institute fuer Kohlenforschung    #
                  #                Kaiser Wilhelm Platz 1               #
                  #                 D-45470 Muelheim/Ruhr               #
                  #                      Germany                        #
                  #                                                     #
                  #                  All rights reserved                #
                  #                        -***-                        #
                  #######################################################


                         Program Version 5.0.0 -  RELEASE  -
                                (SVN: $Rev: 19529$)
                ($Date: 2021-06-28 11:36:33 +0200 (Mo, 28 Jun 2021) $)


 With contributions from (in alphabetic order):
   Daniel Aravena         : Magnetic Suceptibility
   Michael Atanasov       : Ab Initio Ligand Field Theory (pilot matlab implementation)
   Alexander A. Auer      : GIAO ZORA, VPT2 properties, NMR spectrum
   Ute Becker             : Parallelization
   Giovanni Bistoni       : ED, misc. LED, open-shell LED, HFLD
   Martin Brehm           : Molecular dynamics
   Dmytro Bykov           : SCF Hessian
   Vijay G. Chilkuri      : MRCI spin determinant printing, contributions to CSF-ICE
   Dipayan Datta          : RHF DLPNO-CCSD density
   Achintya Kumar Dutta   : EOM-CC, STEOM-CC
   Dmitry Ganyushin       : Spin-Orbit,Spin-Spin,Magnetic field MRCI
   Miquel Garcia          : C-PCM Hessian, Gaussian charge scheme
   Yang Guo               : DLPNO-NEVPT2, F12-NEVPT2, CIM, IAO-localization
   Andreas Hansen         : Spin unrestricted coupled pair/coupled cluster methods
   Benjamin Helmich-Paris : MC-RPA, TRAH-SCF, COSX integrals
   Lee Huntington         : MR-EOM, pCC
   Robert Izsak           : Overlap fitted RIJCOSX, COSX-SCS-MP3, EOM
   Marcus Kettner         : VPT2
   Christian Kollmar      : KDIIS, OOCD, Brueckner-CCSD(T), CCSD density, CASPT2, CASPT2-K
   Simone Kossmann        : Meta GGA functionals, TD-DFT gradient, OOMP2, MP2 Hessian
   Martin Krupicka        : Initial AUTO-CI
   Lucas Lang             : DCDCAS
   Marvin Lechner         : AUTO-CI (C++ implementation), FIC-MRCC
   Dagmar Lenk            : GEPOL surface, SMD
   Dimitrios Liakos       : Extrapolation schemes; Compound Job, initial MDCI parallelization
   Dimitrios Manganas     : Further ROCIS development; embedding schemes
   Dimitrios Pantazis     : SARC Basis sets
   Anastasios Papadopoulos: AUTO-CI, single reference methods and gradients
   Taras Petrenko         : DFT Hessian,TD-DFT gradient, ASA, ECA, R-Raman, ABS, FL, XAS/XES, NRVS
   Peter Pinski           : DLPNO-MP2, DLPNO-MP2 Gradient
   Christoph Reimann      : Effective Core Potentials
   Marius Retegan         : Local ZFS, SOC
   Christoph Riplinger    : Optimizer, TS searches, QM/MM, DLPNO-CCSD(T), (RO)-DLPNO pert. Triples
   Tobias Risthaus        : Range-separated hybrids, TD-DFT gradient, RPA, STAB
   Michael Roemelt        : Original ROCIS implementation
   Masaaki Saitow         : Open-shell DLPNO-CCSD energy and density
   Barbara Sandhoefer     : DKH picture change effects
   Avijit Sen             : IP-ROCIS
   Kantharuban Sivalingam : CASSCF convergence, NEVPT2, FIC-MRCI
   Bernardo de Souza      : ESD, SOC TD-DFT
   Georgi Stoychev        : AutoAux, RI-MP2 NMR
   Willem Van den Heuvel  : Paramagnetic NMR
   Boris Wezisla          : Elementary symmetry handling
   Frank Wennmohs         : Technical directorship


 We gratefully acknowledge several colleagues who have allowed us to
 interface, adapt or use parts of their codes:
   Stefan Grimme, W. Hujo, H. Kruse, P. Pracht,  : VdW corrections, initial TS optimization,
                  C. Bannwarth, S. Ehlert          DFT functionals, gCP, sTDA/sTD-DF
   Ed Valeev, F. Pavosevic, A. Kumar             : LibInt (2-el integral package), F12 methods
   Garnet Chan, S. Sharma, J. Yang, R. Olivares  : DMRG
   Ulf Ekstrom                                   : XCFun DFT Library
   Mihaly Kallay                                 : mrcc  (arbitrary order and MRCC methods)
   Jiri Pittner, Ondrej Demel                    : Mk-CCSD
   Frank Weinhold                                : gennbo (NPA and NBO analysis)
   Christopher J. Cramer and Donald G. Truhlar   : smd solvation model
   Lars Goerigk                                  : TD-DFT with DH, B97 family of functionals
   V. Asgeirsson, H. Jonsson                     : NEB implementation
   FAccTs GmbH                                   : IRC, NEB, NEB-TS, DLPNO-Multilevel, CI-OPT
                                                   MM, QMMM, 2- and 3-layer-ONIOM, Crystal-QMMM,
                                                   LR-CPCM, SF, NACMEs, symmetry and pop. for TD-DFT,
                                                   nearIR, NL-DFT gradient (VV10), updates on ESD,
                                                   ML-optimized integration grids
   S Lehtola, MJT Oliveira, MAL Marques          : LibXC Library
   Liviu Ungur et al                             : ANISO software


 Your calculation uses the libint2 library for the computation of 2-el integrals
 For citations please refer to: http://libint.valeyev.net

 Your ORCA version has been built with support for libXC version: 5.1.0
 For citations please refer to: https://tddft.org/programs/libxc/

 This ORCA versions uses:
   CBLAS   interface :  Fast vector & matrix operations
   LAPACKE interface :  Fast linear algebra routines
   SCALAPACK package :  Parallel linear algebra routines
   Shared memory     :  Shared parallel matrices
   BLAS/LAPACK       :  OpenBLAS 0.3.15  USE64BITINT DYNAMIC_ARCH NO_AFFINITY Haswell SINGLE_THREADED
        Core in use  :  Haswell
   Copyright (c) 2011-2014, The OpenBLAS Project


Your calculation utilizes the atom-pairwise dispersion correction
with the zero-damping scheme (D30)
Cite in your paper:
S.Grimme, J.Antony, S.Ehrlich and H.Krieg, J.Chem.Phys., 132, (2010), 154104 
   

XCFun DFT library Copyright 2009-2010 Ulf Ekstrom and contributors.
See http://admol.org/xcfun for more information.
This is free software; see the source code for copying conditions.
There is ABSOLUTELY NO WARRANTY; not even for MERCHANTABILITY or FITNESS FOR A PARTICULAR PURPOSE.
For details see the documentation.
Scientific users of this library should cite U. Ekstrom, L. Visscher, R. Bast, A. J. Thorvaldsen and K. Ruud;
J.Chem.Theor.Comp. 2010, DOI: 10.1021/ct100117s
XCFun Version 0.99 

================================================================================

----- Orbital basis set information -----
Your calculation utilizes the basis: def2-SVPD
   F. Weigend and R. Ahlrichs, Phys. Chem. Chem. Phys. 7, 3297 (2005).
   D. Rappoport and F. Furche, J. Chem. Phys. 133 134105 (2010).

----- AuxJ basis set information -----
Your calculation utilizes the auxiliary basis: def2/J
   F. Weigend, Phys. Chem. Chem. Phys. 8, 1057 (2006).

================================================================================
                                        WARNINGS
                       Please study these warnings very carefully!
================================================================================


WARNING: Minnesota functionals are quite sensitive to the integration grid.
         see SE Wheeler, KN Houk, JCTC 2010, 6, 395,
             N Mardirossian, M Head-Gordon, JCTC 2016, 12, 4303.
         DEFGRID3 seems to be a minimum grid for reliable results with these functionals!
  ===> : Please increase the integration grid!


INFO   : the flag for use of the SHARK integral package has been found!

================================================================================
                                       INPUT FILE
================================================================================
NAME = 14Feb_SVPD_M062X_C2_wt_wb97_typ1_pos.com
|  1> !M062X D3Zero RIJCOSX def2-SVPD def2/J TightSCF 
|  2> *xyz 0 1
|  3> C          5.55821       -1.99291       -6.21505
|  4> C          4.18188       -2.58967       -6.29891
|  5> N          3.14587       -1.76843       -6.48675
|  6> C          4.01910       -3.86431       -6.22743
|  7> H          4.76849       -4.59115       -5.99077
|  8> H          3.12241       -4.33339       -6.31462
|  9> H          3.28164       -0.77779       -6.56655
| 10> H          2.21255       -2.13419       -6.56225
| 11> C          6.41926       -2.54294       -5.07763
| 12> C          5.89651       -2.16931       -3.69455
| 13> H          7.42888       -2.14367       -5.20808
| 14> H          6.50589       -3.62754       -5.17550
| 15> H          6.03683       -2.19819       -7.17685
| 16> H          5.46761       -0.90737       -6.12797
| 17> H          5.81870       -1.10488       -3.61824
| 18> H          6.57185       -2.53200       -2.94804
| 19> H          4.93221       -2.60892       -3.54698
| 20> *
| 21> 
| 22> %MaxCore 64000
| 23> 
| 24> %pal nprocs 8
| 25> end  
| 26> 
| 27> %scf
| 28>   MaxIter 150
| 29> end
| 30> 
| 31> 
| 32>                          ****END OF INPUT****
================================================================================

                       ****************************
                       * Single Point Calculation *
                       ****************************

---------------------------------
CARTESIAN COORDINATES (ANGSTROEM)
---------------------------------
  C      5.558210   -1.992910   -6.215050
  C      4.181880   -2.589670   -6.298910
  N      3.145870   -1.768430   -6.486750
  C      4.019100   -3.864310   -6.227430
  H      4.768490   -4.591150   -5.990770
  H      3.122410   -4.333390   -6.314620
  H      3.281640   -0.777790   -6.566550
  H      2.212550   -2.134190   -6.562250
  C      6.419260   -2.542940   -5.077630
  C      5.896510   -2.169310   -3.694550
  H      7.428880   -2.143670   -5.208080
  H      6.505890   -3.627540   -5.175500
  H      6.036830   -2.198190   -7.176850
  H      5.467610   -0.907370   -6.127970
  H      5.818700   -1.104880   -3.618240
  H      6.571850   -2.532000   -2.948040
  H      4.932210   -2.608920   -3.546980

----------------------------
CARTESIAN COORDINATES (A.U.)
----------------------------
  NO LB      ZA    FRAG     MASS         X           Y           Z
   0 C     6.0000    0    12.011   10.503495   -3.766054  -11.744742
   1 C     6.0000    0    12.011    7.902608   -4.893767  -11.903215
   2 N     7.0000    0    14.007    5.944833   -3.341848  -12.258181
   3 C     6.0000    0    12.011    7.594998   -7.302488  -11.768137
   4 H     1.0000    0     1.008    9.011140   -8.676016  -11.320915
   5 H     1.0000    0     1.008    5.900500   -8.188920  -11.932902
   6 H     1.0000    0     1.008    6.201401   -1.469810  -12.408981
   7 H     1.0000    0     1.008    4.181114   -4.033035  -12.400855
   8 C     6.0000    0    12.011   12.130643   -4.805460   -9.595330
   9 C     6.0000    0    12.011   11.142789   -4.099402   -6.981688
  10 H     1.0000    0     1.008   14.038549   -4.050949   -9.841845
  11 H     1.0000    0     1.008   12.294350   -6.855057   -9.780278
  12 H     1.0000    0     1.008   11.407955   -4.153977  -13.562281
  13 H     1.0000    0     1.008   10.332286   -1.714681  -11.580185
  14 H     1.0000    0     1.008   10.995749   -2.087921   -6.837483
  15 H     1.0000    0     1.008   12.418997   -4.784787   -5.570988
  16 H     1.0000    0     1.008    9.320526   -4.930144   -6.702821

--------------------------------
INTERNAL COORDINATES (ANGSTROEM)
--------------------------------
 C      0   0   0     0.000000000000     0.00000000     0.00000000
 C      1   0   0     1.502477709019     0.00000000     0.00000000
 N      2   1   0     1.335303607162   118.31345049     0.00000000
 C      2   1   3     1.286978573404   120.40698489   178.11903254
 H      4   2   1     1.070462382945   126.59967088     7.96889692
 H      4   2   1     1.015721959298   124.35258296   182.57970995
 H      3   2   1     1.003079828578   120.90191037   359.77612908
 H      3   2   1     1.005269540969   120.47250834   179.03023138
 C      1   2   3     1.528942235600   114.48912146   134.97205894
 C      9   1   2     1.525049909282   113.17224470   293.17026413
 H      9   1   2     1.093510987508   107.44940697   172.05509600
 H      9   1   2     1.092447002742   109.58307444    57.10728114
 H      1   2   3     1.093744130407   106.09496297   256.34022102
 H      1   2   3     1.092789265138   108.84750716    11.20622356
 H     10   9   1     1.069994783679   109.47081757   303.38462033
 H     10   9   1     1.070002491492   109.47127526   183.38432776
 H     10   9   1     1.070003900460   109.47125809    63.38491383

---------------------------
INTERNAL COORDINATES (A.U.)
---------------------------
 C      0   0   0     0.000000000000     0.00000000     0.00000000
 C      1   0   0     2.839271392368     0.00000000     0.00000000
 N      2   1   0     2.523358123173   118.31345049     0.00000000
 C      2   1   3     2.432037043957   120.40698489   178.11903254
 H      4   2   1     2.022880740431   126.59967088     7.96889692
 H      4   2   1     1.919436331283   124.35258296   182.57970995
 H      3   2   1     1.895546166473   120.90191037   359.77612908
 H      3   2   1     1.899684123204   120.47250834   179.03023138
 C      1   2   3     2.889282099868   114.48912146   134.97205894
 C      9   1   2     2.881926669104   113.17224470   293.17026413
 H      9   1   2     2.066436290823   107.44940697   172.05509600
 H      9   1   2     2.064425651006   109.58307444    57.10728114
 H      1   2   3     2.066876867053   106.09496297   256.34022102
 H      1   2   3     2.065072433199   108.84750716    11.20622356
 H     10   9   1     2.021997105877   109.47081757   303.38462033
 H     10   9   1     2.022011671534   109.47127526   183.38432776
 H     10   9   1     2.022014334097   109.47125809    63.38491383

---------------------
BASIS SET INFORMATION
---------------------
There are 3 groups of distinct atoms

 Group   1 Type C   : 8s4p2d contracted to 4s2p2d pattern {5111/31/11}
 Group   2 Type N   : 8s4p2d contracted to 4s2p2d pattern {5111/31/11}
 Group   3 Type H   : 4s2p contracted to 2s2p pattern {31/11}

Atom   0C    basis set group =>   1
Atom   1C    basis set group =>   1
Atom   2N    basis set group =>   2
Atom   3C    basis set group =>   1
Atom   4H    basis set group =>   3
Atom   5H    basis set group =>   3
Atom   6H    basis set group =>   3
Atom   7H    basis set group =>   3
Atom   8C    basis set group =>   1
Atom   9C    basis set group =>   1
Atom  10H    basis set group =>   3
Atom  11H    basis set group =>   3
Atom  12H    basis set group =>   3
Atom  13H    basis set group =>   3
Atom  14H    basis set group =>   3
Atom  15H    basis set group =>   3
Atom  16H    basis set group =>   3
---------------------------------
AUXILIARY/J BASIS SET INFORMATION
---------------------------------
There are 3 groups of distinct atoms

 Group   1 Type C   : 12s5p4d2f1g contracted to 6s4p3d1f1g pattern {711111/2111/211/2/1}
 Group   2 Type N   : 12s5p4d2f1g contracted to 6s4p3d1f1g pattern {711111/2111/211/2/1}
 Group   3 Type H   : 5s2p1d contracted to 3s1p1d pattern {311/2/1}

Atom   0C    basis set group =>   1
Atom   1C    basis set group =>   1
Atom   2N    basis set group =>   2
Atom   3C    basis set group =>   1
Atom   4H    basis set group =>   3
Atom   5H    basis set group =>   3
Atom   6H    basis set group =>   3
Atom   7H    basis set group =>   3
Atom   8C    basis set group =>   1
Atom   9C    basis set group =>   1
Atom  10H    basis set group =>   3
Atom  11H    basis set group =>   3
Atom  12H    basis set group =>   3
Atom  13H    basis set group =>   3
Atom  14H    basis set group =>   3
Atom  15H    basis set group =>   3
Atom  16H    basis set group =>   3


           ************************************************************
           *        Program running with 8 parallel MPI-processes     *
           *              working on a common directory               *
           ************************************************************
------------------------------------------------------------------------------
                           ORCA GTO INTEGRAL CALCULATION
                           -- RI-GTO INTEGRALS CHOSEN --
------------------------------------------------------------------------------
------------------------------------------------------------------------------
                   ___                                                        
                  /   \      - P O W E R E D   B Y -                         
                 /     \                                                     
                 |  |  |   _    _      __       _____    __    __             
                 |  |  |  | |  | |    /  \     |  _  \  |  |  /  |          
                  \  \/   | |  | |   /    \    | | | |  |  | /  /          
                 / \  \   | |__| |  /  /\  \   | |_| |  |  |/  /          
                |  |  |   |  __  | /  /__\  \  |    /   |      \           
                |  |  |   | |  | | |   __   |  |    \   |  |\   \          
                \     /   | |  | | |  |  |  |  | |\  \  |  | \   \       
                 \___/    |_|  |_| |__|  |__|  |_| \__\ |__|  \__/        
                                                                              
                      - O R C A' S   B I G   F R I E N D -                    
                                      &                                       
                       - I N T E G R A L  F E E D E R -                       
                                                                              
 v1 FN, 2020, v2 2021                                                         
------------------------------------------------------------------------------


Reading SHARK input file 14Feb_SVPD_M062X_C2_wt_wb97_typ1_pos.SHARKINP.tmp ... ok
----------------------
SHARK INTEGRAL PACKAGE
----------------------

Number of atoms                             ...     17
Number of basis functions                   ...    208
Number of shells                            ...     92
Maximum angular momentum                    ...      2
Integral batch strategy                     ... SHARK/LIBINT Hybrid
RI-J (if used) integral strategy            ... SPLIT-RIJ (Revised 2003 algorithm where possible)
Printlevel                                  ...      1
Contraction scheme used                     ... SEGMENTED contraction
Coulomb Range Separation                    ... NOT USED
Exchange Range Separation                   ... NOT USED
Finite Nucleus Model                        ... NOT USED
Auxiliary Coulomb fitting basis             ... AVAILABLE
   # of basis functions in Aux-J            ...    415
   # of shells in Aux-J                     ...    145
   Maximum angular momentum in Aux-J        ...      4
Auxiliary J/K fitting basis                 ... NOT available
Auxiliary Correlation fitting basis         ... NOT available
Auxiliary 'external' fitting basis          ... NOT available
Integral threshold                          ...     2.500000e-11
Primitive cut-off                           ...     2.500000e-12
Primitive pair pre-selection threshold      ...     2.500000e-12

Calculating pre-screening integrals         ... done (  0.0 sec) Dimension = 92
Organizing shell pair data                  ... done (  0.0 sec)
Shell pair information
Total number of shell pairs                 ...      4278
Shell pairs after pre-screening             ...      4218
Total number of primitive shell pairs       ...     11436
Primitive shell pairs kept                  ...      9407
          la=0 lb=0:   1064 shell pairs
          la=1 lb=0:   1537 shell pairs
          la=1 lb=1:    586 shell pairs
          la=2 lb=0:    546 shell pairs
          la=2 lb=1:    407 shell pairs
          la=2 lb=2:     78 shell pairs

Calculating one electron integrals          ... done (  0.0 sec)
Calculating RI/J V-Matrix + Cholesky decomp.... done (  0.0 sec)
Calculating Nuclear repulsion               ... done (  0.0 sec) ENN=    245.791764553819 Eh

SHARK setup successfully completed in   0.2 seconds

Maximum memory used throughout the entire GTOINT-calculation: 9.0 MB


           ************************************************************
           *        Program running with 8 parallel MPI-processes     *
           *              working on a common directory               *
           ************************************************************
-------------------------------------------------------------------------------
                                 ORCA SCF
-------------------------------------------------------------------------------

------------
SCF SETTINGS
------------
Hamiltonian:
 Density Functional     Method          .... DFT(GTOs)
 Exchange Functional    Exchange        .... M062X
 Correlation Functional Correlation     .... M062X
 Gradients option       PostSCFGGA      .... off
 Hybrid DFT is turned on
   Fraction HF Exchange ScalHFX         ....  0.540000
   Scaling of DF-GGA-X  ScalDFX         ....  0.460000
   Scaling of DF-GGA-C  ScalDFC         ....  1.000000
   Scaling of DF-LDA-C  ScalLDAC        ....  1.000000
   Perturbative correction              ....  0.000000
   Density functional embedding theory  .... OFF
 RI-approximation to the Coulomb term is turned on
   Number of AuxJ basis functions       .... 415
   RIJ-COSX (HFX calculated with COS-X)).... on


General Settings:
 Integral files         IntName         .... 14Feb_SVPD_M062X_C2_wt_wb97_typ1_pos
 Hartree-Fock type      HFTyp           .... RHF
 Total Charge           Charge          ....    0
 Multiplicity           Mult            ....    1
 Number of Electrons    NEL             ....   48
 Basis Dimension        Dim             ....  208
 Nuclear Repulsion      ENuc            ....    245.7917645538 Eh

Convergence Acceleration:
 DIIS                   CNVDIIS         .... on
   Start iteration      DIISMaxIt       ....    12
   Startup error        DIISStart       ....  0.200000
   # of expansion vecs  DIISMaxEq       ....     5
   Bias factor          DIISBfac        ....   1.050
   Max. coefficient     DIISMaxC        ....  10.000
 Trust-Rad. Augm. Hess. CNVTRAH         .... auto
   Auto Start mean grad. ratio tolernc. ....  1.125000
   Auto Start start iteration           ....    20
   Auto Start num. interpolation iter.  ....    10
   Max. Number of Micro iterations      ....    16
   Max. Number of Macro iterations      .... Maxiter - #DIIS iter
   Number of Davidson start vectors     ....     2
   Converg. threshold I  (grad. norm)   ....   1.000e-05
   Converg. threshold II (energy diff.) ....   1.000e-08
   Grad. Scal. Fac. for Micro threshold ....   0.100
   Minimum threshold for Micro iter.    ....   0.010
   NR start threshold (gradient norm)   ....   0.001
   Initial trust radius                 ....   0.400
   Minimum AH scaling param. (alpha)    ....   1.000
   Maximum AH scaling param. (alpha)    .... 1000.000
   Orbital update algorithm             .... Taylor
   White noise on init. David. guess    .... on
   Maximum white noise                  ....   0.010
   Quad. conv. algorithm                .... NR
 SOSCF                  CNVSOSCF        .... on
   Start iteration      SOSCFMaxIt      ....   150
   Startup grad/error   SOSCFStart      ....  0.003300
 Level Shifting         CNVShift        .... on
   Level shift para.    LevelShift      ....    0.2500
   Turn off err/grad.   ShiftErr        ....    0.0010
 Zerner damping         CNVZerner       .... off
 Static damping         CNVDamp         .... on
   Fraction old density DampFac         ....    0.7000
   Max. Damping (<1)    DampMax         ....    0.9800
   Min. Damping (>=0)   DampMin         ....    0.0000
   Turn off err/grad.   DampErr         ....    0.1000
 Fernandez-Rico         CNVRico         .... off

SCF Procedure:
 Maximum # iterations   MaxIter         ....   150
 SCF integral mode      SCFMode         .... Direct
   Integral package                     .... SHARK and LIBINT hybrid scheme
 Reset frequency        DirectResetFreq ....    20
 Integral Threshold     Thresh          ....  2.500e-11 Eh
 Primitive CutOff       TCut            ....  2.500e-12 Eh

Convergence Tolerance:
 Convergence Check Mode ConvCheckMode   .... Total+1el-Energy
 Convergence forced     ConvForced      .... 0
 Energy Change          TolE            ....  1.000e-08 Eh
 1-El. energy change                    ....  1.000e-05 Eh
 Orbital Gradient       TolG            ....  1.000e-05
 Orbital Rotation angle TolX            ....  1.000e-05
 DIIS Error             TolErr          ....  5.000e-07


Diagonalization of the overlap matrix:
Smallest eigenvalue                        ... 4.145e-05
Time for diagonalization                   ...    0.012 sec
Threshold for overlap eigenvalues          ... 1.000e-08
Number of eigenvalues below threshold      ... 0
Time for construction of square roots      ...    0.011 sec
Total time needed                          ...    0.024 sec

Time for model grid setup =    0.072 sec

------------------------------
INITIAL GUESS: MODEL POTENTIAL
------------------------------
Loading Hartree-Fock densities                     ... done
Calculating cut-offs                               ... done
Initializing the effective Hamiltonian             ... done
Setting up the integral package (SHARK)            ... done
Starting the Coulomb interaction                   ... done (   0.0 sec)
Reading the grid                                   ... done
Mapping shells                                     ... done
Starting the XC term evaluation                    ... done (   0.1 sec)
  promolecular density results
     # of electrons  =     47.995511387
     EX              =    -35.419442172
     EC              =     -1.562539149
     EX+EC           =    -36.981981321
Transforming the Hamiltonian                       ... done (   0.0 sec)
Diagonalizing the Hamiltonian                      ... done (   0.0 sec)
Back transforming the eigenvectors                 ... done (   0.0 sec)
Now organizing SCF variables                       ... done
                      ------------------
                      INITIAL GUESS DONE (   0.2 sec)
                      ------------------
-------------------
DFT GRID GENERATION
-------------------

General Integration Accuracy     IntAcc      ... 4.388
Radial Grid Type                 RadialGrid  ... OptM3 with GC (2021)
Angular Grid (max. ang.)         AngularGrid ... 4 (Lebedev-302)
Angular grid pruning method      GridPruning ... 4 (adaptive)
Weight generation scheme         WeightScheme... Becke
Basis function cutoff            BFCut       ... 1.0000e-11
Integration weight cutoff        WCut        ... 1.0000e-14
Angular grids for H and He will be reduced by one unit
Partially contracted basis set               ... off
Rotationally invariant grid construction     ... off

Total number of grid points                  ...    73394
Total number of batches                      ...     1155
Average number of points per batch           ...       63
Average number of grid points per atom       ...     4317
Time for grid setup =    0.386 sec

--------------------
COSX GRID GENERATION
--------------------

GRIDX 1
-------
General Integration Accuracy     IntAcc      ... 3.816
Radial Grid Type                 RadialGrid  ... OptM3 with GC (2021)
Angular Grid (max. ang.)         AngularGrid ... 1 (Lebedev-50)
Angular grid pruning method      GridPruning ... 4 (adaptive)
Weight generation scheme         WeightScheme... Becke
Basis function cutoff            BFCut       ... 1.0000e-11
Integration weight cutoff        WCut        ... 1.0000e-14
Angular grids for H and He will be reduced by one unit
Partially contracted basis set               ... on
Rotationally invariant grid construction     ... off

Total number of grid points                  ...     9191
Total number of batches                      ...      155
Average number of points per batch           ...       59
Average number of grid points per atom       ...      541
UseSFitting                                  ... on

GRIDX 2
-------
General Integration Accuracy     IntAcc      ... 4.020
Radial Grid Type                 RadialGrid  ... OptM3 with GC (2021)
Angular Grid (max. ang.)         AngularGrid ... 2 (Lebedev-110)
Angular grid pruning method      GridPruning ... 4 (adaptive)
Weight generation scheme         WeightScheme... Becke
Basis function cutoff            BFCut       ... 1.0000e-11
Integration weight cutoff        WCut        ... 1.0000e-14
Angular grids for H and He will be reduced by one unit
Partially contracted basis set               ... on
Rotationally invariant grid construction     ... off

Total number of grid points                  ...    20005
Total number of batches                      ...      322
Average number of points per batch           ...       62
Average number of grid points per atom       ...     1177
UseSFitting                                  ... on

GRIDX 3
-------
General Integration Accuracy     IntAcc      ... 4.338
Radial Grid Type                 RadialGrid  ... OptM3 with GC (2021)
Angular Grid (max. ang.)         AngularGrid ... 3 (Lebedev-194)
Angular grid pruning method      GridPruning ... 4 (adaptive)
Weight generation scheme         WeightScheme... Becke
Basis function cutoff            BFCut       ... 1.0000e-11
Integration weight cutoff        WCut        ... 1.0000e-14
Angular grids for H and He will be reduced by one unit
Partially contracted basis set               ... on
Rotationally invariant grid construction     ... off

Total number of grid points                  ...    45711
Total number of batches                      ...      721
Average number of points per batch           ...       63
Average number of grid points per atom       ...     2689
UseSFitting                                  ... on

Time for X-Grid setup             =    0.306 sec

--------------
SCF ITERATIONS
--------------
ITER       Energy         Delta-E        Max-DP      RMS-DP      [F,P]     Damp
               ***  Starting incremental Fock matrix formation  ***
  0   -251.3059550813   0.000000000000 0.10802082  0.00297409  0.2109288 0.7000
  1   -251.4195933437  -0.113638262454 0.06178837  0.00209524  0.1207227 0.7000
                               ***Turning on DIIS***
  2   -251.4743066911  -0.054713347362 0.19463830  0.00433608  0.0560235 0.0000
  3   -251.5542496656  -0.079942974464 0.04859685  0.00143309  0.0578405 0.0000
  4   -251.5717211822  -0.017471516693 0.02111924  0.00045919  0.0096178 0.0000
                      *** Initiating the SOSCF procedure ***
                           *** Shutting down DIIS ***
                      *** Re-Reading the Fockian *** 
                      *** Removing any level shift *** 
ITER      Energy       Delta-E        Grad      Rot      Max-DP    RMS-DP
  5   -251.57219770  -0.0004765209  0.000671  0.000671  0.006794  0.000153
               *** Restarting incremental Fock matrix formation ***
  6   -251.57230608  -0.0001083738  0.000270  0.000581  0.009678  0.000211
  7   -251.57230982  -0.0000037447  0.000352  0.000653  0.002223  0.000049
  8   -251.57231308  -0.0000032548  0.000040  0.000061  0.000973  0.000029
  9   -251.57231315  -0.0000000692  0.000022  0.000031  0.000119  0.000004
 10   -251.57231320  -0.0000000527  0.000004  0.000012  0.000072  0.000002
                  ***Gradient check signals convergence***
              ***Rediagonalizing the Fockian in SOSCF/NRSCF***

               *****************************************************
               *                     SUCCESS                       *
               *           SCF CONVERGED AFTER  11 CYCLES          *
               *****************************************************

Old exchange energy                            =    -19.706782328 Eh
New exchange energy                            =    -19.706698141 Eh
Exchange energy change after final integration =      0.000084186 Eh
Total energy after final integration           =   -251.572229013 Eh
Final COS-X integration done in                =     1.482 sec

----------------
TOTAL SCF ENERGY
----------------

Total Energy       :         -251.57222901 Eh           -6845.62838 eV

Components:
Nuclear Repulsion  :          245.79176455 Eh            6688.33394 eV
Electronic Energy  :         -497.36399357 Eh          -13533.96232 eV
One Electron Energy:         -824.45326245 Eh          -22434.51382 eV
Two Electron Energy:          327.08926889 Eh            8900.55150 eV
Max COSX asymmetry :            0.00001397 Eh               0.00038 eV

Virial components:
Potential Energy   :         -500.73967568 Eh          -13625.81930 eV
Kinetic Energy     :          249.16744666 Eh            6780.19092 eV
Virial Ratio       :            2.00965127


DFT components:
N(Alpha)           :       24.000004333593 electrons
N(Beta)            :       24.000004333593 electrons
N(Total)           :       48.000008667185 electrons
E(XC)              :      -18.390653339721 Eh       
DFET-embed. en.    :        0.000000000000 Eh       

---------------
SCF CONVERGENCE
---------------

  Last Energy change         ...   -1.5023e-09  Tolerance :   1.0000e-08
  Last MAX-Density change    ...    2.6645e-15  Tolerance :   1.0000e-07
  Last RMS-Density change    ...    4.1516e-17  Tolerance :   5.0000e-09
  Last Orbital Gradient      ...    1.9288e-06  Tolerance :   1.0000e-05
  Last Orbital Rotation      ...    3.9098e-06  Tolerance :   1.0000e-05

             **** THE GBW FILE WAS UPDATED (14Feb_SVPD_M062X_C2_wt_wb97_typ1_pos.gbw) ****
             **** DENSITY 14Feb_SVPD_M062X_C2_wt_wb97_typ1_pos.scfp WAS UPDATED ****
             **** ENERGY FILE WAS UPDATED (14Feb_SVPD_M062X_C2_wt_wb97_typ1_pos.en.tmp) ****
             **** THE GBW FILE WAS UPDATED (14Feb_SVPD_M062X_C2_wt_wb97_typ1_pos.gbw) ****
             **** DENSITY 14Feb_SVPD_M062X_C2_wt_wb97_typ1_pos.scfp WAS UPDATED ****
----------------
ORBITAL ENERGIES
----------------

  NO   OCC          E(Eh)            E(eV) 
   0   2.0000     -14.759915      -401.6377 
   1   2.0000     -10.571427      -287.6631 
   2   2.0000     -10.548403      -287.0367 
   3   2.0000     -10.543555      -286.9047 
   4   2.0000     -10.526786      -286.4484 
   5   2.0000     -10.487124      -285.3691 
   6   2.0000      -1.021897       -27.8072 
   7   2.0000      -0.885448       -24.0943 
   8   2.0000      -0.818404       -22.2699 
   9   2.0000      -0.767026       -20.8718 
  10   2.0000      -0.684871       -18.6363 
  11   2.0000      -0.626990       -17.0613 
  12   2.0000      -0.594680       -16.1821 
  13   2.0000      -0.561829       -15.2882 
  14   2.0000      -0.521847       -14.2002 
  15   2.0000      -0.505030       -13.7426 
  16   2.0000      -0.465352       -12.6629 
  17   2.0000      -0.454678       -12.3724 
  18   2.0000      -0.431333       -11.7372 
  19   2.0000      -0.414588       -11.2815 
  20   2.0000      -0.393798       -10.7158 
  21   2.0000      -0.387009       -10.5311 
  22   2.0000      -0.382192       -10.4000 
  23   2.0000      -0.247577        -6.7369 
  24   0.0000       0.040364         1.0984 
  25   0.0000       0.059544         1.6203 
  26   0.0000       0.063113         1.7174 
  27   0.0000       0.068746         1.8707 
  28   0.0000       0.091748         2.4966 
  29   0.0000       0.095603         2.6015 
  30   0.0000       0.109263         2.9732 
  31   0.0000       0.116000         3.1565 
  32   0.0000       0.137759         3.7486 
  33   0.0000       0.146918         3.9978 
  34   0.0000       0.153411         4.1745 
  35   0.0000       0.158089         4.3018 
  36   0.0000       0.168119         4.5748 
  37   0.0000       0.175309         4.7704 
  38   0.0000       0.189312         5.1514 
  39   0.0000       0.195398         5.3170 
  40   0.0000       0.202804         5.5186 
  41   0.0000       0.214655         5.8411 
  42   0.0000       0.217625         5.9219 
  43   0.0000       0.232915         6.3379 
  44   0.0000       0.235655         6.4125 
  45   0.0000       0.250508         6.8167 
  46   0.0000       0.266143         7.2421 
  47   0.0000       0.275885         7.5072 
  48   0.0000       0.279187         7.5971 
  49   0.0000       0.289440         7.8761 
  50   0.0000       0.298990         8.1359 
  51   0.0000       0.309929         8.4336 
  52   0.0000       0.327673         8.9164 
  53   0.0000       0.331992         9.0340 
  54   0.0000       0.336098         9.1457 
  55   0.0000       0.339014         9.2250 
  56   0.0000       0.342390         9.3169 
  57   0.0000       0.345192         9.3932 
  58   0.0000       0.360536         9.8107 
  59   0.0000       0.363155         9.8820 
  60   0.0000       0.371575        10.1111 
  61   0.0000       0.378272        10.2933 
  62   0.0000       0.380281        10.3480 
  63   0.0000       0.387683        10.5494 
  64   0.0000       0.399207        10.8630 
  65   0.0000       0.401284        10.9195 
  66   0.0000       0.405775        11.0417 
  67   0.0000       0.415633        11.3099 
  68   0.0000       0.418645        11.3919 
  69   0.0000       0.431745        11.7484 
  70   0.0000       0.440228        11.9792 
  71   0.0000       0.445577        12.1248 
  72   0.0000       0.453468        12.3395 
  73   0.0000       0.463270        12.6062 
  74   0.0000       0.466029        12.6813 
  75   0.0000       0.475370        12.9355 
  76   0.0000       0.478703        13.0262 
  77   0.0000       0.487190        13.2571 
  78   0.0000       0.489501        13.3200 
  79   0.0000       0.496762        13.5176 
  80   0.0000       0.506969        13.7953 
  81   0.0000       0.518005        14.0956 
  82   0.0000       0.525358        14.2957 
  83   0.0000       0.530542        14.4368 
  84   0.0000       0.535453        14.5704 
  85   0.0000       0.545707        14.8495 
  86   0.0000       0.555839        15.1252 
  87   0.0000       0.557882        15.1807 
  88   0.0000       0.562248        15.2996 
  89   0.0000       0.583004        15.8643 
  90   0.0000       0.588278        16.0079 
  91   0.0000       0.591216        16.0878 
  92   0.0000       0.602875        16.4051 
  93   0.0000       0.610500        16.6126 
  94   0.0000       0.616428        16.7739 
  95   0.0000       0.633499        17.2384 
  96   0.0000       0.639558        17.4032 
  97   0.0000       0.647072        17.6077 
  98   0.0000       0.656138        17.8544 
  99   0.0000       0.667871        18.1737 
 100   0.0000       0.680814        18.5259 
 101   0.0000       0.696981        18.9658 
 102   0.0000       0.697304        18.9746 
 103   0.0000       0.715689        19.4749 
 104   0.0000       0.748119        20.3573 
 105   0.0000       0.756831        20.5944 
 106   0.0000       0.771839        21.0028 
 107   0.0000       0.781678        21.2705 
 108   0.0000       0.813135        22.1265 
 109   0.0000       0.822511        22.3817 
 110   0.0000       0.914090        24.8737 
 111   0.0000       0.950651        25.8685 
 112   0.0000       0.972102        26.4522 
 113   0.0000       1.001606        27.2551 
 114   0.0000       1.011355        27.5204 
 115   0.0000       1.030762        28.0485 
 116   0.0000       1.031366        28.0649 
 117   0.0000       1.048476        28.5305 
 118   0.0000       1.057945        28.7881 
 119   0.0000       1.072224        29.1767 
 120   0.0000       1.084011        29.4974 
 121   0.0000       1.088994        29.6330 
 122   0.0000       1.112851        30.2822 
 123   0.0000       1.121978        30.5306 
 124   0.0000       1.129349        30.7311 
 125   0.0000       1.158305        31.5191 
 126   0.0000       1.166322        31.7372 
 127   0.0000       1.193814        32.4853 
 128   0.0000       1.208829        32.8939 
 129   0.0000       1.225695        33.3529 
 130   0.0000       1.250376        34.0244 
 131   0.0000       1.267767        34.4977 
 132   0.0000       1.304120        35.4869 
 133   0.0000       1.313722        35.7482 
 134   0.0000       1.329399        36.1748 
 135   0.0000       1.336516        36.3685 
 136   0.0000       1.377069        37.4720 
 137   0.0000       1.407940        38.3120 
 138   0.0000       1.431636        38.9568 
 139   0.0000       1.462031        39.7839 
 140   0.0000       1.476002        40.1641 
 141   0.0000       1.529447        41.6184 
 142   0.0000       1.614710        43.9385 
 143   0.0000       1.640718        44.6462 
 144   0.0000       1.651216        44.9319 
 145   0.0000       1.696640        46.1679 
 146   0.0000       1.698982        46.2316 
 147   0.0000       1.718876        46.7730 
 148   0.0000       1.757650        47.8281 
 149   0.0000       1.769963        48.1631 
 150   0.0000       1.804527        49.1037 
 151   0.0000       1.816894        49.4402 
 152   0.0000       1.824441        49.6456 
 153   0.0000       1.843093        50.1531 
 154   0.0000       1.906201        51.8704 
 155   0.0000       1.922403        52.3112 
 156   0.0000       1.933185        52.6046 
 157   0.0000       1.934671        52.6451 
 158   0.0000       1.965360        53.4802 
 159   0.0000       1.991368        54.1879 
 160   0.0000       2.006345        54.5954 
 161   0.0000       2.020963        54.9932 
 162   0.0000       2.034518        55.3620 
 163   0.0000       2.047200        55.7071 
 164   0.0000       2.063893        56.1614 
 165   0.0000       2.075870        56.4873 
 166   0.0000       2.093524        56.9677 
 167   0.0000       2.113765        57.5185 
 168   0.0000       2.131460        58.0000 
 169   0.0000       2.149616        58.4940 
 170   0.0000       2.167616        58.9838 
 171   0.0000       2.185308        59.4653 
 172   0.0000       2.208961        60.1089 
 173   0.0000       2.225774        60.5664 
 174   0.0000       2.268762        61.7362 
 175   0.0000       2.293650        62.4134 
 176   0.0000       2.334595        63.5276 
 177   0.0000       2.374452        64.6121 
 178   0.0000       2.403503        65.4027 
 179   0.0000       2.433212        66.2111 
 180   0.0000       2.443367        66.4874 
 181   0.0000       2.464450        67.0611 
 182   0.0000       2.509865        68.2969 
 183   0.0000       2.552155        69.4477 
 184   0.0000       2.562498        69.7291 
 185   0.0000       2.600529        70.7640 
 186   0.0000       2.630803        71.5878 
 187   0.0000       2.647682        72.0471 
 188   0.0000       2.670229        72.6606 
 189   0.0000       2.705108        73.6097 
 190   0.0000       2.724338        74.1330 
 191   0.0000       2.751482        74.8716 
 192   0.0000       2.799413        76.1759 
 193   0.0000       2.807969        76.4087 
 194   0.0000       2.878428        78.3260 
 195   0.0000       2.957760        80.4847 
 196   0.0000       3.048487        82.9535 
 197   0.0000       3.074412        83.6590 
 198   0.0000       3.094303        84.2003 
 199   0.0000       3.148702        85.6805 
 200   0.0000       3.155607        85.8684 
 201   0.0000       3.178624        86.4948 
 202   0.0000       3.231308        87.9284 
 203   0.0000       3.254441        88.5579 
 204   0.0000       3.293711        89.6264 
 205   0.0000       3.383404        92.0671 
 206   0.0000       3.579012        97.3899 
 207   0.0000       3.752159       102.1014 

                    ********************************
                    * MULLIKEN POPULATION ANALYSIS *
                    ********************************

-----------------------
MULLIKEN ATOMIC CHARGES
-----------------------
   0 C :    0.419074
   1 C :    0.352887
   2 N :    0.064165
   3 C :    0.112939
   4 H :    0.050799
   5 H :   -0.601974
   6 H :   -0.140400
   7 H :   -0.171125
   8 C :   -0.380481
   9 C :    0.702448
  10 H :   -0.124816
  11 H :   -0.070064
  12 H :   -0.126899
  13 H :   -0.022721
  14 H :    0.042883
  15 H :   -0.089224
  16 H :   -0.017491
Sum of atomic charges:    0.0000000

--------------------------------
MULLIKEN REDUCED ORBITAL CHARGES
--------------------------------
  0 C s       :     2.620719  s :     2.620719
      pz      :     0.906956  p :     2.807793
      px      :     1.015120
      py      :     0.885718
      dz2     :     0.043334  d :     0.152414
      dxz     :     0.029566
      dyz     :     0.025032
      dx2y2   :     0.073517
      dxy     :    -0.019035
  1 C s       :     2.823023  s :     2.823023
      pz      :     0.897522  p :     2.371069
      px      :     0.738040
      py      :     0.735507
      dz2     :     0.093518  d :     0.453022
      dxz     :     0.040654
      dyz     :     0.049469
      dx2y2   :    -0.131263
      dxy     :     0.400645
  2 N s       :     3.244760  s :     3.244760
      pz      :     1.664944  p :     3.674226
      px      :     1.001399
      py      :     1.007882
      dz2     :    -0.000977  d :     0.016850
      dxz     :     0.008095
      dyz     :     0.012908
      dx2y2   :    -0.005462
      dxy     :     0.002287
  3 C s       :     3.345366  s :     3.345366
      pz      :     1.059052  p :     2.447926
      px      :     0.531071
      py      :     0.857804
      dz2     :     0.004546  d :     0.093769
      dxz     :    -0.004448
      dyz     :     0.014055
      dx2y2   :    -0.004284
      dxy     :     0.083900
  4 H s       :     0.989649  s :     0.989649
      pz      :     0.048955  p :    -0.040449
      px      :    -0.090910
      py      :     0.001506
  5 H s       :     1.582797  s :     1.582797
      pz      :     0.026992  p :     0.019177
      px      :     0.007798
      py      :    -0.015613
  6 H s       :     1.094659  s :     1.094659
      pz      :     0.081263  p :     0.045742
      px      :    -0.040651
      py      :     0.005130
  7 H s       :     1.139491  s :     1.139491
      pz      :     0.071218  p :     0.031634
      px      :     0.010417
      py      :    -0.050001
  8 C s       :     2.891467  s :     2.891467
      pz      :     0.998743  p :     2.803905
      px      :     0.894439
      py      :     0.910723
      dz2     :     0.248025  d :     0.685109
      dxz     :     0.092211
      dyz     :     0.147391
      dx2y2   :     0.120594
      dxy     :     0.076888
  9 C s       :     2.487638  s :     2.487638
      pz      :     0.950964  p :     2.725625
      px      :     0.883333
      py      :     0.891327
      dz2     :     0.015910  d :     0.084289
      dxz     :     0.061085
      dyz     :     0.032079
      dx2y2   :    -0.000841
      dxy     :    -0.023944
 10 H s       :     1.124838  s :     1.124838
      pz      :    -0.029364  p :    -0.000022
      px      :     0.058051
      py      :    -0.028708
 11 H s       :     1.059438  s :     1.059438
      pz      :    -0.013116  p :     0.010626
      px      :    -0.002053
      py      :     0.025795
 12 H s       :     1.126582  s :     1.126582
      pz      :     0.027483  p :     0.000317
      px      :    -0.004136
      py      :    -0.023030
 13 H s       :     0.993392  s :     0.993392
      pz      :    -0.041889  p :     0.029328
      px      :     0.016608
      py      :     0.054609
 14 H s       :     0.932327  s :     0.932327
      pz      :     0.004200  p :     0.024790
      px      :    -0.043353
      py      :     0.063942
 15 H s       :     1.090412  s :     1.090412
      pz      :     0.006858  p :    -0.001188
      px      :     0.019874
      py      :    -0.027920
 16 H s       :     0.963196  s :     0.963196
      pz      :    -0.003408  p :     0.054294
      px      :     0.048473
      py      :     0.009229


                     *******************************
                     * LOEWDIN POPULATION ANALYSIS *
                     *******************************

----------------------
LOEWDIN ATOMIC CHARGES
----------------------
   0 C :    0.002249
   1 C :   -0.257684
   2 N :    0.169450
   3 C :    0.157339
   4 H :   -0.044519
   5 H :   -0.084751
   6 H :   -0.012611
   7 H :    0.002432
   8 C :   -0.073953
   9 C :    0.127508
  10 H :    0.019473
  11 H :    0.007853
  12 H :    0.030087
  13 H :    0.014996
  14 H :   -0.018180
  15 H :   -0.019682
  16 H :   -0.020009

-------------------------------
LOEWDIN REDUCED ORBITAL CHARGES
-------------------------------
  0 C s       :     2.682327  s :     2.682327
      pz      :     0.907684  p :     2.682107
      px      :     0.880530
      py      :     0.893893
      dz2     :     0.143047  d :     0.633316
      dxz     :     0.149000
      dyz     :     0.071876
      dx2y2   :     0.161954
      dxy     :     0.107439
  1 C s       :     2.658614  s :     2.658614
      pz      :     0.735166  p :     2.570144
      px      :     0.871096
      py      :     0.963883
      dz2     :     0.095108  d :     1.028925
      dxz     :     0.150419
      dyz     :     0.217967
      dx2y2   :     0.263803
      dxy     :     0.301628
  2 N s       :     2.921441  s :     2.921441
      pz      :     1.401523  p :     3.545997
      px      :     1.075376
      py      :     1.069098
      dz2     :     0.036486  d :     0.363112
      dxz     :     0.041215
      dyz     :     0.046831
      dx2y2   :     0.155431
      dxy     :     0.083148
  3 C s       :     2.729992  s :     2.729992
      pz      :     0.893840  p :     2.761380
      px      :     0.914152
      py      :     0.953389
      dz2     :     0.036399  d :     0.351288
      dxz     :     0.013667
      dyz     :     0.061896
      dx2y2   :     0.084122
      dxy     :     0.155204
  4 H s       :     0.744748  s :     0.744748
      pz      :     0.096769  p :     0.299770
      px      :     0.123118
      py      :     0.079883
  5 H s       :     0.774075  s :     0.774075
      pz      :     0.100495  p :     0.310676
      px      :     0.133744
      py      :     0.076438
  6 H s       :     0.659904  s :     0.659904
      pz      :     0.127175  p :     0.352707
      px      :     0.081089
      py      :     0.144444
  7 H s       :     0.657807  s :     0.657807
      pz      :     0.118072  p :     0.339761
      px      :     0.134551
      py      :     0.087138
  8 C s       :     2.685386  s :     2.685386
      pz      :     0.884524  p :     2.697583
      px      :     0.898898
      py      :     0.914161
      dz2     :     0.215280  d :     0.690984
      dxz     :     0.145457
      dyz     :     0.130194
      dx2y2   :     0.126666
      dxy     :     0.073388
  9 C s       :     2.700433  s :     2.700433
      pz      :     0.903939  p :     2.768452
      px      :     0.933790
      py      :     0.930723
      dz2     :     0.100462  d :     0.403606
      dxz     :     0.112840
      dyz     :     0.081021
      dx2y2   :     0.074398
      dxy     :     0.034886
 10 H s       :     0.733397  s :     0.733397
      pz      :     0.060176  p :     0.247131
      px      :     0.111409
      py      :     0.075546
 11 H s       :     0.722096  s :     0.722096
      pz      :     0.061114  p :     0.270051
      px      :     0.081354
      py      :     0.127582
 12 H s       :     0.723132  s :     0.723132
      pz      :     0.104911  p :     0.246781
      px      :     0.073339
      py      :     0.068532
 13 H s       :     0.726868  s :     0.726868
      pz      :     0.069959  p :     0.258137
      px      :     0.067257
      py      :     0.120921
 14 H s       :     0.742822  s :     0.742822
      pz      :     0.070190  p :     0.275358
      px      :     0.073085
      py      :     0.132082
 15 H s       :     0.746571  s :     0.746571
      pz      :     0.093953  p :     0.273111
      px      :     0.098172
      py      :     0.080986
 16 H s       :     0.735159  s :     0.735159
      pz      :     0.074418  p :     0.284850
      px      :     0.123882
      py      :     0.086550


                      *****************************
                      * MAYER POPULATION ANALYSIS *
                      *****************************

  NA   - Mulliken gross atomic population
  ZA   - Total nuclear charge
  QA   - Mulliken gross atomic charge
  VA   - Mayer's total valence
  BVA  - Mayer's bonded valence
  FA   - Mayer's free valence

  ATOM       NA         ZA         QA         VA         BVA        FA
  0 C      5.5809     6.0000     0.4191     4.0396     4.0396    -0.0000
  1 C      5.6471     6.0000     0.3529     3.6677     3.6677     0.0000
  2 N      6.9358     7.0000     0.0642     3.8616     3.8616    -0.0000
  3 C      5.8871     6.0000     0.1129     3.6191     3.6191     0.0000
  4 H      0.9492     1.0000     0.0508     0.8416     0.8416    -0.0000
  5 H      1.6020     1.0000    -0.6020     0.6812     0.6812    -0.0000
  6 H      1.1404     1.0000    -0.1404     0.9756     0.9756    -0.0000
  7 H      1.1711     1.0000    -0.1711     0.9207     0.9207    -0.0000
  8 C      6.3805     6.0000    -0.3805     5.4611     5.4611     0.0000
  9 C      5.2976     6.0000     0.7024     3.8232     3.8232     0.0000
 10 H      1.1248     1.0000    -0.1248     1.0845     1.0845    -0.0000
 11 H      1.0701     1.0000    -0.0701     1.0177     1.0177     0.0000
 12 H      1.1269     1.0000    -0.1269     0.9760     0.9760    -0.0000
 13 H      1.0227     1.0000    -0.0227     1.0487     1.0487    -0.0000
 14 H      0.9571     1.0000     0.0429     1.0081     1.0081     0.0000
 15 H      1.0892     1.0000    -0.0892     0.9810     0.9810     0.0000
 16 H      1.0175     1.0000    -0.0175     1.0796     1.0796     0.0000

  Mayer bond orders larger than 0.100000
B(  0-C ,  1-C ) :   0.9016 B(  0-C ,  2-N ) :   0.1001 B(  0-C ,  8-C ) :   1.2062 
B(  0-C , 10-H ) :   0.1203 B(  0-C , 11-H ) :   0.1612 B(  0-C , 12-H ) :   0.9009 
B(  0-C , 13-H ) :   0.6990 B(  1-C ,  2-N ) :   0.9199 B(  1-C ,  3-C ) :   1.5524 
B(  1-C ,  7-H ) :  -0.1665 B(  1-C , 11-H ) :  -0.1008 B(  1-C , 12-H ) :   0.1531 
B(  1-C , 13-H ) :   0.1596 B(  2-N ,  3-C ) :   0.2952 B(  2-N ,  6-H ) :   1.1509 
B(  2-N ,  7-H ) :   1.3020 B(  3-C ,  4-H ) :   0.8244 B(  3-C ,  5-H ) :   0.8350 
B(  4-H ,  5-H ) :  -0.2394 B(  6-H ,  7-H ) :  -0.1780 B(  8-C ,  9-C ) :   1.3250 
B(  8-C , 10-H ) :   0.9603 B(  8-C , 11-H ) :   0.8992 B(  8-C , 12-H ) :   0.1018 
B(  8-C , 13-H ) :   0.1665 B(  8-C , 14-H ) :   0.2348 B(  8-C , 15-H ) :   0.2199 
B(  8-C , 16-H ) :   0.2261 B(  9-C , 14-H ) :   0.7703 B(  9-C , 15-H ) :   0.7874 
B(  9-C , 16-H ) :   0.8257 

-------
TIMINGS
-------

Total SCF time: 0 days 0 hours 0 min 14 sec 

Total time                  ....      14.292 sec
Sum of individual times     ....      14.086 sec  ( 98.6%)

Fock matrix formation       ....      13.069 sec  ( 91.4%)
  Split-RI-J                ....       0.861 sec  (  6.6% of F)
  Chain of spheres X        ....       7.696 sec  ( 58.9% of F)
  XC integration            ....       4.468 sec  ( 34.2% of F)
    Basis function eval.    ....       0.679 sec  ( 15.2% of XC)
    Density eval.           ....       1.450 sec  ( 32.4% of XC)
    XC-Functional eval.     ....       0.232 sec  (  5.2% of XC)
    XC-Potential eval.      ....       1.947 sec  ( 43.6% of XC)
Diagonalization             ....       0.059 sec  (  0.4%)
Density matrix formation    ....       0.005 sec  (  0.0%)
Population analysis         ....       0.009 sec  (  0.1%)
Initial guess               ....       0.100 sec  (  0.7%)
Orbital Transformation      ....       0.000 sec  (  0.0%)
Orbital Orthonormalization  ....       0.000 sec  (  0.0%)
DIIS solution               ....       0.036 sec  (  0.3%)
SOSCF solution              ....       0.044 sec  (  0.3%)
Grid generation             ....       0.764 sec  (  5.3%)

Maximum memory used throughout the entire SCF-calculation: 55.4 MB


-------------------------------------------------------------------------------
                          DFT DISPERSION CORRECTION                            
                                                                               
                              DFTD3 V3.1  Rev 1                                
                              USING zero damping                               
-------------------------------------------------------------------------------
The M062X functional is recognized
Active option DFTDOPT                   ...         3   

molecular C6(AA) [au] = 2125.002829 


            DFT-D V3
 parameters
 s6 scaling factor         :     1.0000 
 rs6 scaling factor        :     1.6190 
 s8 scaling factor         :     0.0000 
 rs8 scaling factor        :     1.0000 
 Damping factor alpha6     :    14.0000 
 Damping factor alpha8     :    16.0000 
 ad hoc parameters k1-k3   :    16.0000     1.3333    -4.0000 

 Edisp/kcal,au: -0.227324885533  -0.000362265226 
 E6   /kcal   :  -0.227324886 
 E8   /kcal   :  -0.000000000 
 % E8         :   0.000000000 

-------------------------   ----------------
Dispersion correction           -0.000362265
-------------------------   ----------------


-------------------------   --------------------
FINAL SINGLE POINT ENERGY      -251.572591278617
-------------------------   --------------------


                            ***************************************
                            *     ORCA property calculations      *
                            ***************************************

                                    ---------------------
                                    Active property flags
                                    ---------------------
   (+) Dipole Moment


------------------------------------------------------------------------------
                       ORCA ELECTRIC PROPERTIES CALCULATION
------------------------------------------------------------------------------

Dipole Moment Calculation                       ... on
Quadrupole Moment Calculation                   ... off
Polarizability Calculation                      ... off
GBWName                                         ... 14Feb_SVPD_M062X_C2_wt_wb97_typ1_pos.gbw
Electron density file                           ... 14Feb_SVPD_M062X_C2_wt_wb97_typ1_pos.scfp
The origin for moment calculation is the CENTER OF MASS  = ( 9.184464, -4.660502 -10.675569)

-------------
DIPOLE MOMENT
-------------
                                X             Y             Z
Electronic contribution:     -2.69109       0.41898      -2.78110
Nuclear contribution   :      2.50934       0.16282       2.72182
                        -----------------------------------------
Total Dipole Moment    :     -0.18175       0.58180      -0.05929
                        -----------------------------------------
Magnitude (a.u.)       :      0.61240
Magnitude (Debye)      :      1.55661



--------------------
Rotational spectrum 
--------------------
 
Rotational constants in cm-1:     0.192764     0.074934     0.070466 
Rotational constants in MHz :  5778.908020  2246.454937  2112.518546 

 Dipole components along the rotational axes: 
x,y,z [a.u.] :     0.142750    -0.595533    -0.000865 
x,y,z [Debye]:     0.362843    -1.513724    -0.002199 

 

Timings for individual modules:

Sum of individual times         ...       15.006 sec (=   0.250 min)
GTO integral calculation        ...        0.459 sec (=   0.008 min)   3.1 %
SCF iterations                  ...       14.548 sec (=   0.242 min)  96.9 %
                             ****ORCA TERMINATED NORMALLY****
TOTAL RUN TIME: 0 days 0 hours 0 minutes 15 seconds 406 msec
