
                                        *****************
                                        * O   R   C   A *
                                        *****************

                                            #,                                       
                                            ###                                      
                                            ####                                     
                                            #####                                    
                                            ######                                   
                                           ########,                                 
                                     ,,################,,,,,                         
                               ,,#################################,,                 
                          ,,##########################################,,             
                       ,#########################################, ''#####,          
                    ,#############################################,,   '####,        
                  ,##################################################,,,,####,       
                ,###########''''           ''''###############################       
              ,#####''   ,,,,##########,,,,          '''####'''          '####       
            ,##' ,,,,###########################,,,                        '##       
           ' ,,###''''                  '''############,,,                           
         ,,##''                                '''############,,,,        ,,,,,,###''
      ,#''                                            '''#######################'''  
     '                                                          ''''####''''         
             ,#######,   #######,   ,#######,      ##                                
            ,#'     '#,  ##    ##  ,#'     '#,    #''#        ######   ,####,        
            ##       ##  ##   ,#'  ##            #'  '#       #        #'  '#        
            ##       ##  #######   ##           ,######,      #####,   #    #        
            '#,     ,#'  ##    ##  '#,     ,#' ,#      #,         ##   #,  ,#        
             '#######'   ##     ##  '#######'  #'      '#     #####' # '####'        



                  #######################################################
                  #                        -***-                        #
                  #          Department of theory and spectroscopy      #
                  #    Directorship and core code : Frank Neese         #
                  #        Max Planck Institute fuer Kohlenforschung    #
                  #                Kaiser Wilhelm Platz 1               #
                  #                 D-45470 Muelheim/Ruhr               #
                  #                      Germany                        #
                  #                                                     #
                  #                  All rights reserved                #
                  #                        -***-                        #
                  #######################################################


                         Program Version 5.0.0 -  RELEASE  -
                                (SVN: $Rev: 19529$)
                ($Date: 2021-06-28 11:36:33 +0200 (Mo, 28 Jun 2021) $)


 With contributions from (in alphabetic order):
   Daniel Aravena         : Magnetic Suceptibility
   Michael Atanasov       : Ab Initio Ligand Field Theory (pilot matlab implementation)
   Alexander A. Auer      : GIAO ZORA, VPT2 properties, NMR spectrum
   Ute Becker             : Parallelization
   Giovanni Bistoni       : ED, misc. LED, open-shell LED, HFLD
   Martin Brehm           : Molecular dynamics
   Dmytro Bykov           : SCF Hessian
   Vijay G. Chilkuri      : MRCI spin determinant printing, contributions to CSF-ICE
   Dipayan Datta          : RHF DLPNO-CCSD density
   Achintya Kumar Dutta   : EOM-CC, STEOM-CC
   Dmitry Ganyushin       : Spin-Orbit,Spin-Spin,Magnetic field MRCI
   Miquel Garcia          : C-PCM Hessian, Gaussian charge scheme
   Yang Guo               : DLPNO-NEVPT2, F12-NEVPT2, CIM, IAO-localization
   Andreas Hansen         : Spin unrestricted coupled pair/coupled cluster methods
   Benjamin Helmich-Paris : MC-RPA, TRAH-SCF, COSX integrals
   Lee Huntington         : MR-EOM, pCC
   Robert Izsak           : Overlap fitted RIJCOSX, COSX-SCS-MP3, EOM
   Marcus Kettner         : VPT2
   Christian Kollmar      : KDIIS, OOCD, Brueckner-CCSD(T), CCSD density, CASPT2, CASPT2-K
   Simone Kossmann        : Meta GGA functionals, TD-DFT gradient, OOMP2, MP2 Hessian
   Martin Krupicka        : Initial AUTO-CI
   Lucas Lang             : DCDCAS
   Marvin Lechner         : AUTO-CI (C++ implementation), FIC-MRCC
   Dagmar Lenk            : GEPOL surface, SMD
   Dimitrios Liakos       : Extrapolation schemes; Compound Job, initial MDCI parallelization
   Dimitrios Manganas     : Further ROCIS development; embedding schemes
   Dimitrios Pantazis     : SARC Basis sets
   Anastasios Papadopoulos: AUTO-CI, single reference methods and gradients
   Taras Petrenko         : DFT Hessian,TD-DFT gradient, ASA, ECA, R-Raman, ABS, FL, XAS/XES, NRVS
   Peter Pinski           : DLPNO-MP2, DLPNO-MP2 Gradient
   Christoph Reimann      : Effective Core Potentials
   Marius Retegan         : Local ZFS, SOC
   Christoph Riplinger    : Optimizer, TS searches, QM/MM, DLPNO-CCSD(T), (RO)-DLPNO pert. Triples
   Tobias Risthaus        : Range-separated hybrids, TD-DFT gradient, RPA, STAB
   Michael Roemelt        : Original ROCIS implementation
   Masaaki Saitow         : Open-shell DLPNO-CCSD energy and density
   Barbara Sandhoefer     : DKH picture change effects
   Avijit Sen             : IP-ROCIS
   Kantharuban Sivalingam : CASSCF convergence, NEVPT2, FIC-MRCI
   Bernardo de Souza      : ESD, SOC TD-DFT
   Georgi Stoychev        : AutoAux, RI-MP2 NMR
   Willem Van den Heuvel  : Paramagnetic NMR
   Boris Wezisla          : Elementary symmetry handling
   Frank Wennmohs         : Technical directorship


 We gratefully acknowledge several colleagues who have allowed us to
 interface, adapt or use parts of their codes:
   Stefan Grimme, W. Hujo, H. Kruse, P. Pracht,  : VdW corrections, initial TS optimization,
                  C. Bannwarth, S. Ehlert          DFT functionals, gCP, sTDA/sTD-DF
   Ed Valeev, F. Pavosevic, A. Kumar             : LibInt (2-el integral package), F12 methods
   Garnet Chan, S. Sharma, J. Yang, R. Olivares  : DMRG
   Ulf Ekstrom                                   : XCFun DFT Library
   Mihaly Kallay                                 : mrcc  (arbitrary order and MRCC methods)
   Jiri Pittner, Ondrej Demel                    : Mk-CCSD
   Frank Weinhold                                : gennbo (NPA and NBO analysis)
   Christopher J. Cramer and Donald G. Truhlar   : smd solvation model
   Lars Goerigk                                  : TD-DFT with DH, B97 family of functionals
   V. Asgeirsson, H. Jonsson                     : NEB implementation
   FAccTs GmbH                                   : IRC, NEB, NEB-TS, DLPNO-Multilevel, CI-OPT
                                                   MM, QMMM, 2- and 3-layer-ONIOM, Crystal-QMMM,
                                                   LR-CPCM, SF, NACMEs, symmetry and pop. for TD-DFT,
                                                   nearIR, NL-DFT gradient (VV10), updates on ESD,
                                                   ML-optimized integration grids
   S Lehtola, MJT Oliveira, MAL Marques          : LibXC Library
   Liviu Ungur et al                             : ANISO software


 Your calculation uses the libint2 library for the computation of 2-el integrals
 For citations please refer to: http://libint.valeyev.net

 Your ORCA version has been built with support for libXC version: 5.1.0
 For citations please refer to: https://tddft.org/programs/libxc/

 This ORCA versions uses:
   CBLAS   interface :  Fast vector & matrix operations
   LAPACKE interface :  Fast linear algebra routines
   SCALAPACK package :  Parallel linear algebra routines
   Shared memory     :  Shared parallel matrices
   BLAS/LAPACK       :  OpenBLAS 0.3.15  USE64BITINT DYNAMIC_ARCH NO_AFFINITY Haswell SINGLE_THREADED
        Core in use  :  Haswell
   Copyright (c) 2011-2014, The OpenBLAS Project




***************************************
The coordinates will be read from file: D2.xyz
***************************************


Your calculation utilizes the atom-pairwise dispersion correction
with the Becke-Johnson damping scheme (D3BJ)
Cite in your paper:
S.Grimme, S.Ehrlich, L.Goerigk, J Comput Chem, (2011), 32, 1456–1465 
S.Grimme, J.Antony, S.Ehrlich and H.Krieg, J.Chem.Phys., 132, (2010), 154104 
   

================================================================================

----- Orbital basis set information -----
Your calculation utilizes the basis: def2-SVPD
   F. Weigend and R. Ahlrichs, Phys. Chem. Chem. Phys. 7, 3297 (2005).
   D. Rappoport and F. Furche, J. Chem. Phys. 133 134105 (2010).

----- AuxJ basis set information -----
Your calculation utilizes the auxiliary basis: def2/J
   F. Weigend, Phys. Chem. Chem. Phys. 8, 1057 (2006).

================================================================================
                                        WARNINGS
                       Please study these warnings very carefully!
================================================================================



WARNING: Found flag for RIJCOSX approximation but no HF exchange needed!
  ===> : RIJCOSX  will be disabled and Split-RI-J is turned on

INFO   : the flag for use of the SHARK integral package has been found!

================================================================================
                                       INPUT FILE
================================================================================
NAME = 28Oct_SVPD_TPSS_D2_wb97.com
|  1> !TPSS D3BJ RIJCOSX def2-SVPD def2/J TightSCF xyzfile                                                                                         
|  2> 
|  3> *xyzfile 0 1 D2.xyz
|  4> 
|  5> %MaxCore 64000
|  6> 
|  7> %pal nprocs 4                                                                                                                                                  
|  8> end  
|  9> 
| 10> %scf
| 11>   MaxIter 150
| 12> end
| 13> 
| 14> 
| 15>                          ****END OF INPUT****
================================================================================

                       ****************************
                       * Single Point Calculation *
                       ****************************

---------------------------------
CARTESIAN COORDINATES (ANGSTROEM)
---------------------------------
  C      3.380928    2.083045   -3.350127
  N      4.535924    1.182447   -3.428518
  C      2.495557    1.816150   -2.136364
  C      1.872181    0.427903   -2.077497
  H      2.614270   -0.365825   -2.198894
  H      1.389953    0.273087   -1.112360
  S      0.579024    0.140472   -3.297943
  C      4.671956    0.122273   -4.220598
  C      5.866023   -0.507849   -4.224284
  N      3.698881   -0.312844   -4.986988
  H      2.731405   -0.050091   -4.849000
  H      3.890046   -1.055172   -5.643730
  H      5.251933    1.303459   -2.721014
  H      6.695165   -0.062322   -3.851596
  H      5.975383   -1.396884   -4.691414
  F      0.228860   -1.246868   -3.127871
  O     -0.439269    1.118966   -3.014550
  O      1.247881    0.403474   -4.595647
  H      1.697003    2.561969   -2.141109
  H      3.080787    1.987436   -1.225838
  H      2.806463    1.986511   -4.268484
  H      3.778714    3.098282   -3.307383

----------------------------
CARTESIAN COORDINATES (A.U.)
----------------------------
  NO LB      ZA    FRAG     MASS         X           Y           Z
   0 C     6.0000    0    12.011    6.389028    3.936384   -6.330822
   1 N     7.0000    0    14.007    8.571653    2.234501   -6.478960
   2 C     6.0000    0    12.011    4.715920    3.432025   -4.037143
   3 C     6.0000    0    12.011    3.537909    0.808619   -3.925901
   4 H     1.0000    0     1.008    4.940255   -0.691309   -4.155307
   5 H     1.0000    0     1.008    2.626630    0.516060   -2.102056
   6 S    16.0000    0    32.060    1.094197    0.265454   -6.232209
   7 C     6.0000    0    12.011    8.828718    0.231062   -7.975775
   8 C     6.0000    0    12.011   11.085178   -0.959696   -7.982739
   9 N     7.0000    0    14.007    6.989872   -0.591189   -9.424042
  10 H     1.0000    0     1.008    5.161608   -0.094658   -9.163282
  11 H     1.0000    0     1.008    7.351122   -1.993986  -10.665104
  12 H     1.0000    0     1.008    9.924714    2.463181   -5.141971
  13 H     1.0000    0     1.008   12.652028   -0.117771   -7.278462
  14 H     1.0000    0     1.008   11.291838   -2.639728   -8.865488
  15 F     9.0000    0    18.998    0.432483   -2.356238   -5.910819
  16 O     8.0000    0    15.999   -0.830098    2.114540   -5.696673
  17 O     8.0000    0    15.999    2.358154    0.762455   -8.684514
  18 H     1.0000    0     1.008    3.206871    4.841420   -4.046109
  19 H     1.0000    0     1.008    5.821845    3.755709   -2.316498
  20 H     1.0000    0     1.008    5.303447    3.753961   -8.066266
  21 H     1.0000    0     1.008    7.140735    5.854904   -6.250048

--------------------------------
INTERNAL COORDINATES (ANGSTROEM)
--------------------------------
 C      0   0   0     0.000000000000     0.00000000     0.00000000
 N      1   0   0     1.466709159152     0.00000000     0.00000000
 C      1   2   0     1.525887598611   113.08106121     0.00000000
 C      3   1   2     1.522922426714   115.32150160   298.98779578
 H      4   3   1     1.093360976858   112.31147686    51.76616417
 H      4   3   1     1.089954594431   110.16986842   171.17309744
 S      4   3   1     1.801210303623   114.40266140   289.23510751
 C      2   1   3     1.330363150639   126.98915710   102.39030975
 C      8   2   1     1.350134350047   117.64436639   174.24681917
 N      8   2   1     1.312842464079   122.40463695   354.61440396
 H     10   8   2     1.011972738098   122.88487069   342.67118838
 H     10   8   2     1.009408202469   118.89300887   173.11229738
 H      2   1   3     1.013841643828   116.45871694   291.29563037
 H      9   8   2     1.012356698497   121.19473046   343.47581302
 H      9   8   2     1.010224236058   120.51235872   170.23230527
 F      7   4   3     1.440920179428   104.36732947   175.27794104
 O      7   4   3     1.440376003423   105.41678409   299.48536641
 O      7   4   3     1.483433803163   103.93008595    57.15043279
 H      3   1   2     1.092683852872   107.52997589   177.35677273
 H      3   1   2     1.095851861430   108.88782929    62.11677368
 H      1   2   3     1.087524204377   108.44120771   237.12593655
 H      1   2   3     1.091223184114   106.63672387   121.10258644

---------------------------
INTERNAL COORDINATES (A.U.)
---------------------------
 C      0   0   0     0.000000000000     0.00000000     0.00000000
 N      1   0   0     2.771678628911     0.00000000     0.00000000
 C      1   2   0     2.883509672521   113.08106121     0.00000000
 C      3   1   2     2.877906309695   115.32150160   298.98779578
 H      4   3   1     2.066152811778   112.31147686    51.76616417
 H      4   3   1     2.059715681884   110.16986842   171.17309744
 S      4   3   1     3.403794183444   114.40266140   289.23510751
 C      2   1   3     2.514022013368   126.98915710   102.39030975
 C      8   2   1     2.551384165588   117.64436639   174.24681917
 N      8   2   1     2.480912714091   122.40463695   354.61440396
 H     10   8   2     1.912351330000   122.88487069   342.67118838
 H     10   8   2     1.907505060000   118.89300887   173.11229738
 H      2   1   3     1.915883050000   116.45871694   291.29563037
 H      9   8   2     1.913076910000   121.19473046   343.47581302
 H      9   8   2     1.909047140000   120.51235872   170.23230527
 F      7   4   3     2.722944519960   104.36732947   175.27794104
 O      7   4   3     2.721916176342   105.41678409   299.48536641
 O      7   4   3     2.803283625779   103.93008595    57.15043279
 H      3   1   2     2.064873232886   107.52997589   177.35677273
 H      3   1   2     2.070859901451   108.88782929    62.11677368
 H      1   2   3     2.055122910283   108.44120771   237.12593655
 H      1   2   3     2.062112968961   106.63672387   121.10258644

---------------------
BASIS SET INFORMATION
---------------------
There are 6 groups of distinct atoms

 Group   1 Type C   : 8s4p2d contracted to 4s2p2d pattern {5111/31/11}
 Group   2 Type N   : 8s4p2d contracted to 4s2p2d pattern {5111/31/11}
 Group   3 Type H   : 4s2p contracted to 2s2p pattern {31/11}
 Group   4 Type S   : 11s8p2d contracted to 5s4p2d pattern {53111/5111/11}
 Group   5 Type F   : 8s5p2d contracted to 4s3p2d pattern {5111/311/11}
 Group   6 Type O   : 8s5p2d contracted to 4s3p2d pattern {5111/311/11}

Atom   0C    basis set group =>   1
Atom   1N    basis set group =>   2
Atom   2C    basis set group =>   1
Atom   3C    basis set group =>   1
Atom   4H    basis set group =>   3
Atom   5H    basis set group =>   3
Atom   6S    basis set group =>   4
Atom   7C    basis set group =>   1
Atom   8C    basis set group =>   1
Atom   9N    basis set group =>   2
Atom  10H    basis set group =>   3
Atom  11H    basis set group =>   3
Atom  12H    basis set group =>   3
Atom  13H    basis set group =>   3
Atom  14H    basis set group =>   3
Atom  15F    basis set group =>   5
Atom  16O    basis set group =>   6
Atom  17O    basis set group =>   6
Atom  18H    basis set group =>   3
Atom  19H    basis set group =>   3
Atom  20H    basis set group =>   3
Atom  21H    basis set group =>   3
---------------------------------
AUXILIARY/J BASIS SET INFORMATION
---------------------------------
There are 6 groups of distinct atoms

 Group   1 Type C   : 12s5p4d2f1g contracted to 6s4p3d1f1g pattern {711111/2111/211/2/1}
 Group   2 Type N   : 12s5p4d2f1g contracted to 6s4p3d1f1g pattern {711111/2111/211/2/1}
 Group   3 Type H   : 5s2p1d contracted to 3s1p1d pattern {311/2/1}
 Group   4 Type S   : 14s5p5d2f1g contracted to 8s4p3d1f1g pattern {71111111/2111/311/2/1}
 Group   5 Type F   : 12s5p4d2f1g contracted to 6s4p3d1f1g pattern {711111/2111/211/2/1}
 Group   6 Type O   : 12s5p4d2f1g contracted to 6s4p3d1f1g pattern {711111/2111/211/2/1}

Atom   0C    basis set group =>   1
Atom   1N    basis set group =>   2
Atom   2C    basis set group =>   1
Atom   3C    basis set group =>   1
Atom   4H    basis set group =>   3
Atom   5H    basis set group =>   3
Atom   6S    basis set group =>   4
Atom   7C    basis set group =>   1
Atom   8C    basis set group =>   1
Atom   9N    basis set group =>   2
Atom  10H    basis set group =>   3
Atom  11H    basis set group =>   3
Atom  12H    basis set group =>   3
Atom  13H    basis set group =>   3
Atom  14H    basis set group =>   3
Atom  15F    basis set group =>   5
Atom  16O    basis set group =>   6
Atom  17O    basis set group =>   6
Atom  18H    basis set group =>   3
Atom  19H    basis set group =>   3
Atom  20H    basis set group =>   3
Atom  21H    basis set group =>   3


           ************************************************************
           *        Program running with 4 parallel MPI-processes     *
           *              working on a common directory               *
           ************************************************************
------------------------------------------------------------------------------
                           ORCA GTO INTEGRAL CALCULATION
                           -- RI-GTO INTEGRALS CHOSEN --
------------------------------------------------------------------------------
------------------------------------------------------------------------------
                   ___                                                        
                  /   \      - P O W E R E D   B Y -                         
                 /     \                                                     
                 |  |  |   _    _      __       _____    __    __             
                 |  |  |  | |  | |    /  \     |  _  \  |  |  /  |          
                  \  \/   | |  | |   /    \    | | | |  |  | /  /          
                 / \  \   | |__| |  /  /\  \   | |_| |  |  |/  /          
                |  |  |   |  __  | /  /__\  \  |    /   |      \           
                |  |  |   | |  | | |   __   |  |    \   |  |\   \          
                \     /   | |  | | |  |  |  |  | |\  \  |  | \   \       
                 \___/    |_|  |_| |__|  |__|  |_| \__\ |__|  \__/        
                                                                              
                      - O R C A' S   B I G   F R I E N D -                    
                                      &                                       
                       - I N T E G R A L  F E E D E R -                       
                                                                              
 v1 FN, 2020, v2 2021                                                         
------------------------------------------------------------------------------


Reading SHARK input file 28Oct_SVPD_TPSS_D2_wb97.SHARKINP.tmp ... ok
----------------------
SHARK INTEGRAL PACKAGE
----------------------

Number of atoms                             ...     22
Number of basis functions                   ...    324
Number of shells                            ...    138
Maximum angular momentum                    ...      2
Integral batch strategy                     ... SHARK/LIBINT Hybrid
RI-J (if used) integral strategy            ... SPLIT-RIJ (Revised 2003 algorithm where possible)
Printlevel                                  ...      1
Contraction scheme used                     ... SEGMENTED contraction
Coulomb Range Separation                    ... NOT USED
Exchange Range Separation                   ... NOT USED
Finite Nucleus Model                        ... NOT USED
Auxiliary Coulomb fitting basis             ... AVAILABLE
   # of basis functions in Aux-J            ...    662
   # of shells in Aux-J                     ...    222
   Maximum angular momentum in Aux-J        ...      4
Auxiliary J/K fitting basis                 ... NOT available
Auxiliary Correlation fitting basis         ... NOT available
Auxiliary 'external' fitting basis          ... NOT available
Integral threshold                          ...     2.500000e-11
Primitive cut-off                           ...     2.500000e-12
Primitive pair pre-selection threshold      ...     2.500000e-12

Calculating pre-screening integrals         ... done (  0.1 sec) Dimension = 138
Organizing shell pair data                  ... done (  0.1 sec)
Shell pair information
Total number of shell pairs                 ...      9591
Shell pairs after pre-screening             ...      9045
Total number of primitive shell pairs       ...     26751
Primitive shell pairs kept                  ...     19631
          la=0 lb=0:   2121 shell pairs
          la=1 lb=0:   3093 shell pairs
          la=1 lb=1:   1171 shell pairs
          la=2 lb=0:   1391 shell pairs
          la=2 lb=1:   1027 shell pairs
          la=2 lb=2:    242 shell pairs

Calculating one electron integrals          ... done (  0.0 sec)
Calculating RI/J V-Matrix + Cholesky decomp.... done (  0.0 sec)
Calculating Nuclear repulsion               ... done (  0.0 sec) ENN=    834.656587514691 Eh

SHARK setup successfully completed in   0.3 seconds

Maximum memory used throughout the entire GTOINT-calculation: 15.7 MB


           ************************************************************
           *        Program running with 4 parallel MPI-processes     *
           *              working on a common directory               *
           ************************************************************
-------------------------------------------------------------------------------
                                 ORCA SCF
-------------------------------------------------------------------------------

------------
SCF SETTINGS
------------
Hamiltonian:
 Density Functional     Method          .... DFT(GTOs)
 Exchange Functional    Exchange        .... TPSS
 Correlation Functional Correlation     .... TPSS
 LDA part of GGA corr.  LDAOpt          .... PW91-LDA
 Gradients option       PostSCFGGA      .... off
   Density functional embedding theory  .... OFF
   NL short-range parameter             ....  5.000000
 RI-approximation to the Coulomb term is turned on
   Number of AuxJ basis functions       .... 662


General Settings:
 Integral files         IntName         .... 28Oct_SVPD_TPSS_D2_wb97
 Hartree-Fock type      HFTyp           .... RHF
 Total Charge           Charge          ....    0
 Multiplicity           Mult            ....    1
 Number of Electrons    NEL             ....   96
 Basis Dimension        Dim             ....  324
 Nuclear Repulsion      ENuc            ....    834.6565875147 Eh

Convergence Acceleration:
 DIIS                   CNVDIIS         .... on
   Start iteration      DIISMaxIt       ....    12
   Startup error        DIISStart       ....  0.200000
   # of expansion vecs  DIISMaxEq       ....     5
   Bias factor          DIISBfac        ....   1.050
   Max. coefficient     DIISMaxC        ....  10.000
 Trust-Rad. Augm. Hess. CNVTRAH         .... auto
   Auto Start mean grad. ratio tolernc. ....  1.125000
   Auto Start start iteration           ....    20
   Auto Start num. interpolation iter.  ....    10
   Max. Number of Micro iterations      ....    16
   Max. Number of Macro iterations      .... Maxiter - #DIIS iter
   Number of Davidson start vectors     ....     2
   Converg. threshold I  (grad. norm)   ....   1.000e-05
   Converg. threshold II (energy diff.) ....   1.000e-08
   Grad. Scal. Fac. for Micro threshold ....   0.100
   Minimum threshold for Micro iter.    ....   0.010
   NR start threshold (gradient norm)   ....   0.001
   Initial trust radius                 ....   0.400
   Minimum AH scaling param. (alpha)    ....   1.000
   Maximum AH scaling param. (alpha)    .... 1000.000
   Orbital update algorithm             .... Taylor
   White noise on init. David. guess    .... on
   Maximum white noise                  ....   0.010
   Quad. conv. algorithm                .... NR
 SOSCF                  CNVSOSCF        .... on
   Start iteration      SOSCFMaxIt      ....   150
   Startup grad/error   SOSCFStart      ....  0.003300
 Level Shifting         CNVShift        .... on
   Level shift para.    LevelShift      ....    0.2500
   Turn off err/grad.   ShiftErr        ....    0.0010
 Zerner damping         CNVZerner       .... off
 Static damping         CNVDamp         .... on
   Fraction old density DampFac         ....    0.7000
   Max. Damping (<1)    DampMax         ....    0.9800
   Min. Damping (>=0)   DampMin         ....    0.0000
   Turn off err/grad.   DampErr         ....    0.1000
 Fernandez-Rico         CNVRico         .... off

SCF Procedure:
 Maximum # iterations   MaxIter         ....   150
 SCF integral mode      SCFMode         .... Direct
   Integral package                     .... SHARK and LIBINT hybrid scheme
 Reset frequency        DirectResetFreq ....    20
 Integral Threshold     Thresh          ....  2.500e-11 Eh
 Primitive CutOff       TCut            ....  2.500e-12 Eh

Convergence Tolerance:
 Convergence Check Mode ConvCheckMode   .... Total+1el-Energy
 Convergence forced     ConvForced      .... 0
 Energy Change          TolE            ....  1.000e-08 Eh
 1-El. energy change                    ....  1.000e-05 Eh
 Orbital Gradient       TolG            ....  1.000e-05
 Orbital Rotation angle TolX            ....  1.000e-05
 DIIS Error             TolErr          ....  5.000e-07


Diagonalization of the overlap matrix:
Smallest eigenvalue                        ... 3.807e-05
Time for diagonalization                   ...    0.026 sec
Threshold for overlap eigenvalues          ... 1.000e-08
Number of eigenvalues below threshold      ... 0
Time for construction of square roots      ...    0.019 sec
Total time needed                          ...    0.047 sec

Time for model grid setup =    0.219 sec

------------------------------
INITIAL GUESS: MODEL POTENTIAL
------------------------------
Loading Hartree-Fock densities                     ... done
Calculating cut-offs                               ... done
Initializing the effective Hamiltonian             ... done
Setting up the integral package (SHARK)            ... done
Starting the Coulomb interaction                   ... done (   0.2 sec)
Reading the grid                                   ... done
Mapping shells                                     ... done
Starting the XC term evaluation                    ... done (   0.3 sec)
  promolecular density results
     # of electrons  =     95.994442299
     EX              =    -93.374632719
     EC              =     -3.358994740
     EX+EC           =    -96.733627459
Transforming the Hamiltonian                       ... done (   0.0 sec)
Diagonalizing the Hamiltonian                      ... done (   0.0 sec)
Back transforming the eigenvectors                 ... done (   0.0 sec)
Now organizing SCF variables                       ... done
                      ------------------
                      INITIAL GUESS DONE (   0.7 sec)
                      ------------------
-------------------
DFT GRID GENERATION
-------------------

General Integration Accuracy     IntAcc      ... 4.388
Radial Grid Type                 RadialGrid  ... OptM3 with GC (2021)
Angular Grid (max. ang.)         AngularGrid ... 4 (Lebedev-302)
Angular grid pruning method      GridPruning ... 4 (adaptive)
Weight generation scheme         WeightScheme... Becke
Basis function cutoff            BFCut       ... 1.0000e-11
Integration weight cutoff        WCut        ... 1.0000e-14
Angular grids for H and He will be reduced by one unit
Partially contracted basis set               ... off
Rotationally invariant grid construction     ... off

Total number of grid points                  ...   105590
Total number of batches                      ...     1661
Average number of points per batch           ...       63
Average number of grid points per atom       ...     4800
Time for grid setup =    0.823 sec

--------------
SCF ITERATIONS
--------------
ITER       Energy         Delta-E        Max-DP      RMS-DP      [F,P]     Damp
               ***  Starting incremental Fock matrix formation  ***
  0   -954.0880265934   0.000000000000 0.24707408  0.00339704  0.2729248 0.7000
  1   -954.3498488548  -0.261822261428 0.12332170  0.00216700  0.1158020 0.7000
                               ***Turning on DIIS***
  2   -954.4237807140  -0.073931859187 0.32759633  0.00378583  0.0356806 0.0000
  3   -954.5691988800  -0.145418166011 0.08103897  0.00145506  0.0755181 0.0000
  4   -954.5952934492  -0.026094569134 0.03423334  0.00067552  0.0319651 0.0000
                      *** Initiating the SOSCF procedure ***
                           *** Shutting down DIIS ***
                      *** Re-Reading the Fockian *** 
                      *** Removing any level shift *** 
ITER      Energy       Delta-E        Grad      Rot      Max-DP    RMS-DP
  5   -954.60030262  -0.0050091741  0.001227  0.001227  0.022601  0.000317
               *** Restarting incremental Fock matrix formation ***
  6   -954.60046968  -0.0001670524  0.000899  0.004025  0.023300  0.000312
  7   -954.60036366   0.0001060171  0.002436  0.002186  0.004225  0.000072
  8   -954.60051225  -0.0001485885  0.000134  0.000833  0.004536  0.000063
  9   -954.60050981   0.0000024416  0.000219  0.000349  0.001377  0.000023
 10   -954.60051428  -0.0000044770  0.000064  0.000244  0.001075  0.000016
 11   -954.60051344   0.0000008428  0.000144  0.000166  0.000666  0.000010
 12   -954.60051449  -0.0000010488  0.000006  0.000022  0.000120  0.000002
 13   -954.60051448   0.0000000071  0.000011  0.000009  0.000103  0.000001
                  ***Gradient check signals convergence***
              ***Rediagonalizing the Fockian in SOSCF/NRSCF***

               *****************************************************
               *                     SUCCESS                       *
               *           SCF CONVERGED AFTER  14 CYCLES          *
               *****************************************************


----------------
TOTAL SCF ENERGY
----------------

Total Energy       :         -954.60051449 Eh          -25976.00059 eV

Components:
Nuclear Repulsion  :          834.65658751 Eh           22712.16041 eV
Electronic Energy  :        -1789.25710201 Eh          -48688.16100 eV
One Electron Energy:        -2965.55120892 Eh          -80696.75094 eV
Two Electron Energy:         1176.29410691 Eh           32008.58993 eV

Virial components:
Potential Energy   :        -1903.74916724 Eh          -51803.64849 eV
Kinetic Energy     :          949.14865275 Eh           25827.64789 eV
Virial Ratio       :            2.00574395


DFT components:
N(Alpha)           :       48.000091521548 electrons
N(Beta)            :       48.000091521548 electrons
N(Total)           :       96.000183043096 electrons
E(X)               :      -95.393520539995 Eh       
E(C)               :       -3.369858860900 Eh       
E(XC)              :      -98.763379400896 Eh       
DFET-embed. en.    :        0.000000000000 Eh       

---------------
SCF CONVERGENCE
---------------

  Last Energy change         ...   -1.2302e-08  Tolerance :   1.0000e-08
  Last MAX-Density change    ...    9.6201e-05  Tolerance :   1.0000e-07
  Last RMS-Density change    ...    1.0855e-06  Tolerance :   5.0000e-09
  Last Orbital Gradient      ...    2.4462e-06  Tolerance :   1.0000e-05
  Last Orbital Rotation      ...    1.4520e-05  Tolerance :   1.0000e-05

             **** THE GBW FILE WAS UPDATED (28Oct_SVPD_TPSS_D2_wb97.gbw) ****
             **** DENSITY 28Oct_SVPD_TPSS_D2_wb97.scfp WAS UPDATED ****
             **** ENERGY FILE WAS UPDATED (28Oct_SVPD_TPSS_D2_wb97.en.tmp) ****
             **** THE GBW FILE WAS UPDATED (28Oct_SVPD_TPSS_D2_wb97.gbw) ****
             **** DENSITY 28Oct_SVPD_TPSS_D2_wb97.scfp WAS UPDATED ****
----------------
ORBITAL ENERGIES
----------------

  NO   OCC          E(Eh)            E(eV) 
   0   2.0000     -88.644915     -2412.1508 
   1   2.0000     -24.560986      -668.3384 
   2   2.0000     -18.933602      -515.2095 
   3   2.0000     -18.928267      -515.0643 
   4   2.0000     -14.118091      -384.1728 
   5   2.0000     -14.092327      -383.4717 
   6   2.0000     -10.071659      -274.0638 
   7   2.0000     -10.044672      -273.3294 
   8   2.0000     -10.038816      -273.1701 
   9   2.0000     -10.031724      -272.9771 
  10   2.0000      -9.903384      -269.4848 
  11   2.0000      -8.005388      -217.8377 
  12   2.0000      -5.995704      -163.1514 
  13   2.0000      -5.989461      -162.9815 
  14   2.0000      -5.987072      -162.9165 
  15   2.0000      -1.312369       -35.7114 
  16   2.0000      -1.059117       -28.8200 
  17   2.0000      -0.964171       -26.2364 
  18   2.0000      -0.887242       -24.1431 
  19   2.0000      -0.811317       -22.0771 
  20   2.0000      -0.773179       -21.0393 
  21   2.0000      -0.710730       -19.3399 
  22   2.0000      -0.668081       -18.1794 
  23   2.0000      -0.629512       -17.1299 
  24   2.0000      -0.583983       -15.8910 
  25   2.0000      -0.551308       -15.0018 
  26   2.0000      -0.546713       -14.8768 
  27   2.0000      -0.542086       -14.7509 
  28   2.0000      -0.532208       -14.4821 
  29   2.0000      -0.496306       -13.5052 
  30   2.0000      -0.465718       -12.6728 
  31   2.0000      -0.447954       -12.1894 
  32   2.0000      -0.444802       -12.1037 
  33   2.0000      -0.439153       -11.9499 
  34   2.0000      -0.420661       -11.4468 
  35   2.0000      -0.406129       -11.0513 
  36   2.0000      -0.376501       -10.2451 
  37   2.0000      -0.369539       -10.0557 
  38   2.0000      -0.365927        -9.9574 
  39   2.0000      -0.349593        -9.5129 
  40   2.0000      -0.343587        -9.3495 
  41   2.0000      -0.329864        -8.9761 
  42   2.0000      -0.316079        -8.6009 
  43   2.0000      -0.307177        -8.3587 
  44   2.0000      -0.301334        -8.1997 
  45   2.0000      -0.284487        -7.7413 
  46   2.0000      -0.209372        -5.6973 
  47   2.0000      -0.121128        -3.2961 
  48   0.0000      -0.036400        -0.9905 
  49   0.0000      -0.009991        -0.2719 
  50   0.0000       0.008653         0.2354 
  51   0.0000       0.015534         0.4227 
  52   0.0000       0.018738         0.5099 
  53   0.0000       0.028741         0.7821 
  54   0.0000       0.033091         0.9004 
  55   0.0000       0.039204         1.0668 
  56   0.0000       0.044539         1.2120 
  57   0.0000       0.050330         1.3696 
  58   0.0000       0.055035         1.4976 
  59   0.0000       0.062014         1.6875 
  60   0.0000       0.079409         2.1608 
  61   0.0000       0.080807         2.1989 
  62   0.0000       0.088231         2.4009 
  63   0.0000       0.093251         2.5375 
  64   0.0000       0.096486         2.6255 
  65   0.0000       0.105346         2.8666 
  66   0.0000       0.114560         3.1173 
  67   0.0000       0.124212         3.3800 
  68   0.0000       0.128510         3.4969 
  69   0.0000       0.136776         3.7219 
  70   0.0000       0.137881         3.7519 
  71   0.0000       0.149022         4.0551 
  72   0.0000       0.156726         4.2647 
  73   0.0000       0.162883         4.4323 
  74   0.0000       0.165495         4.5034 
  75   0.0000       0.176963         4.8154 
  76   0.0000       0.185383         5.0445 
  77   0.0000       0.192348         5.2340 
  78   0.0000       0.195534         5.3207 
  79   0.0000       0.199404         5.4261 
  80   0.0000       0.204836         5.5739 
  81   0.0000       0.206859         5.6289 
  82   0.0000       0.220006         5.9867 
  83   0.0000       0.228161         6.2086 
  84   0.0000       0.232548         6.3280 
  85   0.0000       0.233360         6.3500 
  86   0.0000       0.240126         6.5342 
  87   0.0000       0.242065         6.5869 
  88   0.0000       0.255285         6.9467 
  89   0.0000       0.259252         7.0546 
  90   0.0000       0.263151         7.1607 
  91   0.0000       0.268304         7.3009 
  92   0.0000       0.275289         7.4910 
  93   0.0000       0.281050         7.6478 
  94   0.0000       0.285421         7.7667 
  95   0.0000       0.290502         7.9050 
  96   0.0000       0.293635         7.9902 
  97   0.0000       0.305115         8.3026 
  98   0.0000       0.306853         8.3499 
  99   0.0000       0.311592         8.4788 
 100   0.0000       0.316543         8.6136 
 101   0.0000       0.321117         8.7380 
 102   0.0000       0.330672         8.9980 
 103   0.0000       0.334486         9.1018 
 104   0.0000       0.337830         9.1928 
 105   0.0000       0.343573         9.3491 
 106   0.0000       0.350684         9.5426 
 107   0.0000       0.358355         9.7513 
 108   0.0000       0.359005         9.7690 
 109   0.0000       0.365684         9.9508 
 110   0.0000       0.375418        10.2157 
 111   0.0000       0.376978        10.2581 
 112   0.0000       0.385771        10.4974 
 113   0.0000       0.392241        10.6734 
 114   0.0000       0.401267        10.9190 
 115   0.0000       0.406693        11.0667 
 116   0.0000       0.417506        11.3609 
 117   0.0000       0.418929        11.3996 
 118   0.0000       0.422837        11.5060 
 119   0.0000       0.427272        11.6267 
 120   0.0000       0.429153        11.6778 
 121   0.0000       0.442527        12.0418 
 122   0.0000       0.446400        12.1472 
 123   0.0000       0.449866        12.2415 
 124   0.0000       0.458060        12.4644 
 125   0.0000       0.462018        12.5722 
 126   0.0000       0.463704        12.6180 
 127   0.0000       0.471742        12.8367 
 128   0.0000       0.475259        12.9325 
 129   0.0000       0.478491        13.0204 
 130   0.0000       0.481459        13.1012 
 131   0.0000       0.492761        13.4087 
 132   0.0000       0.496063        13.4986 
 133   0.0000       0.498365        13.5612 
 134   0.0000       0.504137        13.7183 
 135   0.0000       0.513737        13.9795 
 136   0.0000       0.521602        14.1935 
 137   0.0000       0.525386        14.2965 
 138   0.0000       0.528684        14.3862 
 139   0.0000       0.531507        14.4630 
 140   0.0000       0.542013        14.7489 
 141   0.0000       0.547870        14.9083 
 142   0.0000       0.555375        15.1125 
 143   0.0000       0.561811        15.2877 
 144   0.0000       0.574896        15.6437 
 145   0.0000       0.583058        15.8658 
 146   0.0000       0.587479        15.9861 
 147   0.0000       0.591394        16.0926 
 148   0.0000       0.599260        16.3067 
 149   0.0000       0.602940        16.4068 
 150   0.0000       0.613700        16.6996 
 151   0.0000       0.622488        16.9388 
 152   0.0000       0.636656        17.3243 
 153   0.0000       0.642715        17.4892 
 154   0.0000       0.653578        17.7848 
 155   0.0000       0.657769        17.8988 
 156   0.0000       0.659153        17.9365 
 157   0.0000       0.669819        18.2267 
 158   0.0000       0.672640        18.3035 
 159   0.0000       0.679934        18.5019 
 160   0.0000       0.687033        18.6951 
 161   0.0000       0.703158        19.1339 
 162   0.0000       0.709682        19.3114 
 163   0.0000       0.718217        19.5437 
 164   0.0000       0.725340        19.7375 
 165   0.0000       0.740056        20.1380 
 166   0.0000       0.744314        20.2538 
 167   0.0000       0.753215        20.4960 
 168   0.0000       0.763480        20.7754 
 169   0.0000       0.770763        20.9735 
 170   0.0000       0.787710        21.4347 
 171   0.0000       0.794499        21.6194 
 172   0.0000       0.801931        21.8216 
 173   0.0000       0.812393        22.1063 
 174   0.0000       0.819998        22.3133 
 175   0.0000       0.824661        22.4402 
 176   0.0000       0.835551        22.7365 
 177   0.0000       0.845528        23.0080 
 178   0.0000       0.863938        23.5090 
 179   0.0000       0.882454        24.0128 
 180   0.0000       0.893134        24.3034 
 181   0.0000       0.919985        25.0341 
 182   0.0000       0.932359        25.3708 
 183   0.0000       0.940967        25.6050 
 184   0.0000       0.942812        25.6552 
 185   0.0000       0.957344        26.0506 
 186   0.0000       0.966901        26.3107 
 187   0.0000       0.976102        26.5611 
 188   0.0000       0.983004        26.7489 
 189   0.0000       0.996647        27.1201 
 190   0.0000       1.009004        27.4564 
 191   0.0000       1.013818        27.5874 
 192   0.0000       1.017265        27.6812 
 193   0.0000       1.032852        28.1053 
 194   0.0000       1.045122        28.4392 
 195   0.0000       1.046491        28.4765 
 196   0.0000       1.057949        28.7883 
 197   0.0000       1.065959        29.0062 
 198   0.0000       1.078283        29.3416 
 199   0.0000       1.097803        29.8727 
 200   0.0000       1.113072        30.2882 
 201   0.0000       1.125053        30.6142 
 202   0.0000       1.138388        30.9771 
 203   0.0000       1.148339        31.2479 
 204   0.0000       1.162608        31.6362 
 205   0.0000       1.173523        31.9332 
 206   0.0000       1.180020        32.1100 
 207   0.0000       1.214475        33.0475 
 208   0.0000       1.226525        33.3755 
 209   0.0000       1.229630        33.4599 
 210   0.0000       1.255984        34.1771 
 211   0.0000       1.269475        34.5442 
 212   0.0000       1.277015        34.7493 
 213   0.0000       1.280569        34.8460 
 214   0.0000       1.306586        35.5540 
 215   0.0000       1.336770        36.3754 
 216   0.0000       1.348001        36.6810 
 217   0.0000       1.354947        36.8700 
 218   0.0000       1.392506        37.8920 
 219   0.0000       1.423724        38.7415 
 220   0.0000       1.430828        38.9348 
 221   0.0000       1.464651        39.8552 
 222   0.0000       1.471731        40.0478 
 223   0.0000       1.488271        40.4979 
 224   0.0000       1.535177        41.7743 
 225   0.0000       1.567287        42.6480 
 226   0.0000       1.568422        42.6789 
 227   0.0000       1.589023        43.2395 
 228   0.0000       1.609871        43.8068 
 229   0.0000       1.636186        44.5229 
 230   0.0000       1.657424        45.1008 
 231   0.0000       1.664057        45.2813 
 232   0.0000       1.668773        45.4096 
 233   0.0000       1.682180        45.7744 
 234   0.0000       1.700148        46.2634 
 235   0.0000       1.728200        47.0267 
 236   0.0000       1.749839        47.6155 
 237   0.0000       1.775247        48.3069 
 238   0.0000       1.779277        48.4166 
 239   0.0000       1.786965        48.6258 
 240   0.0000       1.805094        49.1191 
 241   0.0000       1.824471        49.6464 
 242   0.0000       1.829365        49.7795 
 243   0.0000       1.848486        50.2999 
 244   0.0000       1.856131        50.5079 
 245   0.0000       1.862185        50.6726 
 246   0.0000       1.875196        51.0267 
 247   0.0000       1.883523        51.2533 
 248   0.0000       1.898039        51.6483 
 249   0.0000       1.919174        52.2234 
 250   0.0000       1.936802        52.7031 
 251   0.0000       1.949791        53.0565 
 252   0.0000       1.976814        53.7919 
 253   0.0000       1.982718        53.9525 
 254   0.0000       1.990597        54.1669 
 255   0.0000       2.011558        54.7373 
 256   0.0000       2.023022        55.0492 
 257   0.0000       2.033409        55.3319 
 258   0.0000       2.050081        55.7855 
 259   0.0000       2.051783        55.8318 
 260   0.0000       2.069363        56.3102 
 261   0.0000       2.111030        57.4440 
 262   0.0000       2.114271        57.5322 
 263   0.0000       2.116853        57.6025 
 264   0.0000       2.146807        58.4176 
 265   0.0000       2.165119        58.9159 
 266   0.0000       2.173015        59.1308 
 267   0.0000       2.196922        59.7813 
 268   0.0000       2.214141        60.2498 
 269   0.0000       2.239740        60.9464 
 270   0.0000       2.266188        61.6661 
 271   0.0000       2.279360        62.0245 
 272   0.0000       2.323533        63.2265 
 273   0.0000       2.345455        63.8231 
 274   0.0000       2.375984        64.6538 
 275   0.0000       2.383274        64.8522 
 276   0.0000       2.413821        65.6834 
 277   0.0000       2.443064        66.4792 
 278   0.0000       2.449306        66.6490 
 279   0.0000       2.461214        66.9730 
 280   0.0000       2.486794        67.6691 
 281   0.0000       2.524958        68.7076 
 282   0.0000       2.538730        69.0824 
 283   0.0000       2.568822        69.9012 
 284   0.0000       2.590161        70.4819 
 285   0.0000       2.609996        71.0216 
 286   0.0000       2.619276        71.2741 
 287   0.0000       2.639087        71.8132 
 288   0.0000       2.656017        72.2739 
 289   0.0000       2.689966        73.1977 
 290   0.0000       2.726347        74.1877 
 291   0.0000       2.759080        75.0784 
 292   0.0000       2.797001        76.1103 
 293   0.0000       2.815553        76.6151 
 294   0.0000       2.822554        76.8056 
 295   0.0000       2.843760        77.3826 
 296   0.0000       2.870143        78.1006 
 297   0.0000       2.890329        78.6499 
 298   0.0000       2.903429        79.0063 
 299   0.0000       2.914159        79.2983 
 300   0.0000       2.930152        79.7335 
 301   0.0000       2.940152        80.0056 
 302   0.0000       2.984811        81.2208 
 303   0.0000       3.015344        82.0517 
 304   0.0000       3.045606        82.8752 
 305   0.0000       3.071617        83.5830 
 306   0.0000       3.128279        85.1248 
 307   0.0000       3.161971        86.0416 
 308   0.0000       3.197810        87.0168 
 309   0.0000       3.210725        87.3683 
 310   0.0000       3.219997        87.6206 
 311   0.0000       3.239000        88.1377 
 312   0.0000       3.255147        88.5770 
 313   0.0000       3.260036        88.7101 
 314   0.0000       3.268065        88.9286 
 315   0.0000       3.275996        89.1444 
 316   0.0000       3.315657        90.2236 
 317   0.0000       3.331920        90.6662 
 318   0.0000       3.431026        93.3630 
 319   0.0000       3.499901        95.2371 
 320   0.0000       3.535816        96.2144 
 321   0.0000       3.685494       100.2874 
 322   0.0000       3.707219       100.8786 
 323   0.0000       3.868650       105.2713 

                    ********************************
                    * MULLIKEN POPULATION ANALYSIS *
                    ********************************

-----------------------
MULLIKEN ATOMIC CHARGES
-----------------------
   0 C :    0.900052
   1 N :   -0.389967
   2 C :    0.085619
   3 C :    0.044858
   4 H :    0.179431
   5 H :   -0.101543
   6 S :    1.529304
   7 C :    0.580022
   8 C :    0.289986
   9 N :    0.573097
  10 H :   -0.407729
  11 H :   -0.186339
  12 H :   -0.252148
  13 H :   -0.336449
  14 H :   -0.244027
  15 F :   -0.405362
  16 O :   -0.678550
  17 O :   -0.849118
  18 H :    0.035984
  19 H :   -0.003153
  20 H :   -0.043504
  21 H :   -0.320466
Sum of atomic charges:   -0.0000000

--------------------------------
MULLIKEN REDUCED ORBITAL CHARGES
--------------------------------
  0 C s       :     2.582860  s :     2.582860
      pz      :     0.919852  p :     2.467619
      px      :     0.774030
      py      :     0.773737
      dz2     :     0.036890  d :     0.049470
      dxz     :     0.016959
      dyz     :     0.009014
      dx2y2   :    -0.037877
      dxy     :     0.024485
  1 N s       :     3.448251  s :     3.448251
      pz      :     1.294678  p :     3.754218
      px      :     1.203350
      py      :     1.256189
      dz2     :     0.043262  d :     0.187497
      dxz     :     0.016281
      dyz     :     0.021968
      dx2y2   :     0.066431
      dxy     :     0.039554
  2 C s       :     2.745456  s :     2.745456
      pz      :     1.012885  p :     2.796587
      px      :     0.867303
      py      :     0.916398
      dz2     :     0.092186  d :     0.372338
      dxz     :     0.014847
      dyz     :     0.102809
      dx2y2   :     0.050546
      dxy     :     0.111952
  3 C s       :     2.777176  s :     2.777176
      pz      :     0.844561  p :     2.882038
      px      :     0.910149
      py      :     1.127328
      dz2     :    -0.027297  d :     0.295928
      dxz     :     0.038767
      dyz     :     0.101432
      dx2y2   :     0.090398
      dxy     :     0.092629
  4 H s       :     0.751697  s :     0.751697
      pz      :    -0.002496  p :     0.068872
      px      :     0.036635
      py      :     0.034733
  5 H s       :     1.074264  s :     1.074264
      pz      :     0.040526  p :     0.027279
      px      :    -0.009621
      py      :    -0.003626
  6 S s       :     4.994441  s :     4.994441
      pz      :     3.004192  p :     8.708306
      px      :     2.980250
      py      :     2.723864
      dz2     :     0.156236  d :     0.767949
      dxz     :     0.197150
      dyz     :     0.126771
      dx2y2   :     0.171812
      dxy     :     0.115981
  7 C s       :     2.720847  s :     2.720847
      pz      :     0.835631  p :     2.241930
      px      :     0.577103
      py      :     0.829196
      dz2     :     0.027652  d :     0.457200
      dxz     :     0.150515
      dyz     :     0.077986
      dx2y2   :     0.185389
      dxy     :     0.015658
  8 C s       :     3.033911  s :     3.033911
      pz      :     0.983057  p :     2.628739
      px      :     0.878678
      py      :     0.767004
      dz2     :     0.013297  d :     0.047365
      dxz     :     0.010967
      dyz     :     0.000304
      dx2y2   :     0.023783
      dxy     :    -0.000987
  9 N s       :     2.801986  s :     2.801986
      pz      :     1.276125  p :     3.614355
      px      :     1.027047
      py      :     1.311182
      dz2     :     0.014755  d :     0.010563
      dxz     :     0.015431
      dyz     :    -0.020193
      dx2y2   :    -0.005950
      dxy     :     0.006521
 10 H s       :     1.361676  s :     1.361676
      pz      :    -0.054349  p :     0.046053
      px      :     0.087752
      py      :     0.012650
 11 H s       :     1.175146  s :     1.175146
      pz      :     0.031134  p :     0.011193
      px      :    -0.030533
      py      :     0.010591
 12 H s       :     1.219987  s :     1.219987
      pz      :     0.014858  p :     0.032161
      px      :     0.013914
      py      :     0.003389
 13 H s       :     1.259291  s :     1.259291
      pz      :     0.038353  p :     0.077158
      px      :     0.030130
      py      :     0.008675
 14 H s       :     1.175717  s :     1.175717
      pz      :     0.047417  p :     0.068309
      px      :    -0.000392
      py      :     0.021285
 15 F s       :     3.962076  s :     3.962076
      pz      :     1.938280  p :     5.416192
      px      :     1.925185
      py      :     1.552727
      dz2     :     0.002581  d :     0.027094
      dxz     :     0.002358
      dyz     :     0.009424
      dx2y2   :     0.007013
      dxy     :     0.005718
 16 O s       :     3.969899  s :     3.969899
      pz      :     1.734074  p :     4.679140
      px      :     1.518225
      py      :     1.426841
      dz2     :     0.000896  d :     0.029510
      dxz     :     0.001972
      dyz     :     0.010052
      dx2y2   :     0.014118
      dxy     :     0.002472
 17 O s       :     4.053637  s :     4.053637
      pz      :     1.396128  p :     4.790304
      px      :     1.641442
      py      :     1.752735
      dz2     :    -0.007963  d :     0.005176
      dxz     :     0.001186
      dyz     :     0.009873
      dx2y2   :    -0.003830
      dxy     :     0.005909
 18 H s       :     0.921471  s :     0.921471
      pz      :    -0.014452  p :     0.042545
      px      :     0.009822
      py      :     0.047174
 19 H s       :     1.000092  s :     1.000092
      pz      :     0.044854  p :     0.003061
      px      :    -0.016848
      py      :    -0.024945
 20 H s       :     0.979391  s :     0.979391
      pz      :     0.033417  p :     0.064113
      px      :     0.019162
      py      :     0.011535
 21 H s       :     1.289599  s :     1.289599
      pz      :    -0.033677  p :     0.030867
      px      :     0.030611
      py      :     0.033933


                     *******************************
                     * LOEWDIN POPULATION ANALYSIS *
                     *******************************

----------------------
LOEWDIN ATOMIC CHARGES
----------------------
   0 C :    0.084261
   1 N :   -0.003946
   2 C :   -0.001564
   3 C :   -0.036430
   4 H :    0.018898
   5 H :    0.016246
   6 S :    1.153364
   7 C :   -0.241385
   8 C :    0.140121
   9 N :    0.229461
  10 H :   -0.151554
  11 H :    0.014108
  12 H :    0.033570
  13 H :   -0.113866
  14 H :   -0.113574
  15 F :   -0.234864
  16 O :   -0.430211
  17 O :   -0.444240
  18 H :    0.027446
  19 H :    0.033086
  20 H :    0.001526
  21 H :    0.019549

-------------------------------
LOEWDIN REDUCED ORBITAL CHARGES
-------------------------------
  0 C s       :     2.659115  s :     2.659115
      pz      :     0.897178  p :     2.579872
      px      :     0.826256
      py      :     0.856438
      dz2     :     0.145504  d :     0.676752
      dxz     :     0.168905
      dyz     :     0.075005
      dx2y2   :     0.152575
      dxy     :     0.134763
  1 N s       :     2.911313  s :     2.911313
      pz      :     1.197859  p :     3.485786
      px      :     1.108826
      py      :     1.179101
      dz2     :     0.093264  d :     0.606847
      dxz     :     0.127067
      dyz     :     0.098109
      dx2y2   :     0.150000
      dxy     :     0.138406
  2 C s       :     2.687064  s :     2.687064
      pz      :     0.911581  p :     2.681498
      px      :     0.897613
      py      :     0.872305
      dz2     :     0.143748  d :     0.633002
      dxz     :     0.117058
      dyz     :     0.105746
      dx2y2   :     0.105582
      dxy     :     0.160868
  3 C s       :     2.716859  s :     2.716859
      pz      :     0.880398  p :     2.705027
      px      :     0.876941
      py      :     0.947688
      dz2     :     0.112157  d :     0.614544
      dxz     :     0.119633
      dyz     :     0.098370
      dx2y2   :     0.123928
      dxy     :     0.160456
  4 H s       :     0.711485  s :     0.711485
      pz      :     0.071424  p :     0.269617
      px      :     0.105346
      py      :     0.092848
  5 H s       :     0.724855  s :     0.724855
      pz      :     0.116036  p :     0.258899
      px      :     0.078346
      py      :     0.064518
  6 S s       :     4.662043  s :     4.662043
      pz      :     2.826638  p :     8.376885
      px      :     2.822505
      py      :     2.727742
      dz2     :     0.370462  d :     1.807708
      dxz     :     0.402652
      dyz     :     0.291430
      dx2y2   :     0.389946
      dxy     :     0.353218
  7 C s       :     2.626637  s :     2.626637
      pz      :     0.791297  p :     2.520120
      px      :     0.912236
      py      :     0.816587
      dz2     :     0.187101  d :     1.094629
      dxz     :     0.259775
      dyz     :     0.169179
      dx2y2   :     0.241701
      dxy     :     0.236872
  8 C s       :     2.734453  s :     2.734453
      pz      :     0.956545  p :     2.802122
      px      :     0.911958
      py      :     0.933619
      dz2     :     0.026925  d :     0.323303
      dxz     :     0.065616
      dyz     :     0.040710
      dx2y2   :     0.102491
      dxy     :     0.087562
  9 N s       :     2.907172  s :     2.907172
      pz      :     1.203597  p :     3.489229
      px      :     1.081288
      py      :     1.204345
      dz2     :     0.072674  d :     0.374138
      dxz     :     0.076075
      dyz     :     0.057962
      dx2y2   :     0.104319
      dxy     :     0.063107
 10 H s       :     0.602284  s :     0.602284
      pz      :     0.115088  p :     0.549271
      px      :     0.294426
      py      :     0.139757
 11 H s       :     0.656554  s :     0.656554
      pz      :     0.119963  p :     0.329338
      px      :     0.075068
      py      :     0.134307
 12 H s       :     0.646957  s :     0.646957
      pz      :     0.117474  p :     0.319473
      px      :     0.119188
      py      :     0.082810
 13 H s       :     0.778481  s :     0.778481
      pz      :     0.130362  p :     0.335386
      px      :     0.104521
      py      :     0.100502
 14 H s       :     0.778404  s :     0.778404
      pz      :     0.133461  p :     0.335170
      px      :     0.074459
      py      :     0.127250
 15 F s       :     3.704935  s :     3.704935
      pz      :     1.832943  p :     5.291219
      px      :     1.826692
      py      :     1.631584
      dz2     :     0.029015  d :     0.238710
      dxz     :     0.014482
      dyz     :     0.060269
      dx2y2   :     0.064332
      dxy     :     0.070611
 16 O s       :     3.571825  s :     3.571825
      pz      :     1.624595  p :     4.615166
      px      :     1.545925
      py      :     1.444646
      dz2     :     0.031077  d :     0.243220
      dxz     :     0.050148
      dyz     :     0.030736
      dx2y2   :     0.061639
      dxy     :     0.069620
 17 O s       :     3.517566  s :     3.517566
      pz      :     1.463239  p :     4.609648
      px      :     1.544473
      py      :     1.601935
      dz2     :     0.094254  d :     0.317026
      dxz     :     0.080826
      dyz     :     0.047301
      dx2y2   :     0.047021
      dxy     :     0.047624
 18 H s       :     0.713323  s :     0.713323
      pz      :     0.063621  p :     0.259231
      px      :     0.107276
      py      :     0.088334
 19 H s       :     0.723912  s :     0.723912
      pz      :     0.100972  p :     0.243002
      px      :     0.082002
      py      :     0.060028
 20 H s       :     0.700948  s :     0.700948
      pz      :     0.109940  p :     0.297526
      px      :     0.095790
      py      :     0.091796
 21 H s       :     0.742687  s :     0.742687
      pz      :     0.061105  p :     0.237764
      px      :     0.066085
      py      :     0.110574


                      *****************************
                      * MAYER POPULATION ANALYSIS *
                      *****************************

  NA   - Mulliken gross atomic population
  ZA   - Total nuclear charge
  QA   - Mulliken gross atomic charge
  VA   - Mayer's total valence
  BVA  - Mayer's bonded valence
  FA   - Mayer's free valence

  ATOM       NA         ZA         QA         VA         BVA        FA
  0 C      5.0999     6.0000     0.9001     3.8486     3.8486    -0.0000
  1 N      7.3900     7.0000    -0.3900     4.1133     4.1133     0.0000
  2 C      5.9144     6.0000     0.0856     4.6848     4.6848    -0.0000
  3 C      5.9551     6.0000     0.0449     4.4754     4.4754    -0.0000
  4 H      0.8206     1.0000     0.1794     1.0841     1.0841    -0.0000
  5 H      1.1015     1.0000    -0.1015     1.0644     1.0644    -0.0000
  6 S     14.4707    16.0000     1.5293     4.6366     4.6366     0.0000
  7 C      5.4200     6.0000     0.5800     3.2467     3.2467    -0.0000
  8 C      5.7100     6.0000     0.2900     3.4407     3.4407    -0.0000
  9 N      6.4269     7.0000     0.5731     3.5496     3.5496     0.0000
 10 H      1.4077     1.0000    -0.4077     0.7892     0.7892    -0.0000
 11 H      1.1863     1.0000    -0.1863     0.8125     0.8125     0.0000
 12 H      1.2521     1.0000    -0.2521     0.8719     0.8719     0.0000
 13 H      1.3364     1.0000    -0.3364     1.1857     1.1857    -0.0000
 14 H      1.2440     1.0000    -0.2440     1.1746     1.1746    -0.0000
 15 F      9.4054     9.0000    -0.4054     0.7874     0.7874    -0.0000
 16 O      8.6785     8.0000    -0.6785     1.7684     1.7684     0.0000
 17 O      8.8491     8.0000    -0.8491     1.8953     1.8953     0.0000
 18 H      0.9640     1.0000     0.0360     1.1499     1.1499    -0.0000
 19 H      1.0032     1.0000    -0.0032     0.9788     0.9788    -0.0000
 20 H      1.0435     1.0000    -0.0435     1.0758     1.0758     0.0000
 21 H      1.3205     1.0000    -0.3205     0.9688     0.9688    -0.0000

  Mayer bond orders larger than 0.100000
B(  0-C ,  1-N ) :   0.9259 B(  0-C ,  2-C ) :   1.0933 B(  0-C , 12-H ) :  -0.1978 
B(  0-C , 18-H ) :   0.1512 B(  0-C , 19-H ) :   0.1366 B(  0-C , 20-H ) :   0.7579 
B(  0-C , 21-H ) :   0.8584 B(  1-N ,  7-C ) :   0.9774 B(  1-N ,  8-C ) :   0.2190 
B(  1-N ,  9-N ) :   0.1500 B(  1-N , 12-H ) :   1.2704 B(  1-N , 20-H ) :   0.2282 
B(  1-N , 21-H ) :   0.1630 B(  2-C ,  3-C ) :   1.2945 B(  2-C ,  4-H ) :   0.1424 
B(  2-C ,  5-H ) :   0.1741 B(  2-C , 18-H ) :   0.8381 B(  2-C , 19-H ) :   0.8057 
B(  2-C , 20-H ) :   0.1394 B(  3-C ,  4-H ) :   0.8792 B(  3-C ,  5-H ) :   0.8098 
B(  3-C ,  6-S ) :   0.9253 B(  3-C , 17-O ) :   0.1655 B(  3-C , 18-H ) :   0.1280 
B(  3-C , 19-H ) :   0.1077 B(  6-S , 15-F ) :   0.6506 B(  6-S , 16-O ) :   1.5255 
B(  6-S , 17-O ) :   1.3843 B(  7-C ,  8-C ) :   1.3698 B(  7-C ,  9-N ) :   1.0834 
B(  7-C , 10-H ) :  -0.1033 B(  7-C , 11-H ) :  -0.1176 B(  7-C , 12-H ) :  -0.2096 
B(  7-C , 13-H ) :   0.1183 B(  7-C , 14-H ) :   0.1899 B(  8-C ,  9-N ) :   0.1608 
B(  8-C , 13-H ) :   0.8040 B(  8-C , 14-H ) :   0.8174 B(  9-N , 10-H ) :   0.9239 
B(  9-N , 11-H ) :   1.1892 B(  9-N , 20-H ) :   0.1240 B( 10-H , 11-H ) :  -0.2243 
B( 10-H , 17-O ) :   0.1038 B( 13-H , 14-H ) :   0.1679 B( 20-H , 21-H ) :  -0.1344 


-------
TIMINGS
-------

Total SCF time: 0 days 0 hours 0 min 34 sec 

Total time                  ....      34.306 sec
Sum of individual times     ....      33.973 sec  ( 99.0%)

Fock matrix formation       ....      31.950 sec  ( 93.1%)
  Split-RI-J                ....       5.255 sec  ( 16.4% of F)
  XC integration            ....      26.583 sec  ( 83.2% of F)
    Basis function eval.    ....       3.549 sec  ( 13.3% of XC)
    Density eval.           ....       9.608 sec  ( 36.1% of XC)
    XC-Functional eval.     ....       0.945 sec  (  3.6% of XC)
    XC-Potential eval.      ....      11.365 sec  ( 42.8% of XC)
Diagonalization             ....       0.173 sec  (  0.5%)
Density matrix formation    ....       0.016 sec  (  0.0%)
Population analysis         ....       0.024 sec  (  0.1%)
Initial guess               ....       0.487 sec  (  1.4%)
Orbital Transformation      ....       0.000 sec  (  0.0%)
Orbital Orthonormalization  ....       0.000 sec  (  0.0%)
DIIS solution               ....       0.088 sec  (  0.3%)
SOSCF solution              ....       0.194 sec  (  0.6%)
Grid generation             ....       1.042 sec  (  3.0%)

Maximum memory used throughout the entire SCF-calculation: 44.2 MB


-------------------------------------------------------------------------------
                          DFT DISPERSION CORRECTION                            
                                                                               
                              DFTD3 V3.1  Rev 1                                
                          USING Becke-Johnson damping                          
-------------------------------------------------------------------------------
The TPSS functional is recognized
Active option DFTDOPT                   ...         4   

molecular C6(AA) [au] = 4999.710168 


            DFT-D V3
 parameters
 s6 scaling factor         :     1.0000 
 a1 scaling factor         :     0.4535 
 s8 scaling factor         :     1.9435 
 a2 scaling factor         :     4.4752 
 ad hoc parameters k1-k3   :    16.0000     1.3333    -4.0000 

 Edisp/kcal,au: -19.779475294616  -0.031520596903 
 E6   /kcal   : -10.034674533 
 E8   /kcal   :  -9.744800762 
 % E8         :  49.267235945 

-------------------------   ----------------
Dispersion correction           -0.031520597
-------------------------   ----------------


-------------------------   --------------------
FINAL SINGLE POINT ENERGY      -954.632035090483
-------------------------   --------------------


                            ***************************************
                            *     ORCA property calculations      *
                            ***************************************

                                    ---------------------
                                    Active property flags
                                    ---------------------
   (+) Dipole Moment


------------------------------------------------------------------------------
                       ORCA ELECTRIC PROPERTIES CALCULATION
------------------------------------------------------------------------------

Dipole Moment Calculation                       ... on
Quadrupole Moment Calculation                   ... off
Polarizability Calculation                      ... off
GBWName                                         ... 28Oct_SVPD_TPSS_D2_wb97.gbw
Electron density file                           ... 28Oct_SVPD_TPSS_D2_wb97.scfp
The origin for moment calculation is the CENTER OF MASS  = ( 4.263140,  0.757516 -6.568646)

-------------
DIPOLE MOMENT
-------------
                                X             Y             Z
Electronic contribution:    -16.72360      -5.21677      -0.41119
Nuclear contribution   :     16.05479       5.17692       1.74190
                        -----------------------------------------
Total Dipole Moment    :     -0.66882      -0.03985       1.33070
                        -----------------------------------------
Magnitude (a.u.)       :      1.48986
Magnitude (Debye)      :      3.78691



--------------------
Rotational spectrum 
--------------------
 
Rotational constants in cm-1:     0.058652     0.021107     0.018077 
Rotational constants in MHz :  1758.344290   632.763813   541.920558 

 Dipole components along the rotational axes: 
x,y,z [a.u.] :     0.916296    -0.641604    -0.984082 
x,y,z [Debye]:     2.329038    -1.630827    -2.501338 

 

Timings for individual modules:

Sum of individual times         ...       35.225 sec (=   0.587 min)
GTO integral calculation        ...        0.606 sec (=   0.010 min)   1.7 %
SCF iterations                  ...       34.619 sec (=   0.577 min)  98.3 %
                             ****ORCA TERMINATED NORMALLY****
TOTAL RUN TIME: 0 days 0 hours 0 minutes 35 seconds 786 msec
