
                                        *****************
                                        * O   R   C   A *
                                        *****************

                                            #,                                       
                                            ###                                      
                                            ####                                     
                                            #####                                    
                                            ######                                   
                                           ########,                                 
                                     ,,################,,,,,                         
                               ,,#################################,,                 
                          ,,##########################################,,             
                       ,#########################################, ''#####,          
                    ,#############################################,,   '####,        
                  ,##################################################,,,,####,       
                ,###########''''           ''''###############################       
              ,#####''   ,,,,##########,,,,          '''####'''          '####       
            ,##' ,,,,###########################,,,                        '##       
           ' ,,###''''                  '''############,,,                           
         ,,##''                                '''############,,,,        ,,,,,,###''
      ,#''                                            '''#######################'''  
     '                                                          ''''####''''         
             ,#######,   #######,   ,#######,      ##                                
            ,#'     '#,  ##    ##  ,#'     '#,    #''#        ######   ,####,        
            ##       ##  ##   ,#'  ##            #'  '#       #        #'  '#        
            ##       ##  #######   ##           ,######,      #####,   #    #        
            '#,     ,#'  ##    ##  '#,     ,#' ,#      #,         ##   #,  ,#        
             '#######'   ##     ##  '#######'  #'      '#     #####' # '####'        



                  #######################################################
                  #                        -***-                        #
                  #          Department of theory and spectroscopy      #
                  #    Directorship and core code : Frank Neese         #
                  #        Max Planck Institute fuer Kohlenforschung    #
                  #                Kaiser Wilhelm Platz 1               #
                  #                 D-45470 Muelheim/Ruhr               #
                  #                      Germany                        #
                  #                                                     #
                  #                  All rights reserved                #
                  #                        -***-                        #
                  #######################################################


                         Program Version 5.0.0 -  RELEASE  -
                                (SVN: $Rev: 19529$)
                ($Date: 2021-06-28 11:36:33 +0200 (Mo, 28 Jun 2021) $)


 With contributions from (in alphabetic order):
   Daniel Aravena         : Magnetic Suceptibility
   Michael Atanasov       : Ab Initio Ligand Field Theory (pilot matlab implementation)
   Alexander A. Auer      : GIAO ZORA, VPT2 properties, NMR spectrum
   Ute Becker             : Parallelization
   Giovanni Bistoni       : ED, misc. LED, open-shell LED, HFLD
   Martin Brehm           : Molecular dynamics
   Dmytro Bykov           : SCF Hessian
   Vijay G. Chilkuri      : MRCI spin determinant printing, contributions to CSF-ICE
   Dipayan Datta          : RHF DLPNO-CCSD density
   Achintya Kumar Dutta   : EOM-CC, STEOM-CC
   Dmitry Ganyushin       : Spin-Orbit,Spin-Spin,Magnetic field MRCI
   Miquel Garcia          : C-PCM Hessian, Gaussian charge scheme
   Yang Guo               : DLPNO-NEVPT2, F12-NEVPT2, CIM, IAO-localization
   Andreas Hansen         : Spin unrestricted coupled pair/coupled cluster methods
   Benjamin Helmich-Paris : MC-RPA, TRAH-SCF, COSX integrals
   Lee Huntington         : MR-EOM, pCC
   Robert Izsak           : Overlap fitted RIJCOSX, COSX-SCS-MP3, EOM
   Marcus Kettner         : VPT2
   Christian Kollmar      : KDIIS, OOCD, Brueckner-CCSD(T), CCSD density, CASPT2, CASPT2-K
   Simone Kossmann        : Meta GGA functionals, TD-DFT gradient, OOMP2, MP2 Hessian
   Martin Krupicka        : Initial AUTO-CI
   Lucas Lang             : DCDCAS
   Marvin Lechner         : AUTO-CI (C++ implementation), FIC-MRCC
   Dagmar Lenk            : GEPOL surface, SMD
   Dimitrios Liakos       : Extrapolation schemes; Compound Job, initial MDCI parallelization
   Dimitrios Manganas     : Further ROCIS development; embedding schemes
   Dimitrios Pantazis     : SARC Basis sets
   Anastasios Papadopoulos: AUTO-CI, single reference methods and gradients
   Taras Petrenko         : DFT Hessian,TD-DFT gradient, ASA, ECA, R-Raman, ABS, FL, XAS/XES, NRVS
   Peter Pinski           : DLPNO-MP2, DLPNO-MP2 Gradient
   Christoph Reimann      : Effective Core Potentials
   Marius Retegan         : Local ZFS, SOC
   Christoph Riplinger    : Optimizer, TS searches, QM/MM, DLPNO-CCSD(T), (RO)-DLPNO pert. Triples
   Tobias Risthaus        : Range-separated hybrids, TD-DFT gradient, RPA, STAB
   Michael Roemelt        : Original ROCIS implementation
   Masaaki Saitow         : Open-shell DLPNO-CCSD energy and density
   Barbara Sandhoefer     : DKH picture change effects
   Avijit Sen             : IP-ROCIS
   Kantharuban Sivalingam : CASSCF convergence, NEVPT2, FIC-MRCI
   Bernardo de Souza      : ESD, SOC TD-DFT
   Georgi Stoychev        : AutoAux, RI-MP2 NMR
   Willem Van den Heuvel  : Paramagnetic NMR
   Boris Wezisla          : Elementary symmetry handling
   Frank Wennmohs         : Technical directorship


 We gratefully acknowledge several colleagues who have allowed us to
 interface, adapt or use parts of their codes:
   Stefan Grimme, W. Hujo, H. Kruse, P. Pracht,  : VdW corrections, initial TS optimization,
                  C. Bannwarth, S. Ehlert          DFT functionals, gCP, sTDA/sTD-DF
   Ed Valeev, F. Pavosevic, A. Kumar             : LibInt (2-el integral package), F12 methods
   Garnet Chan, S. Sharma, J. Yang, R. Olivares  : DMRG
   Ulf Ekstrom                                   : XCFun DFT Library
   Mihaly Kallay                                 : mrcc  (arbitrary order and MRCC methods)
   Jiri Pittner, Ondrej Demel                    : Mk-CCSD
   Frank Weinhold                                : gennbo (NPA and NBO analysis)
   Christopher J. Cramer and Donald G. Truhlar   : smd solvation model
   Lars Goerigk                                  : TD-DFT with DH, B97 family of functionals
   V. Asgeirsson, H. Jonsson                     : NEB implementation
   FAccTs GmbH                                   : IRC, NEB, NEB-TS, DLPNO-Multilevel, CI-OPT
                                                   MM, QMMM, 2- and 3-layer-ONIOM, Crystal-QMMM,
                                                   LR-CPCM, SF, NACMEs, symmetry and pop. for TD-DFT,
                                                   nearIR, NL-DFT gradient (VV10), updates on ESD,
                                                   ML-optimized integration grids
   S Lehtola, MJT Oliveira, MAL Marques          : LibXC Library
   Liviu Ungur et al                             : ANISO software


 Your calculation uses the libint2 library for the computation of 2-el integrals
 For citations please refer to: http://libint.valeyev.net

 Your ORCA version has been built with support for libXC version: 5.1.0
 For citations please refer to: https://tddft.org/programs/libxc/

 This ORCA versions uses:
   CBLAS   interface :  Fast vector & matrix operations
   LAPACKE interface :  Fast linear algebra routines
   SCALAPACK package :  Parallel linear algebra routines
   Shared memory     :  Shared parallel matrices
   BLAS/LAPACK       :  OpenBLAS 0.3.15  USE64BITINT DYNAMIC_ARCH NO_AFFINITY Haswell SINGLE_THREADED
        Core in use  :  Haswell
   Copyright (c) 2011-2014, The OpenBLAS Project


Your calculation utilizes the atom-pairwise dispersion correction
with the Becke-Johnson damping scheme (D3BJ)
Cite in your paper:
S.Grimme, S.Ehrlich, L.Goerigk, J Comput Chem, (2011), 32, 1456–1465 
S.Grimme, J.Antony, S.Ehrlich and H.Krieg, J.Chem.Phys., 132, (2010), 154104 
   

================================================================================

----- Orbital basis set information -----
Your calculation utilizes the basis: def2-SVP
   F. Weigend and R. Ahlrichs, Phys. Chem. Chem. Phys. 7, 3297 (2005).

----- AuxJ basis set information -----
Your calculation utilizes the auxiliary basis: def2/J
   F. Weigend, Phys. Chem. Chem. Phys. 8, 1057 (2006).

================================================================================
                                        WARNINGS
                       Please study these warnings very carefully!
================================================================================



WARNING: Found flag for RIJCOSX approximation but no HF exchange needed!
  ===> : RIJCOSX  will be disabled and Split-RI-J is turned on

INFO   : the flag for use of the SHARK integral package has been found!

================================================================================
                                       INPUT FILE
================================================================================
NAME = SVP_TPSS_C1_wt_dlpno_neg.com
|  1> !TPSS D3BJ RIJCOSX def2-SVP def2/J TightSCF
|  2> *xyz 0 1
|  3> C         -0.90349       -0.87394       -1.98739
|  4> C         -0.96015       -0.52236       -0.48987
|  5> H         -1.69039       -1.20813       -0.02168
|  6> H         -1.41449        0.48633       -0.40668
|  7> F          0.26170       -0.58031        0.13861
|  8> H         -1.88568       -0.80774       -2.40670
|  9> H         -0.53143       -1.87013       -2.10605
| 10> H         -0.25399       -0.18836       -2.49039
| 11> *
| 12> 
| 13> %MaxCore 64000
| 14> 
| 15> %pal nprocs 4
| 16> end  
| 17> 
| 18> %scf
| 19>   MaxIter 150
| 20> end
| 21> 
| 22> 
| 23>                          ****END OF INPUT****
================================================================================

                       ****************************
                       * Single Point Calculation *
                       ****************************

---------------------------------
CARTESIAN COORDINATES (ANGSTROEM)
---------------------------------
  C     -0.903490   -0.873940   -1.987390
  C     -0.960150   -0.522360   -0.489870
  H     -1.690390   -1.208130   -0.021680
  H     -1.414490    0.486330   -0.406680
  F      0.261700   -0.580310    0.138610
  H     -1.885680   -0.807740   -2.406700
  H     -0.531430   -1.870130   -2.106050
  H     -0.253990   -0.188360   -2.490390

----------------------------
CARTESIAN COORDINATES (A.U.)
----------------------------
  NO LB      ZA    FRAG     MASS         X           Y           Z
   0 C     6.0000    0    12.011   -1.707349   -1.651507   -3.755623
   1 C     6.0000    0    12.011   -1.814421   -0.987117   -0.925720
   2 H     1.0000    0     1.008   -3.194374   -2.283035   -0.040969
   3 H     1.0000    0     1.008   -2.672999    0.919031   -0.768514
   4 F     9.0000    0    18.998    0.494541   -1.096627    0.261935
   5 H     1.0000    0     1.008   -3.563419   -1.526407   -4.548004
   6 H     1.0000    0     1.008   -1.004257   -3.534034   -3.979858
   7 H     1.0000    0     1.008   -0.479972   -0.355949   -4.706155

--------------------------------
INTERNAL COORDINATES (ANGSTROEM)
--------------------------------
 C      0   0   0     0.000000000000     0.00000000     0.00000000
 C      1   0   0     1.539280676940     0.00000000     0.00000000
 H      2   1   0     1.105772502190   107.13211972     0.00000000
 H      2   1   3     1.109414678017   107.19915763   247.53924732
 F      2   1   3     1.375231884229   113.72030747   123.71369739
 H      1   2   3     1.070000239346   109.47082948    56.28555982
 H      1   2   3     1.070001567896   109.47144978   296.28617345
 H      1   2   3     1.069990273974   109.47165957   176.28585751

---------------------------
INTERNAL COORDINATES (A.U.)
---------------------------
 C      0   0   0     0.000000000000     0.00000000     0.00000000
 C      1   0   0     2.908818922653     0.00000000     0.00000000
 H      2   1   0     2.089607195560   107.13211972     0.00000000
 H      2   1   3     2.096489910405   107.19915763   247.53924732
 F      2   1   3     2.598811631829   113.72030747   123.71369739
 H      1   2   3     2.022007415594   109.47082948    56.28555982
 H      1   2   3     2.022009926190   109.47144978   296.28617345
 H      1   2   3     2.021988583771   109.47165957   176.28585751

---------------------
BASIS SET INFORMATION
---------------------
There are 3 groups of distinct atoms

 Group   1 Type C   : 7s4p1d contracted to 3s2p1d pattern {511/31/1}
 Group   2 Type H   : 4s1p contracted to 2s1p pattern {31/1}
 Group   3 Type F   : 7s4p1d contracted to 3s2p1d pattern {511/31/1}

Atom   0C    basis set group =>   1
Atom   1C    basis set group =>   1
Atom   2H    basis set group =>   2
Atom   3H    basis set group =>   2
Atom   4F    basis set group =>   3
Atom   5H    basis set group =>   2
Atom   6H    basis set group =>   2
Atom   7H    basis set group =>   2
---------------------------------
AUXILIARY/J BASIS SET INFORMATION
---------------------------------
There are 3 groups of distinct atoms

 Group   1 Type C   : 12s5p4d2f1g contracted to 6s4p3d1f1g pattern {711111/2111/211/2/1}
 Group   2 Type H   : 5s2p1d contracted to 3s1p1d pattern {311/2/1}
 Group   3 Type F   : 12s5p4d2f1g contracted to 6s4p3d1f1g pattern {711111/2111/211/2/1}

Atom   0C    basis set group =>   1
Atom   1C    basis set group =>   1
Atom   2H    basis set group =>   2
Atom   3H    basis set group =>   2
Atom   4F    basis set group =>   3
Atom   5H    basis set group =>   2
Atom   6H    basis set group =>   2
Atom   7H    basis set group =>   2


           ************************************************************
           *        Program running with 4 parallel MPI-processes     *
           *              working on a common directory               *
           ************************************************************
------------------------------------------------------------------------------
                           ORCA GTO INTEGRAL CALCULATION
                           -- RI-GTO INTEGRALS CHOSEN --
------------------------------------------------------------------------------
------------------------------------------------------------------------------
                   ___                                                        
                  /   \      - P O W E R E D   B Y -                         
                 /     \                                                     
                 |  |  |   _    _      __       _____    __    __             
                 |  |  |  | |  | |    /  \     |  _  \  |  |  /  |          
                  \  \/   | |  | |   /    \    | | | |  |  | /  /          
                 / \  \   | |__| |  /  /\  \   | |_| |  |  |/  /          
                |  |  |   |  __  | /  /__\  \  |    /   |      \           
                |  |  |   | |  | | |   __   |  |    \   |  |\   \          
                \     /   | |  | | |  |  |  |  | |\  \  |  | \   \       
                 \___/    |_|  |_| |__|  |__|  |_| \__\ |__|  \__/        
                                                                              
                      - O R C A' S   B I G   F R I E N D -                    
                                      &                                       
                       - I N T E G R A L  F E E D E R -                       
                                                                              
 v1 FN, 2020, v2 2021                                                         
------------------------------------------------------------------------------


Reading SHARK input file SVP_TPSS_C1_wt_dlpno_neg.SHARKINP.tmp ... ok
----------------------
SHARK INTEGRAL PACKAGE
----------------------

Number of atoms                             ...      8
Number of basis functions                   ...     67
Number of shells                            ...     33
Maximum angular momentum                    ...      2
Integral batch strategy                     ... SHARK/LIBINT Hybrid
RI-J (if used) integral strategy            ... SPLIT-RIJ (Revised 2003 algorithm where possible)
Printlevel                                  ...      1
Contraction scheme used                     ... SEGMENTED contraction
Coulomb Range Separation                    ... NOT USED
Exchange Range Separation                   ... NOT USED
Finite Nucleus Model                        ... NOT USED
Auxiliary Coulomb fitting basis             ... AVAILABLE
   # of basis functions in Aux-J            ...    202
   # of shells in Aux-J                     ...     70
   Maximum angular momentum in Aux-J        ...      4
Auxiliary J/K fitting basis                 ... NOT available
Auxiliary Correlation fitting basis         ... NOT available
Auxiliary 'external' fitting basis          ... NOT available
Integral threshold                          ...     2.500000e-11
Primitive cut-off                           ...     2.500000e-12
Primitive pair pre-selection threshold      ...     2.500000e-12

Calculating pre-screening integrals         ... done (  0.0 sec) Dimension = 33
Organizing shell pair data                  ... done (  0.0 sec)
Shell pair information
Total number of shell pairs                 ...       561
Shell pairs after pre-screening             ...       559
Total number of primitive shell pairs       ...      1945
Primitive shell pairs kept                  ...      1673
          la=0 lb=0:    189 shell pairs
          la=1 lb=0:    208 shell pairs
          la=1 lb=1:     66 shell pairs
          la=2 lb=0:     57 shell pairs
          la=2 lb=1:     33 shell pairs
          la=2 lb=2:      6 shell pairs

Calculating one electron integrals          ... done (  0.0 sec)
Calculating RI/J V-Matrix + Cholesky decomp.... done (  0.0 sec)
Calculating Nuclear repulsion               ... done (  0.0 sec) ENN=     78.880038090848 Eh

SHARK setup successfully completed in   0.1 seconds

Maximum memory used throughout the entire GTOINT-calculation: 8.7 MB


           ************************************************************
           *        Program running with 4 parallel MPI-processes     *
           *              working on a common directory               *
           ************************************************************
-------------------------------------------------------------------------------
                                 ORCA SCF
-------------------------------------------------------------------------------

------------
SCF SETTINGS
------------
Hamiltonian:
 Density Functional     Method          .... DFT(GTOs)
 Exchange Functional    Exchange        .... TPSS
 Correlation Functional Correlation     .... TPSS
 LDA part of GGA corr.  LDAOpt          .... PW91-LDA
 Gradients option       PostSCFGGA      .... off
   Density functional embedding theory  .... OFF
   NL short-range parameter             ....  5.000000
 RI-approximation to the Coulomb term is turned on
   Number of AuxJ basis functions       .... 202


General Settings:
 Integral files         IntName         .... SVP_TPSS_C1_wt_dlpno_neg
 Hartree-Fock type      HFTyp           .... RHF
 Total Charge           Charge          ....    0
 Multiplicity           Mult            ....    1
 Number of Electrons    NEL             ....   26
 Basis Dimension        Dim             ....   67
 Nuclear Repulsion      ENuc            ....     78.8800380908 Eh

Convergence Acceleration:
 DIIS                   CNVDIIS         .... on
   Start iteration      DIISMaxIt       ....    12
   Startup error        DIISStart       ....  0.200000
   # of expansion vecs  DIISMaxEq       ....     5
   Bias factor          DIISBfac        ....   1.050
   Max. coefficient     DIISMaxC        ....  10.000
 Trust-Rad. Augm. Hess. CNVTRAH         .... auto
   Auto Start mean grad. ratio tolernc. ....  1.125000
   Auto Start start iteration           ....    20
   Auto Start num. interpolation iter.  ....    10
   Max. Number of Micro iterations      ....    16
   Max. Number of Macro iterations      .... Maxiter - #DIIS iter
   Number of Davidson start vectors     ....     2
   Converg. threshold I  (grad. norm)   ....   1.000e-05
   Converg. threshold II (energy diff.) ....   1.000e-08
   Grad. Scal. Fac. for Micro threshold ....   0.100
   Minimum threshold for Micro iter.    ....   0.010
   NR start threshold (gradient norm)   ....   0.001
   Initial trust radius                 ....   0.400
   Minimum AH scaling param. (alpha)    ....   1.000
   Maximum AH scaling param. (alpha)    .... 1000.000
   Orbital update algorithm             .... Taylor
   White noise on init. David. guess    .... on
   Maximum white noise                  ....   0.010
   Quad. conv. algorithm                .... NR
 SOSCF                  CNVSOSCF        .... on
   Start iteration      SOSCFMaxIt      ....   150
   Startup grad/error   SOSCFStart      ....  0.003300
 Level Shifting         CNVShift        .... on
   Level shift para.    LevelShift      ....    0.2500
   Turn off err/grad.   ShiftErr        ....    0.0010
 Zerner damping         CNVZerner       .... off
 Static damping         CNVDamp         .... on
   Fraction old density DampFac         ....    0.7000
   Max. Damping (<1)    DampMax         ....    0.9800
   Min. Damping (>=0)   DampMin         ....    0.0000
   Turn off err/grad.   DampErr         ....    0.1000
 Fernandez-Rico         CNVRico         .... off

SCF Procedure:
 Maximum # iterations   MaxIter         ....   150
 SCF integral mode      SCFMode         .... Direct
   Integral package                     .... SHARK and LIBINT hybrid scheme
 Reset frequency        DirectResetFreq ....    20
 Integral Threshold     Thresh          ....  2.500e-11 Eh
 Primitive CutOff       TCut            ....  2.500e-12 Eh

Convergence Tolerance:
 Convergence Check Mode ConvCheckMode   .... Total+1el-Energy
 Convergence forced     ConvForced      .... 0
 Energy Change          TolE            ....  1.000e-08 Eh
 1-El. energy change                    ....  1.000e-05 Eh
 Orbital Gradient       TolG            ....  1.000e-05
 Orbital Rotation angle TolX            ....  1.000e-05
 DIIS Error             TolErr          ....  5.000e-07


Diagonalization of the overlap matrix:
Smallest eigenvalue                        ... 4.221e-03
Time for diagonalization                   ...    0.002 sec
Threshold for overlap eigenvalues          ... 1.000e-08
Number of eigenvalues below threshold      ... 0
Time for construction of square roots      ...    0.002 sec
Total time needed                          ...    0.005 sec

Time for model grid setup =    0.033 sec

------------------------------
INITIAL GUESS: MODEL POTENTIAL
------------------------------
Loading Hartree-Fock densities                     ... done
Calculating cut-offs                               ... done
Initializing the effective Hamiltonian             ... done
Setting up the integral package (SHARK)            ... done
Starting the Coulomb interaction                   ... done (   0.0 sec)
Reading the grid                                   ... done
Mapping shells                                     ... done
Starting the XC term evaluation                    ... done (   0.0 sec)
  promolecular density results
     # of electrons  =     25.997911200
     EX              =    -21.681818171
     EC              =     -0.848047944
     EX+EC           =    -22.529866115
Transforming the Hamiltonian                       ... done (   0.0 sec)
Diagonalizing the Hamiltonian                      ... done (   0.0 sec)
Back transforming the eigenvectors                 ... done (   0.0 sec)
Now organizing SCF variables                       ... done
                      ------------------
                      INITIAL GUESS DONE (   0.1 sec)
                      ------------------
-------------------
DFT GRID GENERATION
-------------------

General Integration Accuracy     IntAcc      ... 4.388
Radial Grid Type                 RadialGrid  ... OptM3 with GC (2021)
Angular Grid (max. ang.)         AngularGrid ... 4 (Lebedev-302)
Angular grid pruning method      GridPruning ... 4 (adaptive)
Weight generation scheme         WeightScheme... Becke
Basis function cutoff            BFCut       ... 1.0000e-11
Integration weight cutoff        WCut        ... 1.0000e-14
Angular grids for H and He will be reduced by one unit
Partially contracted basis set               ... off
Rotationally invariant grid construction     ... off

Total number of grid points                  ...    34539
Total number of batches                      ...      544
Average number of points per batch           ...       63
Average number of grid points per atom       ...     4317
Time for grid setup =    0.181 sec

--------------
SCF ITERATIONS
--------------
ITER       Energy         Delta-E        Max-DP      RMS-DP      [F,P]     Damp
               ***  Starting incremental Fock matrix formation  ***
  0   -178.8733121638   0.000000000000 0.07697574  0.00285238  0.1667078 0.7000
  1   -178.9053895965  -0.032077432665 0.04532915  0.00204303  0.0833848 0.7000
                               ***Turning on DIIS***
  2   -178.9181125490  -0.012722952468 0.05435154  0.00342877  0.0276091 0.0000
  3   -178.9353721104  -0.017259561423 0.03695594  0.00144078  0.0502169 0.0000
  4   -178.9410159237  -0.005643813248 0.00613772  0.00039574  0.0072706 0.0000
                      *** Initiating the SOSCF procedure ***
                           *** Shutting down DIIS ***
                      *** Re-Reading the Fockian *** 
                      *** Removing any level shift *** 
ITER      Energy       Delta-E        Grad      Rot      Max-DP    RMS-DP
  5   -178.94121981  -0.0002038897  0.000729  0.000729  0.002192  0.000161
               *** Restarting incremental Fock matrix formation ***
  6   -178.94123605  -0.0000162412  0.000329  0.000682  0.001326  0.000107
  7   -178.94123389   0.0000021691  0.000556  0.000377  0.000925  0.000046
  8   -178.94123849  -0.0000046007  0.000044  0.000134  0.000231  0.000016
  9   -178.94123847   0.0000000126  0.000053  0.000047  0.000084  0.000007
 10   -178.94123853  -0.0000000544  0.000003  0.000009  0.000010  0.000001
                 **** Energy Check signals convergence ****
              ***Rediagonalizing the Fockian in SOSCF/NRSCF***

               *****************************************************
               *                     SUCCESS                       *
               *           SCF CONVERGED AFTER  11 CYCLES          *
               *****************************************************


----------------
TOTAL SCF ENERGY
----------------

Total Energy       :         -178.94123853 Eh           -4869.23865 eV

Components:
Nuclear Repulsion  :           78.88003809 Eh            2146.43496 eV
Electronic Energy  :         -257.82127662 Eh           -7015.67361 eV
One Electron Energy:         -400.99862756 Eh          -10911.72740 eV
Two Electron Energy:          143.17735094 Eh            3896.05379 eV

Virial components:
Potential Energy   :         -356.46163514 Eh           -9699.81422 eV
Kinetic Energy     :          177.52039661 Eh            4830.57557 eV
Virial Ratio       :            2.00800382


DFT components:
N(Alpha)           :       12.999990716863 electrons
N(Beta)            :       12.999990716863 electrons
N(Total)           :       25.999981433727 electrons
E(X)               :      -22.358213251241 Eh       
E(C)               :       -0.858616883792 Eh       
E(XC)              :      -23.216830135033 Eh       
DFET-embed. en.    :        0.000000000000 Eh       

---------------
SCF CONVERGENCE
---------------

  Last Energy change         ...   -7.9402e-10  Tolerance :   1.0000e-08
  Last MAX-Density change    ...    2.5533e-06  Tolerance :   1.0000e-07
  Last RMS-Density change    ...    2.3654e-07  Tolerance :   5.0000e-09
  Last Orbital Gradient      ...    1.6034e-06  Tolerance :   1.0000e-05
  Last Orbital Rotation      ...    2.4240e-06  Tolerance :   1.0000e-05

             **** THE GBW FILE WAS UPDATED (SVP_TPSS_C1_wt_dlpno_neg.gbw) ****
             **** DENSITY SVP_TPSS_C1_wt_dlpno_neg.scfp WAS UPDATED ****
             **** ENERGY FILE WAS UPDATED (SVP_TPSS_C1_wt_dlpno_neg.en.tmp) ****
             **** THE GBW FILE WAS UPDATED (SVP_TPSS_C1_wt_dlpno_neg.gbw) ****
             **** DENSITY SVP_TPSS_C1_wt_dlpno_neg.scfp WAS UPDATED ****
----------------
ORBITAL ENERGIES
----------------

  NO   OCC          E(Eh)            E(eV) 
   0   2.0000     -24.390730      -663.7055 
   1   2.0000     -10.071715      -274.0653 
   2   2.0000      -9.996624      -272.0220 
   3   2.0000      -1.086734       -29.5715 
   4   2.0000      -0.697815       -18.9885 
   5   2.0000      -0.569586       -15.4992 
   6   2.0000      -0.446922       -12.1614 
   7   2.0000      -0.439766       -11.9666 
   8   2.0000      -0.396844       -10.7987 
   9   2.0000      -0.358532        -9.7561 
  10   2.0000      -0.353446        -9.6178 
  11   2.0000      -0.280355        -7.6288 
  12   2.0000      -0.278888        -7.5889 
  13   0.0000       0.054054         1.4709 
  14   0.0000       0.097131         2.6431 
  15   0.0000       0.102423         2.7871 
  16   0.0000       0.109750         2.9864 
  17   0.0000       0.130266         3.5447 
  18   0.0000       0.142399         3.8749 
  19   0.0000       0.197902         5.3852 
  20   0.0000       0.405815        11.0428 
  21   0.0000       0.424156        11.5419 
  22   0.0000       0.448334        12.1998 
  23   0.0000       0.473509        12.8848 
  24   0.0000       0.527918        14.3654 
  25   0.0000       0.565616        15.3912 
  26   0.0000       0.613888        16.7047 
  27   0.0000       0.625898        17.0315 
  28   0.0000       0.643810        17.5189 
  29   0.0000       0.669407        18.2155 
  30   0.0000       0.678164        18.4538 
  31   0.0000       0.709701        19.3120 
  32   0.0000       0.892804        24.2944 
  33   0.0000       1.063070        28.9276 
  34   0.0000       1.063100        28.9284 
  35   0.0000       1.135827        30.9074 
  36   0.0000       1.273785        34.6615 
  37   0.0000       1.328804        36.1586 
  38   0.0000       1.354258        36.8512 
  39   0.0000       1.508140        41.0386 
  40   0.0000       1.531049        41.6620 
  41   0.0000       1.668723        45.4083 
  42   0.0000       1.719433        46.7881 
  43   0.0000       1.730434        47.0875 
  44   0.0000       1.762265        47.9537 
  45   0.0000       1.784743        48.5653 
  46   0.0000       1.810929        49.2779 
  47   0.0000       1.843001        50.1506 
  48   0.0000       1.873480        50.9800 
  49   0.0000       1.905198        51.8431 
  50   0.0000       2.037704        55.4487 
  51   0.0000       2.162761        58.8517 
  52   0.0000       2.170428        59.0604 
  53   0.0000       2.330767        63.4234 
  54   0.0000       2.379886        64.7600 
  55   0.0000       2.510243        68.3072 
  56   0.0000       2.542548        69.1862 
  57   0.0000       2.686427        73.1014 
  58   0.0000       2.822134        76.7942 
  59   0.0000       2.850470        77.5652 
  60   0.0000       2.950967        80.2999 
  61   0.0000       2.993490        81.4570 
  62   0.0000       3.089815        84.0781 
  63   0.0000       3.093666        84.1829 
  64   0.0000       3.339136        90.8625 
  65   0.0000       3.346038        91.0503 
  66   0.0000       3.733423       101.5916 

                    ********************************
                    * MULLIKEN POPULATION ANALYSIS *
                    ********************************

-----------------------
MULLIKEN ATOMIC CHARGES
-----------------------
   0 C :   -0.042339
   1 C :    0.214127
   2 H :    0.008660
   3 H :    0.009113
   4 F :   -0.259532
   5 H :    0.016449
   6 H :    0.026745
   7 H :    0.026777
Sum of atomic charges:    0.0000000

--------------------------------
MULLIKEN REDUCED ORBITAL CHARGES
--------------------------------
  0 C s       :     3.000487  s :     3.000487
      pz      :     0.976860  p :     3.012688
      px      :     1.003704
      py      :     1.032124
      dz2     :     0.007213  d :     0.029163
      dxz     :     0.005063
      dyz     :     0.005316
      dx2y2   :     0.006435
      dxy     :     0.005137
  1 C s       :     3.039219  s :     3.039219
      pz      :     0.941839  p :     2.675394
      px      :     0.707988
      py      :     1.025566
      dz2     :     0.014980  d :     0.071260
      dxz     :     0.019120
      dyz     :     0.006862
      dx2y2   :     0.013855
      dxy     :     0.016442
  2 H s       :     0.970302  s :     0.970302
      pz      :     0.005514  p :     0.021039
      px      :     0.007135
      py      :     0.008390
  3 H s       :     0.969992  s :     0.969992
      pz      :     0.004255  p :     0.020894
      px      :     0.004593
      py      :     0.012046
  4 F s       :     3.924999  s :     3.924999
      pz      :     1.834411  p :     5.327502
      px      :     1.564866
      py      :     1.928226
      dz2     :     0.000965  d :     0.007031
      dxz     :     0.002390
      dyz     :     0.000320
      dx2y2   :     0.002013
      dxy     :     0.001344
  5 H s       :     0.959658  s :     0.959658
      pz      :     0.006057  p :     0.023892
      px      :     0.012527
      py      :     0.005308
  6 H s       :     0.949543  s :     0.949543
      pz      :     0.004664  p :     0.023712
      px      :     0.006331
      py      :     0.012716
  7 H s       :     0.949512  s :     0.949512
      pz      :     0.006548  p :     0.023711
      px      :     0.008516
      py      :     0.008647


                     *******************************
                     * LOEWDIN POPULATION ANALYSIS *
                     *******************************

----------------------
LOEWDIN ATOMIC CHARGES
----------------------
   0 C :   -0.061923
   1 C :    0.113992
   2 H :    0.005568
   3 H :    0.006035
   4 F :   -0.133173
   5 H :    0.026633
   6 H :    0.021439
   7 H :    0.021430

-------------------------------
LOEWDIN REDUCED ORBITAL CHARGES
-------------------------------
  0 C s       :     2.833519  s :     2.833519
      pz      :     1.021877  p :     3.154918
      px      :     1.062837
      py      :     1.070204
      dz2     :     0.020570  d :     0.073487
      dxz     :     0.012195
      dyz     :     0.011859
      dx2y2   :     0.015937
      dxy     :     0.012926
  1 C s       :     2.859695  s :     2.859695
      pz      :     0.991870  p :     2.864698
      px      :     0.798740
      py      :     1.074088
      dz2     :     0.038105  d :     0.161615
      dxz     :     0.040058
      dyz     :     0.013561
      dx2y2   :     0.030509
      dxy     :     0.039381
  2 H s       :     0.931107  s :     0.931107
      pz      :     0.016435  p :     0.063325
      px      :     0.023381
      py      :     0.023508
  3 H s       :     0.931234  s :     0.931234
      pz      :     0.011909  p :     0.062730
      px      :     0.014183
      py      :     0.036638
  4 F s       :     3.750173  s :     3.750173
      pz      :     1.837852  p :     5.372092
      px      :     1.604157
      py      :     1.930083
      dz2     :     0.001384  d :     0.010908
      dxz     :     0.003919
      dyz     :     0.000417
      dx2y2   :     0.003334
      dxy     :     0.001854
  5 H s       :     0.904339  s :     0.904339
      pz      :     0.019107  p :     0.069028
      px      :     0.035930
      py      :     0.013991
  6 H s       :     0.909437  s :     0.909437
      pz      :     0.015003  p :     0.069124
      px      :     0.016800
      py      :     0.037321
  7 H s       :     0.909445  s :     0.909445
      pz      :     0.020795  p :     0.069125
      px      :     0.023709
      py      :     0.024621


                      *****************************
                      * MAYER POPULATION ANALYSIS *
                      *****************************

  NA   - Mulliken gross atomic population
  ZA   - Total nuclear charge
  QA   - Mulliken gross atomic charge
  VA   - Mayer's total valence
  BVA  - Mayer's bonded valence
  FA   - Mayer's free valence

  ATOM       NA         ZA         QA         VA         BVA        FA
  0 C      6.0423     6.0000    -0.0423     3.9936     3.9936    -0.0000
  1 C      5.7859     6.0000     0.2141     4.0493     4.0493    -0.0000
  2 H      0.9913     1.0000     0.0087     0.9687     0.9687    -0.0000
  3 H      0.9909     1.0000     0.0091     0.9687     0.9687    -0.0000
  4 F      9.2595     9.0000    -0.2595     1.0761     1.0761     0.0000
  5 H      0.9836     1.0000     0.0164     0.9901     0.9901    -0.0000
  6 H      0.9733     1.0000     0.0267     0.9909     0.9909     0.0000
  7 H      0.9732     1.0000     0.0268     0.9909     0.9909     0.0000

  Mayer bond orders larger than 0.100000
B(  0-C ,  1-C ) :   1.0940 B(  0-C ,  5-H ) :   0.9575 B(  0-C ,  6-H ) :   0.9705 
B(  0-C ,  7-H ) :   0.9706 B(  1-C ,  2-H ) :   0.9545 B(  1-C ,  3-H ) :   0.9542 
B(  1-C ,  4-F ) :   1.0084 

-------
TIMINGS
-------

Total SCF time: 0 days 0 hours 0 min 1 sec 

Total time                  ....       1.675 sec
Sum of individual times     ....       1.562 sec  ( 93.3%)

Fock matrix formation       ....       1.288 sec  ( 76.9%)
  Split-RI-J                ....       0.143 sec  ( 11.1% of F)
  XC integration            ....       1.130 sec  ( 87.7% of F)
    Basis function eval.    ....       0.249 sec  ( 22.0% of XC)
    Density eval.           ....       0.281 sec  ( 24.9% of XC)
    XC-Functional eval.     ....       0.241 sec  ( 21.4% of XC)
    XC-Potential eval.      ....       0.276 sec  ( 24.5% of XC)
Diagonalization             ....       0.011 sec  (  0.7%)
Density matrix formation    ....       0.001 sec  (  0.1%)
Population analysis         ....       0.003 sec  (  0.2%)
Initial guess               ....       0.025 sec  (  1.5%)
Orbital Transformation      ....       0.000 sec  (  0.0%)
Orbital Orthonormalization  ....       0.000 sec  (  0.0%)
DIIS solution               ....       0.011 sec  (  0.7%)
SOSCF solution              ....       0.009 sec  (  0.5%)
Grid generation             ....       0.213 sec  ( 12.7%)

Maximum memory used throughout the entire SCF-calculation: 11.4 MB


-------------------------------------------------------------------------------
                          DFT DISPERSION CORRECTION                            
                                                                               
                              DFTD3 V3.1  Rev 1                                
                          USING Becke-Johnson damping                          
-------------------------------------------------------------------------------
The TPSS functional is recognized
Active option DFTDOPT                   ...         4   

molecular C6(AA) [au] = 394.312182 


            DFT-D V3
 parameters
 s6 scaling factor         :     1.0000 
 a1 scaling factor         :     0.4535 
 s8 scaling factor         :     1.9435 
 a2 scaling factor         :     4.4752 
 ad hoc parameters k1-k3   :    16.0000     1.3333    -4.0000 

 Edisp/kcal,au: -2.634100764205  -0.004197706317 
 E6   /kcal   :  -1.417030789 
 E8   /kcal   :  -1.217069975 
 % E8         :  46.204381828 

-------------------------   ----------------
Dispersion correction           -0.004197706
-------------------------   ----------------


-------------------------   --------------------
FINAL SINGLE POINT ENERGY      -178.945436235025
-------------------------   --------------------


                            ***************************************
                            *     ORCA property calculations      *
                            ***************************************

                                    ---------------------
                                    Active property flags
                                    ---------------------
   (+) Dipole Moment


------------------------------------------------------------------------------
                       ORCA ELECTRIC PROPERTIES CALCULATION
------------------------------------------------------------------------------

Dipole Moment Calculation                       ... on
Quadrupole Moment Calculation                   ... off
Polarizability Calculation                      ... off
GBWName                                         ... SVP_TPSS_C1_wt_dlpno_neg.gbw
Electron density file                           ... SVP_TPSS_C1_wt_dlpno_neg.scfp
The origin for moment calculation is the CENTER OF MASS  = (-0.913587, -1.235141 -1.360949)

-------------
DIPOLE MOMENT
-------------
                                X             Y             Z
Electronic contribution:      3.29551       0.37588       4.03433
Nuclear contribution   :     -3.84149      -0.36812      -4.38946
                        -----------------------------------------
Total Dipole Moment    :     -0.54598       0.00776      -0.35514
                        -----------------------------------------
Magnitude (a.u.)       :      0.65136
Magnitude (Debye)      :      1.65563



--------------------
Rotational spectrum 
--------------------
 
Rotational constants in cm-1:     1.270659     0.299196     0.265842 
Rotational constants in MHz : 38093.410361  8969.665806  7969.741481 

 Dipole components along the rotational axes: 
x,y,z [a.u.] :    -0.568578    -0.317787    -0.001354 
x,y,z [Debye]:    -1.445211    -0.807750    -0.003442 

 

Timings for individual modules:

Sum of individual times         ...        5.776 sec (=   0.096 min)
GTO integral calculation        ...        2.401 sec (=   0.040 min)  41.6 %
SCF iterations                  ...        3.375 sec (=   0.056 min)  58.4 %
                             ****ORCA TERMINATED NORMALLY****
TOTAL RUN TIME: 0 days 0 hours 0 minutes 6 seconds 339 msec
