
                                        *****************
                                        * O   R   C   A *
                                        *****************

                                            #,                                       
                                            ###                                      
                                            ####                                     
                                            #####                                    
                                            ######                                   
                                           ########,                                 
                                     ,,################,,,,,                         
                               ,,#################################,,                 
                          ,,##########################################,,             
                       ,#########################################, ''#####,          
                    ,#############################################,,   '####,        
                  ,##################################################,,,,####,       
                ,###########''''           ''''###############################       
              ,#####''   ,,,,##########,,,,          '''####'''          '####       
            ,##' ,,,,###########################,,,                        '##       
           ' ,,###''''                  '''############,,,                           
         ,,##''                                '''############,,,,        ,,,,,,###''
      ,#''                                            '''#######################'''  
     '                                                          ''''####''''         
             ,#######,   #######,   ,#######,      ##                                
            ,#'     '#,  ##    ##  ,#'     '#,    #''#        ######   ,####,        
            ##       ##  ##   ,#'  ##            #'  '#       #        #'  '#        
            ##       ##  #######   ##           ,######,      #####,   #    #        
            '#,     ,#'  ##    ##  '#,     ,#' ,#      #,         ##   #,  ,#        
             '#######'   ##     ##  '#######'  #'      '#     #####' # '####'        



                  #######################################################
                  #                        -***-                        #
                  #          Department of theory and spectroscopy      #
                  #    Directorship and core code : Frank Neese         #
                  #        Max Planck Institute fuer Kohlenforschung    #
                  #                Kaiser Wilhelm Platz 1               #
                  #                 D-45470 Muelheim/Ruhr               #
                  #                      Germany                        #
                  #                                                     #
                  #                  All rights reserved                #
                  #                        -***-                        #
                  #######################################################


                         Program Version 5.0.0 -  RELEASE  -
                                (SVN: $Rev: 19529$)
                ($Date: 2021-06-28 11:36:33 +0200 (Mo, 28 Jun 2021) $)


 With contributions from (in alphabetic order):
   Daniel Aravena         : Magnetic Suceptibility
   Michael Atanasov       : Ab Initio Ligand Field Theory (pilot matlab implementation)
   Alexander A. Auer      : GIAO ZORA, VPT2 properties, NMR spectrum
   Ute Becker             : Parallelization
   Giovanni Bistoni       : ED, misc. LED, open-shell LED, HFLD
   Martin Brehm           : Molecular dynamics
   Dmytro Bykov           : SCF Hessian
   Vijay G. Chilkuri      : MRCI spin determinant printing, contributions to CSF-ICE
   Dipayan Datta          : RHF DLPNO-CCSD density
   Achintya Kumar Dutta   : EOM-CC, STEOM-CC
   Dmitry Ganyushin       : Spin-Orbit,Spin-Spin,Magnetic field MRCI
   Miquel Garcia          : C-PCM Hessian, Gaussian charge scheme
   Yang Guo               : DLPNO-NEVPT2, F12-NEVPT2, CIM, IAO-localization
   Andreas Hansen         : Spin unrestricted coupled pair/coupled cluster methods
   Benjamin Helmich-Paris : MC-RPA, TRAH-SCF, COSX integrals
   Lee Huntington         : MR-EOM, pCC
   Robert Izsak           : Overlap fitted RIJCOSX, COSX-SCS-MP3, EOM
   Marcus Kettner         : VPT2
   Christian Kollmar      : KDIIS, OOCD, Brueckner-CCSD(T), CCSD density, CASPT2, CASPT2-K
   Simone Kossmann        : Meta GGA functionals, TD-DFT gradient, OOMP2, MP2 Hessian
   Martin Krupicka        : Initial AUTO-CI
   Lucas Lang             : DCDCAS
   Marvin Lechner         : AUTO-CI (C++ implementation), FIC-MRCC
   Dagmar Lenk            : GEPOL surface, SMD
   Dimitrios Liakos       : Extrapolation schemes; Compound Job, initial MDCI parallelization
   Dimitrios Manganas     : Further ROCIS development; embedding schemes
   Dimitrios Pantazis     : SARC Basis sets
   Anastasios Papadopoulos: AUTO-CI, single reference methods and gradients
   Taras Petrenko         : DFT Hessian,TD-DFT gradient, ASA, ECA, R-Raman, ABS, FL, XAS/XES, NRVS
   Peter Pinski           : DLPNO-MP2, DLPNO-MP2 Gradient
   Christoph Reimann      : Effective Core Potentials
   Marius Retegan         : Local ZFS, SOC
   Christoph Riplinger    : Optimizer, TS searches, QM/MM, DLPNO-CCSD(T), (RO)-DLPNO pert. Triples
   Tobias Risthaus        : Range-separated hybrids, TD-DFT gradient, RPA, STAB
   Michael Roemelt        : Original ROCIS implementation
   Masaaki Saitow         : Open-shell DLPNO-CCSD energy and density
   Barbara Sandhoefer     : DKH picture change effects
   Avijit Sen             : IP-ROCIS
   Kantharuban Sivalingam : CASSCF convergence, NEVPT2, FIC-MRCI
   Bernardo de Souza      : ESD, SOC TD-DFT
   Georgi Stoychev        : AutoAux, RI-MP2 NMR
   Willem Van den Heuvel  : Paramagnetic NMR
   Boris Wezisla          : Elementary symmetry handling
   Frank Wennmohs         : Technical directorship


 We gratefully acknowledge several colleagues who have allowed us to
 interface, adapt or use parts of their codes:
   Stefan Grimme, W. Hujo, H. Kruse, P. Pracht,  : VdW corrections, initial TS optimization,
                  C. Bannwarth, S. Ehlert          DFT functionals, gCP, sTDA/sTD-DF
   Ed Valeev, F. Pavosevic, A. Kumar             : LibInt (2-el integral package), F12 methods
   Garnet Chan, S. Sharma, J. Yang, R. Olivares  : DMRG
   Ulf Ekstrom                                   : XCFun DFT Library
   Mihaly Kallay                                 : mrcc  (arbitrary order and MRCC methods)
   Jiri Pittner, Ondrej Demel                    : Mk-CCSD
   Frank Weinhold                                : gennbo (NPA and NBO analysis)
   Christopher J. Cramer and Donald G. Truhlar   : smd solvation model
   Lars Goerigk                                  : TD-DFT with DH, B97 family of functionals
   V. Asgeirsson, H. Jonsson                     : NEB implementation
   FAccTs GmbH                                   : IRC, NEB, NEB-TS, DLPNO-Multilevel, CI-OPT
                                                   MM, QMMM, 2- and 3-layer-ONIOM, Crystal-QMMM,
                                                   LR-CPCM, SF, NACMEs, symmetry and pop. for TD-DFT,
                                                   nearIR, NL-DFT gradient (VV10), updates on ESD,
                                                   ML-optimized integration grids
   S Lehtola, MJT Oliveira, MAL Marques          : LibXC Library
   Liviu Ungur et al                             : ANISO software


 Your calculation uses the libint2 library for the computation of 2-el integrals
 For citations please refer to: http://libint.valeyev.net

 Your ORCA version has been built with support for libXC version: 5.1.0
 For citations please refer to: https://tddft.org/programs/libxc/

 This ORCA versions uses:
   CBLAS   interface :  Fast vector & matrix operations
   LAPACKE interface :  Fast linear algebra routines
   SCALAPACK package :  Parallel linear algebra routines
   Shared memory     :  Shared parallel matrices
   BLAS/LAPACK       :  OpenBLAS 0.3.15  USE64BITINT DYNAMIC_ARCH NO_AFFINITY Haswell SINGLE_THREADED
        Core in use  :  Haswell
   Copyright (c) 2011-2014, The OpenBLAS Project




***************************************
The coordinates will be read from file: D1.xyz
***************************************


Your calculation utilizes the atom-pairwise dispersion correction
with the Becke-Johnson damping scheme (D3BJ)
Cite in your paper:
S.Grimme, S.Ehrlich, L.Goerigk, J Comput Chem, (2011), 32, 1456–1465 
S.Grimme, J.Antony, S.Ehrlich and H.Krieg, J.Chem.Phys., 132, (2010), 154104 
   

================================================================================

----- Orbital basis set information -----
Your calculation utilizes the basis: def2-TZVP
   F. Weigend and R. Ahlrichs, Phys. Chem. Chem. Phys. 7, 3297 (2005).

----- AuxJ basis set information -----
Your calculation utilizes the auxiliary basis: def2/J
   F. Weigend, Phys. Chem. Chem. Phys. 8, 1057 (2006).

================================================================================
                                        WARNINGS
                       Please study these warnings very carefully!
================================================================================


INFO   : the flag for use of the SHARK integral package has been found!

================================================================================
                                       INPUT FILE
================================================================================
NAME = PBE0_D1_wb97.com
|  1> !PBE0 D3BJ RIJCOSX def2-TZVP def2/J TightSCF xyzfile                                                                                         
|  2> 
|  3> *xyzfile 0 1 D1.xyz
|  4> 
|  5> %MaxCore 64000
|  6> 
|  7> %pal nprocs 18                                                                                                                                                  
|  8> end  
|  9> 
| 10> %scf
| 11>   MaxIter 150
| 12> end
| 13> 
| 14> 
| 15>                          ****END OF INPUT****
================================================================================

                       ****************************
                       * Single Point Calculation *
                       ****************************

---------------------------------
CARTESIAN COORDINATES (ANGSTROEM)
---------------------------------
  C      5.558206   -1.992914   -6.215054
  C      4.930199   -7.375319   -2.649623
  C      3.841892   -6.951611   -3.632829
  H      3.458144   -5.954425   -3.407121
  H      2.988484   -7.643606   -3.567078
  S      4.318115   -6.915930   -5.368692
  C      4.181880   -2.589671   -6.298911
  C      3.145873   -1.768431   -6.486753
  N      4.019102   -3.864307   -6.227427
  H      4.768490   -4.591153   -5.990773
  H      3.122405   -4.333392   -6.314620
  H      3.281635   -0.777786   -6.566549
  H      2.212549   -2.134193   -6.562246
  F      5.406154   -5.899480   -5.512972
  O      3.111910   -6.445079   -6.043792
  C      6.419260   -2.542944   -5.077630
  C      5.872267   -5.002756   -2.427819
  C      6.173994   -6.485522   -2.606315
  H      6.734852   -6.613767   -3.534015
  H      6.821463   -6.831018   -1.793617
  H      4.469612   -7.406168   -1.655876
  H      5.230134   -8.398678   -2.885906
  C      5.896512   -2.169314   -3.694552
  H      7.428880   -2.143665   -5.208078
  H      6.505894   -3.627541   -5.175502
  C      6.807804   -2.623428   -2.551019
  H      4.894708   -2.589732   -3.557501
  H      5.778823   -1.081255   -3.635790
  C      7.111544   -4.122463   -2.520363
  H      7.751615   -2.071393   -2.614406
  H      6.345837   -2.326401   -1.604086
  H      5.362882   -4.828697   -1.471335
  H      5.174429   -4.702577   -3.211298
  H      7.778329   -4.329347   -1.677651
  H      7.673189   -4.402845   -3.417586
  O      4.763396   -8.239424   -5.698629
  H      6.036826   -2.198189   -7.176852
  H      5.467610   -0.907371   -6.127968

----------------------------
CARTESIAN COORDINATES (A.U.)
----------------------------
  NO LB      ZA    FRAG     MASS         X           Y           Z
   0 C     6.0000    0    12.011   10.503488   -3.766062  -11.744750
   1 C     6.0000    0    12.011    9.316726  -13.937333   -5.007061
   2 C     6.0000    0    12.011    7.260124  -13.136641   -6.865052
   3 H     1.0000    0     1.008    6.534945  -11.252232   -6.438525
   4 H     1.0000    0     1.008    5.647417  -14.444323   -6.740800
   5 S    16.0000    0    32.060    8.160056  -13.069213  -10.145357
   6 C     6.0000    0    12.011    7.902607   -4.893769  -11.903217
   7 C     6.0000    0    12.011    5.944839   -3.341850  -12.258188
   8 N     7.0000    0    14.007    7.595003   -7.302481  -11.768132
   9 H     1.0000    0     1.008    9.011140   -8.676022  -11.320921
  10 H     1.0000    0     1.008    5.900490   -8.188924  -11.932902
  11 H     1.0000    0     1.008    6.201392   -1.469802  -12.408980
  12 H     1.0000    0     1.008    4.181111   -4.033041  -12.400847
  13 F     9.0000    0    18.998   10.216150  -11.148401  -10.418007
  14 O     8.0000    0    15.999    5.880658  -12.179433  -11.421112
  15 C     6.0000    0    12.011   12.130644   -4.805467   -9.595331
  16 C     6.0000    0    12.011   11.096976   -9.453839   -4.587913
  17 C     6.0000    0    12.011   11.667157  -12.255860   -4.925221
  18 H     1.0000    0     1.008   12.727027  -12.498208   -6.678320
  19 H     1.0000    0     1.008   12.890697  -12.908753   -3.389444
  20 H     1.0000    0     1.008    8.446342  -13.995630   -3.129152
  21 H     1.0000    0     1.008    9.883521  -15.871201   -5.453572
  22 C     6.0000    0    12.011   11.142793   -4.099409   -6.981691
  23 H     1.0000    0     1.008   14.038548   -4.050941   -9.841842
  24 H     1.0000    0     1.008   12.294357   -6.855060   -9.780281
  25 C     6.0000    0    12.011   12.864885   -4.957561   -4.820727
  26 H     1.0000    0     1.008    9.249658   -4.893884   -6.722702
  27 H     1.0000    0     1.008   10.920393   -2.043276   -6.870647
  28 C     6.0000    0    12.011   13.438871   -7.790326   -4.762797
  29 H     1.0000    0     1.008   14.648429   -3.914365   -4.940511
  30 H     1.0000    0     1.008   11.991895   -4.396261   -3.031284
  31 H     1.0000    0     1.008   10.134377   -9.124915   -2.780420
  32 H     1.0000    0     1.008    9.778255   -8.886583   -6.068473
  33 H     1.0000    0     1.008   14.698912   -8.181281   -3.170302
  34 H     1.0000    0     1.008   14.500226   -8.320172   -6.458302
  35 O     8.0000    0    15.999    9.001515  -15.570255  -10.768848
  36 H     1.0000    0     1.008   11.407947   -4.153975  -13.562284
  37 H     1.0000    0     1.008   10.332286   -1.714682  -11.580182

--------------------------------
INTERNAL COORDINATES (ANGSTROEM)
--------------------------------
 C      0   0   0     0.000000000000     0.00000000     0.00000000
 C      1   0   0     6.486676991334     0.00000000     0.00000000
 C      2   1   0     1.526641676857    58.98431618     0.00000000
 H      3   2   1     1.092056719456   111.76657926   301.76291724
 H      3   2   1     1.100675257080   109.86252232   183.37509207
 S      3   2   1     1.800355913609   115.96964618    63.28433129
 C      1   2   3     1.502473091366    67.19621670     9.82950561
 C      7   1   2     1.335301347352   118.31340541   149.09843253
 N      7   1   2     1.286974259129   120.40681479   327.21744653
 H      9   7   1     1.070463621394   126.60018884     7.96837689
 H      9   7   1     1.015731265044   124.35252214   182.57998756
 H      8   7   1     1.003083391702   120.90245867   359.77551784
 H      8   7   1     1.005274113129   120.47231394   179.03064483
 F      6   3   2     1.495932471292   107.38856853   297.68915787
 O      6   3   2     1.460271114037   103.51186950   181.67727166
 C      1   2   3     1.528947328879    49.24078969   172.77851068
 C      2   1   7     2.562370365129    40.85970591   226.35299093
 C     17   2   1     1.523644630425    33.02671159   255.40808035
 H     18  17   2     1.091621223501   108.39902792   121.62547515
 H     18  17   2     1.095017103952   109.70622864   237.96127787
 H      2   1   7     1.095730250170   124.23256610   279.63708206
 H      2   1   7     1.092270007789   129.19229883    99.04052312
 C     16   1   2     1.525048166014   113.17227676   275.89147488
 H     16   1   2     1.093512939299   107.44934201   154.77668930
 H     16   1   2     1.092445288031   109.58301316    39.82866386
 C     23  16   1     1.531123874549   113.61923186   184.39820079
 H     23  16   1     1.095054699889   109.45275122    61.39371418
 H     23  16   1     1.095981364808   109.18727053   305.73194925
 C     17   2   1     1.522921594669   146.00953636   264.46588188
 H     26  23  16     1.095235050783   108.67352889    66.02747159
 H     26  23  16     1.094677843090   108.32516486   180.85641006
 H     17   2   1     1.097557381820    92.96033186   131.32387738
 H     17   2   1     1.091294020132    87.56109018    24.84306882
 H     29  17   2     1.094333898118   109.86175449   288.41192908
 H     29  17   2     1.095019659233   108.61241254    43.53892715
 O      6   3   2     1.434841640015   106.58974907    58.18895583
 H      1   2   3     1.093740711115   111.71451344   270.83870435
 H      1   2   3     1.092792888067   140.57257057   102.14735505

---------------------------
INTERNAL COORDINATES (A.U.)
---------------------------
 C      0   0   0     0.000000000000     0.00000000     0.00000000
 C      1   0   0    12.258043032829     0.00000000     0.00000000
 C      2   1   0     2.884934673891    58.98431618     0.00000000
 H      3   2   1     2.063688122481   111.76657926   301.76291724
 H      3   2   1     2.079974798266   109.86252232   183.37509207
 S      3   2   1     3.402179620307   115.96964618    63.28433129
 C      1   2   3     2.839262666268    67.19621670     9.82950561
 C      7   1   2     2.523353852751   118.31340541   149.09843253
 N      7   1   2     2.432028891161   120.40681479   327.21744653
 H      9   7   1     2.022883080760   126.60018884     7.96837689
 H      9   7   1     1.919453916594   124.35252214   182.57998756
 H      8   7   1     1.895552899801   120.90245867   359.77551784
 H      8   7   1     1.899692763334   120.47231394   179.03064483
 F      6   3   2     2.826902685582   107.38856853   297.68915787
 O      6   3   2     2.759512486805   103.51186950   181.67727166
 C      1   2   3     2.889291724773    49.24078969   172.77851068
 C      2   1   7     4.842178243770    40.85970591   226.35299093
 C     17   2   1     2.879271076922    33.02671159   255.40808035
 H     18  17   2     2.062865154392   108.39902792   121.62547515
 H     18  17   2     2.069282438429   109.70622864   237.96127787
 H      2   1   7     2.070630089473   124.23256610   279.63708206
 H      2   1   7     2.064091179017   129.19229883    99.04052312
 C     16   1   2     2.881923374806   113.17227676   275.89147488
 H     16   1   2     2.066439979174   107.44934201   154.77668930
 H     16   1   2     2.064422410672   109.58301316    39.82866386
 C     23  16   1     2.893404800005   113.61923186   184.39820079
 H     23  16   1     2.069353484453   109.45275122    61.39371418
 H     23  16   1     2.071104627368   109.18727053   305.73194925
 C     17   2   1     2.877904737359   146.00953636   264.46588188
 H     26  23  16     2.069694298250   108.67352889    66.02747159
 H     26  23  16     2.068641328312   108.32516486   180.85641006
 H     17   2   1     2.074082867903    92.96033186   131.32387738
 H     17   2   1     2.062246829636    87.56109018    24.84306882
 H     29  17   2     2.067991366509   109.86175449   288.41192908
 H     29  17   2     2.069287267211   108.61241254    43.53892715
 O      6   3   2     2.711457745175   106.58974907    58.18895583
 H      1   2   3     2.066870405528   111.71451344   270.83870435
 H      1   2   3     2.065079279544   140.57257057   102.14735505

---------------------
BASIS SET INFORMATION
---------------------
There are 6 groups of distinct atoms

 Group   1 Type C   : 11s6p2d1f contracted to 5s3p2d1f pattern {62111/411/11/1}
 Group   2 Type H   : 5s1p contracted to 3s1p pattern {311/1}
 Group   3 Type S   : 14s9p3d1f contracted to 5s5p2d1f pattern {73211/51111/21/1}
 Group   4 Type N   : 11s6p2d1f contracted to 5s3p2d1f pattern {62111/411/11/1}
 Group   5 Type F   : 11s6p2d1f contracted to 5s3p2d1f pattern {62111/411/11/1}
 Group   6 Type O   : 11s6p2d1f contracted to 5s3p2d1f pattern {62111/411/11/1}

Atom   0C    basis set group =>   1
Atom   1C    basis set group =>   1
Atom   2C    basis set group =>   1
Atom   3H    basis set group =>   2
Atom   4H    basis set group =>   2
Atom   5S    basis set group =>   3
Atom   6C    basis set group =>   1
Atom   7C    basis set group =>   1
Atom   8N    basis set group =>   4
Atom   9H    basis set group =>   2
Atom  10H    basis set group =>   2
Atom  11H    basis set group =>   2
Atom  12H    basis set group =>   2
Atom  13F    basis set group =>   5
Atom  14O    basis set group =>   6
Atom  15C    basis set group =>   1
Atom  16C    basis set group =>   1
Atom  17C    basis set group =>   1
Atom  18H    basis set group =>   2
Atom  19H    basis set group =>   2
Atom  20H    basis set group =>   2
Atom  21H    basis set group =>   2
Atom  22C    basis set group =>   1
Atom  23H    basis set group =>   2
Atom  24H    basis set group =>   2
Atom  25C    basis set group =>   1
Atom  26H    basis set group =>   2
Atom  27H    basis set group =>   2
Atom  28C    basis set group =>   1
Atom  29H    basis set group =>   2
Atom  30H    basis set group =>   2
Atom  31H    basis set group =>   2
Atom  32H    basis set group =>   2
Atom  33H    basis set group =>   2
Atom  34H    basis set group =>   2
Atom  35O    basis set group =>   6
Atom  36H    basis set group =>   2
Atom  37H    basis set group =>   2
---------------------------------
AUXILIARY/J BASIS SET INFORMATION
---------------------------------
There are 6 groups of distinct atoms

 Group   1 Type C   : 12s5p4d2f1g contracted to 6s4p3d1f1g pattern {711111/2111/211/2/1}
 Group   2 Type H   : 5s2p1d contracted to 3s1p1d pattern {311/2/1}
 Group   3 Type S   : 14s5p5d2f1g contracted to 8s4p3d1f1g pattern {71111111/2111/311/2/1}
 Group   4 Type N   : 12s5p4d2f1g contracted to 6s4p3d1f1g pattern {711111/2111/211/2/1}
 Group   5 Type F   : 12s5p4d2f1g contracted to 6s4p3d1f1g pattern {711111/2111/211/2/1}
 Group   6 Type O   : 12s5p4d2f1g contracted to 6s4p3d1f1g pattern {711111/2111/211/2/1}

Atom   0C    basis set group =>   1
Atom   1C    basis set group =>   1
Atom   2C    basis set group =>   1
Atom   3H    basis set group =>   2
Atom   4H    basis set group =>   2
Atom   5S    basis set group =>   3
Atom   6C    basis set group =>   1
Atom   7C    basis set group =>   1
Atom   8N    basis set group =>   4
Atom   9H    basis set group =>   2
Atom  10H    basis set group =>   2
Atom  11H    basis set group =>   2
Atom  12H    basis set group =>   2
Atom  13F    basis set group =>   5
Atom  14O    basis set group =>   6
Atom  15C    basis set group =>   1
Atom  16C    basis set group =>   1
Atom  17C    basis set group =>   1
Atom  18H    basis set group =>   2
Atom  19H    basis set group =>   2
Atom  20H    basis set group =>   2
Atom  21H    basis set group =>   2
Atom  22C    basis set group =>   1
Atom  23H    basis set group =>   2
Atom  24H    basis set group =>   2
Atom  25C    basis set group =>   1
Atom  26H    basis set group =>   2
Atom  27H    basis set group =>   2
Atom  28C    basis set group =>   1
Atom  29H    basis set group =>   2
Atom  30H    basis set group =>   2
Atom  31H    basis set group =>   2
Atom  32H    basis set group =>   2
Atom  33H    basis set group =>   2
Atom  34H    basis set group =>   2
Atom  35O    basis set group =>   6
Atom  36H    basis set group =>   2
Atom  37H    basis set group =>   2


           ************************************************************
           *        Program running with 18 parallel MPI-processes    *
           *              working on a common directory               *
           ************************************************************
------------------------------------------------------------------------------
                           ORCA GTO INTEGRAL CALCULATION
                           -- RI-GTO INTEGRALS CHOSEN --
------------------------------------------------------------------------------
------------------------------------------------------------------------------
                   ___                                                        
                  /   \      - P O W E R E D   B Y -                         
                 /     \                                                     
                 |  |  |   _    _      __       _____    __    __             
                 |  |  |  | |  | |    /  \     |  _  \  |  |  /  |          
                  \  \/   | |  | |   /    \    | | | |  |  | /  /          
                 / \  \   | |__| |  /  /\  \   | |_| |  |  |/  /          
                |  |  |   |  __  | /  /__\  \  |    /   |      \           
                |  |  |   | |  | | |   __   |  |    \   |  |\   \          
                \     /   | |  | | |  |  |  |  | |\  \  |  | \   \       
                 \___/    |_|  |_| |__|  |__|  |_| \__\ |__|  \__/        
                                                                              
                      - O R C A' S   B I G   F R I E N D -                    
                                      &                                       
                       - I N T E G R A L  F E E D E R -                       
                                                                              
 v1 FN, 2020, v2 2021                                                         
------------------------------------------------------------------------------


Reading SHARK input file PBE0_D1_wb97.SHARKINP.tmp ... ok
----------------------
SHARK INTEGRAL PACKAGE
----------------------

Number of atoms                             ...     38
Number of basis functions                   ...    634
Number of shells                            ...    266
Maximum angular momentum                    ...      3
Integral batch strategy                     ... SHARK/LIBINT Hybrid
RI-J (if used) integral strategy            ... SPLIT-RIJ (Revised 2003 algorithm where possible)
Printlevel                                  ...      1
Contraction scheme used                     ... SEGMENTED contraction
Coulomb Range Separation                    ... NOT USED
Exchange Range Separation                   ... NOT USED
Finite Nucleus Model                        ... NOT USED
Auxiliary Coulomb fitting basis             ... AVAILABLE
   # of basis functions in Aux-J            ...   1028
   # of shells in Aux-J                     ...    352
   Maximum angular momentum in Aux-J        ...      4
Auxiliary J/K fitting basis                 ... NOT available
Auxiliary Correlation fitting basis         ... NOT available
Auxiliary 'external' fitting basis          ... NOT available
Integral threshold                          ...     2.500000e-11
Primitive cut-off                           ...     2.500000e-12
Primitive pair pre-selection threshold      ...     2.500000e-12

Calculating pre-screening integrals         ... done (  0.4 sec) Dimension = 266
Organizing shell pair data                  ... done (  0.4 sec)
Shell pair information
Total number of shell pairs                 ...     35511
Shell pairs after pre-screening             ...     27692
Total number of primitive shell pairs       ...    106002
Primitive shell pairs kept                  ...     56275
          la=0 lb=0:   8283 shell pairs
          la=1 lb=0:   8333 shell pairs
          la=1 lb=1:   2158 shell pairs
          la=2 lb=0:   3585 shell pairs
          la=2 lb=1:   1853 shell pairs
          la=2 lb=2:    432 shell pairs
          la=3 lb=0:   1687 shell pairs
          la=3 lb=1:    876 shell pairs
          la=3 lb=2:    389 shell pairs
          la=3 lb=3:     96 shell pairs

Calculating one electron integrals          ... done (  0.1 sec)
Calculating RI/J V-Matrix + Cholesky decomp.... done (  0.3 sec)
Calculating Nuclear repulsion               ... done (  0.0 sec) ENN=   1435.529449800294 Eh

SHARK setup successfully completed in   1.3 seconds

Maximum memory used throughout the entire GTOINT-calculation: 41.5 MB


           ************************************************************
           *        Program running with 18 parallel MPI-processes    *
           *              working on a common directory               *
           ************************************************************
-------------------------------------------------------------------------------
                                 ORCA SCF
-------------------------------------------------------------------------------

------------
SCF SETTINGS
------------
Hamiltonian:
 Density Functional     Method          .... DFT(GTOs)
 Exchange Functional    Exchange        .... PBE
   PBE kappa parameter   XKappa         ....  0.804000
   PBE mue parameter    XMuePBE         ....  0.219520
 Correlation Functional Correlation     .... PBE
   PBE beta parameter  CBetaPBE         ....  0.066725
 LDA part of GGA corr.  LDAOpt          .... PW91-LDA
 Gradients option       PostSCFGGA      .... off
 Hybrid DFT is turned on
   Fraction HF Exchange ScalHFX         ....  0.250000
   Scaling of DF-GGA-X  ScalDFX         ....  0.750000
   Scaling of DF-GGA-C  ScalDFC         ....  1.000000
   Scaling of DF-LDA-C  ScalLDAC        ....  1.000000
   Perturbative correction              ....  0.000000
   Density functional embedding theory  .... OFF
   NL short-range parameter             ....  6.900000
 RI-approximation to the Coulomb term is turned on
   Number of AuxJ basis functions       .... 1028
   RIJ-COSX (HFX calculated with COS-X)).... on


General Settings:
 Integral files         IntName         .... PBE0_D1_wb97
 Hartree-Fock type      HFTyp           .... RHF
 Total Charge           Charge          ....    0
 Multiplicity           Mult            ....    1
 Number of Electrons    NEL             ....  136
 Basis Dimension        Dim             ....  634
 Nuclear Repulsion      ENuc            ....   1435.5294498003 Eh

Convergence Acceleration:
 DIIS                   CNVDIIS         .... on
   Start iteration      DIISMaxIt       ....    12
   Startup error        DIISStart       ....  0.200000
   # of expansion vecs  DIISMaxEq       ....     5
   Bias factor          DIISBfac        ....   1.050
   Max. coefficient     DIISMaxC        ....  10.000
 Trust-Rad. Augm. Hess. CNVTRAH         .... auto
   Auto Start mean grad. ratio tolernc. ....  1.125000
   Auto Start start iteration           ....    20
   Auto Start num. interpolation iter.  ....    10
   Max. Number of Micro iterations      ....    16
   Max. Number of Macro iterations      .... Maxiter - #DIIS iter
   Number of Davidson start vectors     ....     2
   Converg. threshold I  (grad. norm)   ....   1.000e-05
   Converg. threshold II (energy diff.) ....   1.000e-08
   Grad. Scal. Fac. for Micro threshold ....   0.100
   Minimum threshold for Micro iter.    ....   0.010
   NR start threshold (gradient norm)   ....   0.001
   Initial trust radius                 ....   0.400
   Minimum AH scaling param. (alpha)    ....   1.000
   Maximum AH scaling param. (alpha)    .... 1000.000
   Orbital update algorithm             .... Taylor
   White noise on init. David. guess    .... on
   Maximum white noise                  ....   0.010
   Quad. conv. algorithm                .... NR
 SOSCF                  CNVSOSCF        .... on
   Start iteration      SOSCFMaxIt      ....   150
   Startup grad/error   SOSCFStart      ....  0.003300
 Level Shifting         CNVShift        .... on
   Level shift para.    LevelShift      ....    0.2500
   Turn off err/grad.   ShiftErr        ....    0.0010
 Zerner damping         CNVZerner       .... off
 Static damping         CNVDamp         .... on
   Fraction old density DampFac         ....    0.7000
   Max. Damping (<1)    DampMax         ....    0.9800
   Min. Damping (>=0)   DampMin         ....    0.0000
   Turn off err/grad.   DampErr         ....    0.1000
 Fernandez-Rico         CNVRico         .... off

SCF Procedure:
 Maximum # iterations   MaxIter         ....   150
 SCF integral mode      SCFMode         .... Direct
   Integral package                     .... SHARK and LIBINT hybrid scheme
 Reset frequency        DirectResetFreq ....    20
 Integral Threshold     Thresh          ....  2.500e-11 Eh
 Primitive CutOff       TCut            ....  2.500e-12 Eh

Convergence Tolerance:
 Convergence Check Mode ConvCheckMode   .... Total+1el-Energy
 Convergence forced     ConvForced      .... 0
 Energy Change          TolE            ....  1.000e-08 Eh
 1-El. energy change                    ....  1.000e-05 Eh
 Orbital Gradient       TolG            ....  1.000e-05
 Orbital Rotation angle TolX            ....  1.000e-05
 DIIS Error             TolErr          ....  5.000e-07


Diagonalization of the overlap matrix:
Smallest eigenvalue                        ... 6.938e-05
Time for diagonalization                   ...    0.090 sec
Threshold for overlap eigenvalues          ... 1.000e-08
Number of eigenvalues below threshold      ... 0
Time for construction of square roots      ...    0.306 sec
Total time needed                          ...    0.400 sec

Time for model grid setup =    0.305 sec

------------------------------
INITIAL GUESS: MODEL POTENTIAL
------------------------------
Loading Hartree-Fock densities                     ... done
Calculating cut-offs                               ... done
Initializing the effective Hamiltonian             ... done
Setting up the integral package (SHARK)            ... done
Starting the Coulomb interaction                   ... done (   0.4 sec)
Reading the grid                                   ... done
Mapping shells                                     ... done
Starting the XC term evaluation                    ... done (   0.2 sec)
  promolecular density results
     # of electrons  =    135.989960321
     EX              =   -120.769144777
     EC              =     -4.671708717
     EX+EC           =   -125.440853494
Transforming the Hamiltonian                       ... done (   0.1 sec)
Diagonalizing the Hamiltonian                      ... done (   0.1 sec)
Back transforming the eigenvectors                 ... done (   0.0 sec)
Now organizing SCF variables                       ... done
                      ------------------
                      INITIAL GUESS DONE (   1.1 sec)
                      ------------------
-------------------
DFT GRID GENERATION
-------------------

General Integration Accuracy     IntAcc      ... 4.388
Radial Grid Type                 RadialGrid  ... OptM3 with GC (2021)
Angular Grid (max. ang.)         AngularGrid ... 4 (Lebedev-302)
Angular grid pruning method      GridPruning ... 4 (adaptive)
Weight generation scheme         WeightScheme... Becke
Basis function cutoff            BFCut       ... 1.0000e-11
Integration weight cutoff        WCut        ... 1.0000e-14
Angular grids for H and He will be reduced by one unit
Partially contracted basis set               ... off
Rotationally invariant grid construction     ... off

Total number of grid points                  ...   166205
Total number of batches                      ...     2616
Average number of points per batch           ...       63
Average number of grid points per atom       ...     4374
Time for grid setup =    1.451 sec

--------------------
COSX GRID GENERATION
--------------------

GRIDX 1
-------
General Integration Accuracy     IntAcc      ... 3.816
Radial Grid Type                 RadialGrid  ... OptM3 with GC (2021)
Angular Grid (max. ang.)         AngularGrid ... 1 (Lebedev-50)
Angular grid pruning method      GridPruning ... 4 (adaptive)
Weight generation scheme         WeightScheme... Becke
Basis function cutoff            BFCut       ... 1.0000e-11
Integration weight cutoff        WCut        ... 1.0000e-14
Angular grids for H and He will be reduced by one unit
Partially contracted basis set               ... on
Rotationally invariant grid construction     ... off

Total number of grid points                  ...    21095
Total number of batches                      ...      354
Average number of points per batch           ...       59
Average number of grid points per atom       ...      555
UseSFitting                                  ... on

GRIDX 2
-------
General Integration Accuracy     IntAcc      ... 4.020
Radial Grid Type                 RadialGrid  ... OptM3 with GC (2021)
Angular Grid (max. ang.)         AngularGrid ... 2 (Lebedev-110)
Angular grid pruning method      GridPruning ... 4 (adaptive)
Weight generation scheme         WeightScheme... Becke
Basis function cutoff            BFCut       ... 1.0000e-11
Integration weight cutoff        WCut        ... 1.0000e-14
Angular grids for H and He will be reduced by one unit
Partially contracted basis set               ... on
Rotationally invariant grid construction     ... off

Total number of grid points                  ...    44289
Total number of batches                      ...      713
Average number of points per batch           ...       62
Average number of grid points per atom       ...     1166
UseSFitting                                  ... on

GRIDX 3
-------
General Integration Accuracy     IntAcc      ... 4.338
Radial Grid Type                 RadialGrid  ... OptM3 with GC (2021)
Angular Grid (max. ang.)         AngularGrid ... 3 (Lebedev-194)
Angular grid pruning method      GridPruning ... 4 (adaptive)
Weight generation scheme         WeightScheme... Becke
Basis function cutoff            BFCut       ... 1.0000e-11
Integration weight cutoff        WCut        ... 1.0000e-14
Angular grids for H and He will be reduced by one unit
Partially contracted basis set               ... on
Rotationally invariant grid construction     ... off

Total number of grid points                  ...    96813
Total number of batches                      ...     1534
Average number of points per batch           ...       63
Average number of grid points per atom       ...     2548
UseSFitting                                  ... on

Time for X-Grid setup             =    1.641 sec

--------------
SCF ITERATIONS
--------------
ITER       Energy         Delta-E        Max-DP      RMS-DP      [F,P]     Damp
               ***  Starting incremental Fock matrix formation  ***
  0  -1134.1924374334   0.000000000000 0.14992106  0.00092641  0.2783730 0.7000
  1  -1134.5312493393  -0.338811905874 0.05919291  0.00065613  0.1280629 0.7000
                               ***Turning on DIIS***
  2  -1134.6558650891  -0.124615749789 0.06779012  0.00102442  0.0534080 0.0000
  3  -1134.8600608447  -0.204195755590 0.04929630  0.00048973  0.0678940 0.0000
  4  -1134.9033336124  -0.043272767718 0.02140581  0.00017288  0.0165764 0.0000
  5  -1134.9063469046  -0.003013292152 0.00528886  0.00006871  0.0091913 0.0000
                      *** Initiating the SOSCF procedure ***
                           *** Shutting down DIIS ***
                      *** Re-Reading the Fockian *** 
                      *** Removing any level shift *** 
ITER      Energy       Delta-E        Grad      Rot      Max-DP    RMS-DP
  6  -1134.90663771  -0.0002908074  0.000221  0.000221  0.003561  0.000049
               *** Restarting incremental Fock matrix formation ***
  7  -1134.90664059  -0.0000028749  0.000136  0.000568  0.001304  0.000012
  8  -1134.90663850   0.0000020902  0.000226  0.000384  0.000611  0.000005
  9  -1134.90664332  -0.0000048219  0.000047  0.000165  0.000191  0.000002
 10  -1134.90664322   0.0000001028  0.000057  0.000087  0.000122  0.000001
 11  -1134.90664339  -0.0000001700  0.000003  0.000006  0.000024  0.000000
 12  -1134.90664340  -0.0000000114  0.000004  0.000004  0.000011  0.000000
                  ***Gradient check signals convergence***
              ***Rediagonalizing the Fockian in SOSCF/NRSCF***

               *****************************************************
               *                     SUCCESS                       *
               *           SCF CONVERGED AFTER  13 CYCLES          *
               *****************************************************

Old exchange energy                            =    -30.841674889 Eh
New exchange energy                            =    -30.841670917 Eh
Exchange energy change after final integration =      0.000003972 Eh
Total energy after final integration           =  -1134.906639415 Eh
Final COS-X integration done in                =    12.084 sec

----------------
TOTAL SCF ENERGY
----------------

Total Energy       :        -1134.90663942 Eh          -30882.37969 eV

Components:
Nuclear Repulsion  :         1435.52944980 Eh           39062.74224 eV
Electronic Energy  :        -2570.43608922 Eh          -69945.12193 eV
One Electron Energy:        -4405.89730966 Eh         -119890.56091 eV
Two Electron Energy:         1835.46122044 Eh           49945.43899 eV
Max COSX asymmetry :            0.00000349 Eh               0.00009 eV

Virial components:
Potential Energy   :        -2266.31562348 Eh          -61669.58334 eV
Kinetic Energy     :         1131.40898407 Eh           30787.20365 eV
Virial Ratio       :            2.00309142


DFT components:
N(Alpha)           :       68.000181953751 electrons
N(Beta)            :       68.000181953751 electrons
N(Total)           :      136.000363907501 electrons
E(X)               :      -92.174677172680 Eh       
E(C)               :       -4.656749418320 Eh       
E(XC)              :      -96.831426590999 Eh       
DFET-embed. en.    :        0.000000000000 Eh       

---------------
SCF CONVERGENCE
---------------

  Last Energy change         ...    9.9938e-09  Tolerance :   1.0000e-08
  Last MAX-Density change    ...    3.2196e-15  Tolerance :   1.0000e-07
  Last RMS-Density change    ...    1.5043e-17  Tolerance :   5.0000e-09
  Last Orbital Gradient      ...    6.9744e-07  Tolerance :   1.0000e-05
  Last Orbital Rotation      ...    1.5348e-06  Tolerance :   1.0000e-05

             **** THE GBW FILE WAS UPDATED (PBE0_D1_wb97.gbw) ****
             **** DENSITY PBE0_D1_wb97.scfp WAS UPDATED ****
             **** ENERGY FILE WAS UPDATED (PBE0_D1_wb97.en.tmp) ****
             **** THE GBW FILE WAS UPDATED (PBE0_D1_wb97.gbw) ****
             **** DENSITY PBE0_D1_wb97.scfp WAS UPDATED ****
----------------
ORBITAL ENERGIES
----------------

  NO   OCC          E(Eh)            E(eV) 
   0   2.0000     -89.278537     -2429.3925 
   1   2.0000     -24.900166      -677.5680 
   2   2.0000     -19.240100      -523.5497 
   3   2.0000     -19.233107      -523.3594 
   4   2.0000     -14.365679      -390.9100 
   5   2.0000     -10.294433      -280.1258 
   6   2.0000     -10.257569      -279.1226 
   7   2.0000     -10.241157      -278.6760 
   8   2.0000     -10.232062      -278.4286 
   9   2.0000     -10.230560      -278.3877 
  10   2.0000     -10.225144      -278.2403 
  11   2.0000     -10.219825      -278.0956 
  12   2.0000     -10.218650      -278.0636 
  13   2.0000     -10.214403      -277.9480 
  14   2.0000     -10.213051      -277.9113 
  15   2.0000     -10.136179      -275.8195 
  16   2.0000      -8.225071      -223.8156 
  17   2.0000      -6.165782      -167.7795 
  18   2.0000      -6.158989      -167.5946 
  19   2.0000      -6.158497      -167.5812 
  20   2.0000      -1.411438       -38.4072 
  21   2.0000      -1.160955       -31.5912 
  22   2.0000      -1.068410       -29.0729 
  23   2.0000      -0.945939       -25.7403 
  24   2.0000      -0.876493       -23.8506 
  25   2.0000      -0.843784       -22.9605 
  26   2.0000      -0.815505       -22.1910 
  27   2.0000      -0.783207       -21.3121 
  28   2.0000      -0.763982       -20.7890 
  29   2.0000      -0.734246       -19.9799 
  30   2.0000      -0.719073       -19.5670 
  31   2.0000      -0.679846       -18.4995 
  32   2.0000      -0.643530       -17.5113 
  33   2.0000      -0.635436       -17.2911 
  34   2.0000      -0.627750       -17.0819 
  35   2.0000      -0.605253       -16.4698 
  36   2.0000      -0.589705       -16.0467 
  37   2.0000      -0.578224       -15.7343 
  38   2.0000      -0.574384       -15.6298 
  39   2.0000      -0.524664       -14.2768 
  40   2.0000      -0.519022       -14.1233 
  41   2.0000      -0.506476       -13.7819 
  42   2.0000      -0.500327       -13.6146 
  43   2.0000      -0.491595       -13.3770 
  44   2.0000      -0.480110       -13.0644 
  45   2.0000      -0.477114       -12.9829 
  46   2.0000      -0.466686       -12.6992 
  47   2.0000      -0.448664       -12.2088 
  48   2.0000      -0.445738       -12.1292 
  49   2.0000      -0.435768       -11.8579 
  50   2.0000      -0.424115       -11.5408 
  51   2.0000      -0.421918       -11.4810 
  52   2.0000      -0.407592       -11.0911 
  53   2.0000      -0.391888       -10.6638 
  54   2.0000      -0.387146       -10.5348 
  55   2.0000      -0.382585       -10.4107 
  56   2.0000      -0.380299       -10.3485 
  57   2.0000      -0.369461       -10.0535 
  58   2.0000      -0.367862       -10.0100 
  59   2.0000      -0.356968        -9.7136 
  60   2.0000      -0.353734        -9.6256 
  61   2.0000      -0.348935        -9.4950 
  62   2.0000      -0.347766        -9.4632 
  63   2.0000      -0.341005        -9.2792 
  64   2.0000      -0.330585        -8.9957 
  65   2.0000      -0.323622        -8.8062 
  66   2.0000      -0.319524        -8.6947 
  67   2.0000      -0.183393        -4.9904 
  68   0.0000      -0.002252        -0.0613 
  69   0.0000       0.030475         0.8293 
  70   0.0000       0.037691         1.0256 
  71   0.0000       0.041890         1.1399 
  72   0.0000       0.048680         1.3246 
  73   0.0000       0.056691         1.5426 
  74   0.0000       0.067008         1.8234 
  75   0.0000       0.068512         1.8643 
  76   0.0000       0.071195         1.9373 
  77   0.0000       0.078971         2.1489 
  78   0.0000       0.082462         2.2439 
  79   0.0000       0.090295         2.4570 
  80   0.0000       0.098789         2.6882 
  81   0.0000       0.107626         2.9287 
  82   0.0000       0.110431         3.0050 
  83   0.0000       0.117932         3.2091 
  84   0.0000       0.120546         3.2802 
  85   0.0000       0.124635         3.3915 
  86   0.0000       0.128413         3.4943 
  87   0.0000       0.133342         3.6284 
  88   0.0000       0.138905         3.7798 
  89   0.0000       0.143120         3.8945 
  90   0.0000       0.152404         4.1471 
  91   0.0000       0.155905         4.2424 
  92   0.0000       0.162256         4.4152 
  93   0.0000       0.166885         4.5412 
  94   0.0000       0.171769         4.6741 
  95   0.0000       0.178847         4.8667 
  96   0.0000       0.183200         4.9851 
  97   0.0000       0.187417         5.0999 
  98   0.0000       0.192395         5.2353 
  99   0.0000       0.203422         5.5354 
 100   0.0000       0.208644         5.6775 
 101   0.0000       0.212356         5.7785 
 102   0.0000       0.218949         5.9579 
 103   0.0000       0.225791         6.1441 
 104   0.0000       0.232042         6.3142 
 105   0.0000       0.237532         6.4636 
 106   0.0000       0.241744         6.5782 
 107   0.0000       0.250664         6.8209 
 108   0.0000       0.258946         7.0463 
 109   0.0000       0.271013         7.3746 
 110   0.0000       0.272692         7.4203 
 111   0.0000       0.274777         7.4771 
 112   0.0000       0.283522         7.7150 
 113   0.0000       0.292505         7.9595 
 114   0.0000       0.298083         8.1112 
 115   0.0000       0.303541         8.2598 
 116   0.0000       0.310447         8.4477 
 117   0.0000       0.317978         8.6526 
 118   0.0000       0.321440         8.7468 
 119   0.0000       0.329159         8.9569 
 120   0.0000       0.344424         9.3723 
 121   0.0000       0.346599         9.4314 
 122   0.0000       0.352151         9.5825 
 123   0.0000       0.355531         9.6745 
 124   0.0000       0.367244         9.9932 
 125   0.0000       0.368584        10.0297 
 126   0.0000       0.377131        10.2623 
 127   0.0000       0.384170        10.4538 
 128   0.0000       0.397368        10.8129 
 129   0.0000       0.398403        10.8411 
 130   0.0000       0.400604        10.9010 
 131   0.0000       0.408170        11.1069 
 132   0.0000       0.412584        11.2270 
 133   0.0000       0.414139        11.2693 
 134   0.0000       0.419149        11.4056 
 135   0.0000       0.424200        11.5431 
 136   0.0000       0.433177        11.7873 
 137   0.0000       0.435026        11.8376 
 138   0.0000       0.438126        11.9220 
 139   0.0000       0.442162        12.0318 
 140   0.0000       0.445087        12.1114 
 141   0.0000       0.451660        12.2903 
 142   0.0000       0.455787        12.4026 
 143   0.0000       0.459037        12.4910 
 144   0.0000       0.460157        12.5215 
 145   0.0000       0.463420        12.6103 
 146   0.0000       0.469211        12.7679 
 147   0.0000       0.472079        12.8459 
 148   0.0000       0.473363        12.8809 
 149   0.0000       0.479258        13.0413 
 150   0.0000       0.483027        13.1438 
 151   0.0000       0.487111        13.2550 
 152   0.0000       0.489060        13.3080 
 153   0.0000       0.497759        13.5447 
 154   0.0000       0.502532        13.6746 
 155   0.0000       0.507247        13.8029 
 156   0.0000       0.510979        13.9044 
 157   0.0000       0.518348        14.1050 
 158   0.0000       0.520743        14.1701 
 159   0.0000       0.530520        14.4362 
 160   0.0000       0.533179        14.5085 
 161   0.0000       0.538794        14.6613 
 162   0.0000       0.547156        14.8889 
 163   0.0000       0.554331        15.0841 
 164   0.0000       0.563627        15.3371 
 165   0.0000       0.570433        15.5223 
 166   0.0000       0.581952        15.8357 
 167   0.0000       0.587789        15.9946 
 168   0.0000       0.601268        16.3613 
 169   0.0000       0.604491        16.4490 
 170   0.0000       0.612799        16.6751 
 171   0.0000       0.620478        16.8841 
 172   0.0000       0.629339        17.1252 
 173   0.0000       0.643008        17.4971 
 174   0.0000       0.650741        17.7076 
 175   0.0000       0.656086        17.8530 
 176   0.0000       0.661508        18.0005 
 177   0.0000       0.673822        18.3356 
 178   0.0000       0.683224        18.5915 
 179   0.0000       0.689314        18.7572 
 180   0.0000       0.700629        19.0651 
 181   0.0000       0.715575        19.4718 
 182   0.0000       0.722382        19.6570 
 183   0.0000       0.728831        19.8325 
 184   0.0000       0.737476        20.0677 
 185   0.0000       0.743916        20.2430 
 186   0.0000       0.750151        20.4127 
 187   0.0000       0.759139        20.6572 
 188   0.0000       0.770588        20.9688 
 189   0.0000       0.776969        21.1424 
 190   0.0000       0.794604        21.6223 
 191   0.0000       0.797770        21.7084 
 192   0.0000       0.800871        21.7928 
 193   0.0000       0.804358        21.8877 
 194   0.0000       0.816919        22.2295 
 195   0.0000       0.827484        22.5170 
 196   0.0000       0.839339        22.8396 
 197   0.0000       0.846907        23.0455 
 198   0.0000       0.853974        23.2378 
 199   0.0000       0.862885        23.4803 
 200   0.0000       0.867009        23.5925 
 201   0.0000       0.875297        23.8180 
 202   0.0000       0.884587        24.0708 
 203   0.0000       0.894562        24.3423 
 204   0.0000       0.901601        24.5338 
 205   0.0000       0.916055        24.9271 
 206   0.0000       0.923823        25.1385 
 207   0.0000       0.927161        25.2293 
 208   0.0000       0.941428        25.6175 
 209   0.0000       0.954798        25.9814 
 210   0.0000       0.957053        26.0427 
 211   0.0000       0.975424        26.5426 
 212   0.0000       0.982120        26.7248 
 213   0.0000       0.988851        26.9080 
 214   0.0000       1.002361        27.2756 
 215   0.0000       1.024185        27.8695 
 216   0.0000       1.038644        28.2629 
 217   0.0000       1.041829        28.3496 
 218   0.0000       1.047544        28.5051 
 219   0.0000       1.060246        28.8508 
 220   0.0000       1.064853        28.9761 
 221   0.0000       1.080770        29.4093 
 222   0.0000       1.089882        29.6572 
 223   0.0000       1.096288        29.8315 
 224   0.0000       1.103012        30.0145 
 225   0.0000       1.118660        30.4403 
 226   0.0000       1.119693        30.4684 
 227   0.0000       1.138545        30.9814 
 228   0.0000       1.147656        31.2293 
 229   0.0000       1.155318        31.4378 
 230   0.0000       1.171949        31.8904 
 231   0.0000       1.180806        32.1314 
 232   0.0000       1.190514        32.3955 
 233   0.0000       1.200351        32.6632 
 234   0.0000       1.206762        32.8377 
 235   0.0000       1.211974        32.9795 
 236   0.0000       1.221606        33.2416 
 237   0.0000       1.234834        33.6015 
 238   0.0000       1.243597        33.8400 
 239   0.0000       1.255373        34.1604 
 240   0.0000       1.270506        34.5722 
 241   0.0000       1.274887        34.6914 
 242   0.0000       1.280876        34.8544 
 243   0.0000       1.298484        35.3335 
 244   0.0000       1.304368        35.4937 
 245   0.0000       1.319842        35.9147 
 246   0.0000       1.327302        36.1177 
 247   0.0000       1.343664        36.5629 
 248   0.0000       1.355504        36.8851 
 249   0.0000       1.362259        37.0690 
 250   0.0000       1.368489        37.2385 
 251   0.0000       1.377051        37.4715 
 252   0.0000       1.383285        37.6411 
 253   0.0000       1.387068        37.7440 
 254   0.0000       1.397036        38.0153 
 255   0.0000       1.412075        38.4245 
 256   0.0000       1.442668        39.2570 
 257   0.0000       1.463514        39.8242 
 258   0.0000       1.469207        39.9792 
 259   0.0000       1.483023        40.3551 
 260   0.0000       1.491095        40.5748 
 261   0.0000       1.509431        41.0737 
 262   0.0000       1.517787        41.3011 
 263   0.0000       1.525737        41.5174 
 264   0.0000       1.538067        41.8529 
 265   0.0000       1.540467        41.9182 
 266   0.0000       1.549920        42.1755 
 267   0.0000       1.552866        42.2556 
 268   0.0000       1.554643        42.3040 
 269   0.0000       1.584260        43.1099 
 270   0.0000       1.588042        43.2128 
 271   0.0000       1.593058        43.3493 
 272   0.0000       1.600950        43.5641 
 273   0.0000       1.601511        43.5793 
 274   0.0000       1.611210        43.8433 
 275   0.0000       1.614307        43.9275 
 276   0.0000       1.624777        44.2124 
 277   0.0000       1.632717        44.4285 
 278   0.0000       1.638919        44.5973 
 279   0.0000       1.643998        44.7354 
 280   0.0000       1.652106        44.9561 
 281   0.0000       1.657086        45.0916 
 282   0.0000       1.659606        45.1602 
 283   0.0000       1.664047        45.2810 
 284   0.0000       1.678391        45.6713 
 285   0.0000       1.682272        45.7770 
 286   0.0000       1.688412        45.9440 
 287   0.0000       1.693915        46.0938 
 288   0.0000       1.710546        46.5463 
 289   0.0000       1.717166        46.7265 
 290   0.0000       1.728056        47.0228 
 291   0.0000       1.735505        47.2255 
 292   0.0000       1.752170        47.6790 
 293   0.0000       1.767429        48.0942 
 294   0.0000       1.769137        48.1407 
 295   0.0000       1.780262        48.4434 
 296   0.0000       1.792438        48.7747 
 297   0.0000       1.800568        48.9959 
 298   0.0000       1.806677        49.1622 
 299   0.0000       1.812405        49.3181 
 300   0.0000       1.823863        49.6298 
 301   0.0000       1.838489        50.0278 
 302   0.0000       1.852531        50.4099 
 303   0.0000       1.864212        50.7278 
 304   0.0000       1.873441        50.9789 
 305   0.0000       1.881585        51.2005 
 306   0.0000       1.896409        51.6039 
 307   0.0000       1.901770        51.7498 
 308   0.0000       1.906008        51.8651 
 309   0.0000       1.912365        52.0381 
 310   0.0000       1.927959        52.4624 
 311   0.0000       1.933380        52.6099 
 312   0.0000       1.947642        52.9980 
 313   0.0000       1.951362        53.0993 
 314   0.0000       1.959848        53.3302 
 315   0.0000       1.974697        53.7342 
 316   0.0000       1.985320        54.0233 
 317   0.0000       1.994512        54.2734 
 318   0.0000       1.998341        54.3776 
 319   0.0000       2.007303        54.6215 
 320   0.0000       2.016364        54.8681 
 321   0.0000       2.034640        55.3654 
 322   0.0000       2.044490        55.6334 
 323   0.0000       2.050819        55.8056 
 324   0.0000       2.065156        56.1957 
 325   0.0000       2.079300        56.5806 
 326   0.0000       2.093212        56.9592 
 327   0.0000       2.107019        57.3349 
 328   0.0000       2.109662        57.4068 
 329   0.0000       2.119999        57.6881 
 330   0.0000       2.129163        57.9375 
 331   0.0000       2.136653        58.1413 
 332   0.0000       2.153327        58.5950 
 333   0.0000       2.165906        58.9373 
 334   0.0000       2.170548        59.0636 
 335   0.0000       2.186970        59.5105 
 336   0.0000       2.202853        59.9427 
 337   0.0000       2.211606        60.1809 
 338   0.0000       2.228161        60.6313 
 339   0.0000       2.245064        61.0913 
 340   0.0000       2.257369        61.4261 
 341   0.0000       2.262776        61.5733 
 342   0.0000       2.271383        61.8075 
 343   0.0000       2.287136        62.2361 
 344   0.0000       2.298414        62.5430 
 345   0.0000       2.315141        62.9982 
 346   0.0000       2.323321        63.2208 
 347   0.0000       2.329770        63.3963 
 348   0.0000       2.346954        63.8639 
 349   0.0000       2.357055        64.1387 
 350   0.0000       2.370951        64.5169 
 351   0.0000       2.386564        64.9417 
 352   0.0000       2.390184        65.0402 
 353   0.0000       2.401098        65.3372 
 354   0.0000       2.411972        65.6331 
 355   0.0000       2.427600        66.0583 
 356   0.0000       2.430920        66.1487 
 357   0.0000       2.438331        66.3504 
 358   0.0000       2.450966        66.6942 
 359   0.0000       2.456045        66.8324 
 360   0.0000       2.462443        67.0065 
 361   0.0000       2.471889        67.2635 
 362   0.0000       2.475048        67.3495 
 363   0.0000       2.484482        67.6062 
 364   0.0000       2.493404        67.8490 
 365   0.0000       2.502902        68.1074 
 366   0.0000       2.510829        68.3231 
 367   0.0000       2.514151        68.4135 
 368   0.0000       2.529727        68.8374 
 369   0.0000       2.531124        68.8754 
 370   0.0000       2.542196        69.1767 
 371   0.0000       2.560248        69.6679 
 372   0.0000       2.561212        69.6941 
 373   0.0000       2.573575        70.0305 
 374   0.0000       2.579021        70.1787 
 375   0.0000       2.586868        70.3922 
 376   0.0000       2.597176        70.6727 
 377   0.0000       2.602936        70.8295 
 378   0.0000       2.604907        70.8831 
 379   0.0000       2.616388        71.1955 
 380   0.0000       2.624879        71.4266 
 381   0.0000       2.631383        71.6036 
 382   0.0000       2.640516        71.8521 
 383   0.0000       2.646129        72.0048 
 384   0.0000       2.655534        72.2607 
 385   0.0000       2.661218        72.4154 
 386   0.0000       2.663715        72.4834 
 387   0.0000       2.670394        72.6651 
 388   0.0000       2.682519        72.9951 
 389   0.0000       2.690581        73.2144 
 390   0.0000       2.697126        73.3925 
 391   0.0000       2.717060        73.9350 
 392   0.0000       2.724058        74.1254 
 393   0.0000       2.729314        74.2684 
 394   0.0000       2.732677        74.3599 
 395   0.0000       2.738497        74.5183 
 396   0.0000       2.744456        74.6804 
 397   0.0000       2.751375        74.8687 
 398   0.0000       2.759312        75.0847 
 399   0.0000       2.766984        75.2935 
 400   0.0000       2.774409        75.4955 
 401   0.0000       2.778062        75.5949 
 402   0.0000       2.791388        75.9575 
 403   0.0000       2.794902        76.0532 
 404   0.0000       2.811939        76.5168 
 405   0.0000       2.813383        76.5560 
 406   0.0000       2.817994        76.6815 
 407   0.0000       2.822310        76.7990 
 408   0.0000       2.840112        77.2834 
 409   0.0000       2.844937        77.4147 
 410   0.0000       2.847382        77.4812 
 411   0.0000       2.859375        77.8076 
 412   0.0000       2.869022        78.0701 
 413   0.0000       2.880333        78.3779 
 414   0.0000       2.898682        78.8771 
 415   0.0000       2.909330        79.1669 
 416   0.0000       2.935392        79.8761 
 417   0.0000       2.941475        80.0416 
 418   0.0000       2.956930        80.4622 
 419   0.0000       2.972451        80.8845 
 420   0.0000       2.983716        81.1910 
 421   0.0000       2.990113        81.3651 
 422   0.0000       3.001998        81.6885 
 423   0.0000       3.017864        82.1203 
 424   0.0000       3.026608        82.3582 
 425   0.0000       3.032141        82.5087 
 426   0.0000       3.044592        82.8475 
 427   0.0000       3.056320        83.1667 
 428   0.0000       3.070756        83.5595 
 429   0.0000       3.084723        83.9396 
 430   0.0000       3.093501        84.1785 
 431   0.0000       3.105743        84.5116 
 432   0.0000       3.112434        84.6936 
 433   0.0000       3.124446        85.0205 
 434   0.0000       3.138481        85.4024 
 435   0.0000       3.143799        85.5471 
 436   0.0000       3.153271        85.8049 
 437   0.0000       3.164318        86.1055 
 438   0.0000       3.177822        86.4729 
 439   0.0000       3.182005        86.5868 
 440   0.0000       3.189153        86.7813 
 441   0.0000       3.201045        87.1049 
 442   0.0000       3.209198        87.3267 
 443   0.0000       3.213115        87.4333 
 444   0.0000       3.216295        87.5198 
 445   0.0000       3.227960        87.8373 
 446   0.0000       3.234177        88.0064 
 447   0.0000       3.260827        88.7316 
 448   0.0000       3.261073        88.7383 
 449   0.0000       3.275805        89.1392 
 450   0.0000       3.283803        89.3568 
 451   0.0000       3.293791        89.6286 
 452   0.0000       3.298167        89.7477 
 453   0.0000       3.310063        90.0714 
 454   0.0000       3.314528        90.1929 
 455   0.0000       3.327111        90.5353 
 456   0.0000       3.327551        90.5473 
 457   0.0000       3.332866        90.6919 
 458   0.0000       3.338314        90.8401 
 459   0.0000       3.356302        91.3296 
 460   0.0000       3.365734        91.5863 
 461   0.0000       3.381520        92.0158 
 462   0.0000       3.385411        92.1217 
 463   0.0000       3.389594        92.2356 
 464   0.0000       3.395837        92.4054 
 465   0.0000       3.403112        92.6034 
 466   0.0000       3.411270        92.8254 
 467   0.0000       3.420976        93.0895 
 468   0.0000       3.424980        93.1984 
 469   0.0000       3.432290        93.3974 
 470   0.0000       3.440665        93.6253 
 471   0.0000       3.446130        93.7740 
 472   0.0000       3.460259        94.1584 
 473   0.0000       3.466921        94.3397 
 474   0.0000       3.471275        94.4582 
 475   0.0000       3.477259        94.6210 
 476   0.0000       3.482626        94.7671 
 477   0.0000       3.496113        95.1341 
 478   0.0000       3.504987        95.3755 
 479   0.0000       3.512252        95.5732 
 480   0.0000       3.526710        95.9666 
 481   0.0000       3.538825        96.2963 
 482   0.0000       3.543504        96.4237 
 483   0.0000       3.555942        96.7621 
 484   0.0000       3.565732        97.0285 
 485   0.0000       3.583105        97.5012 
 486   0.0000       3.588794        97.6561 
 487   0.0000       3.594442        97.8097 
 488   0.0000       3.606578        98.1400 
 489   0.0000       3.618823        98.4732 
 490   0.0000       3.624778        98.6352 
 491   0.0000       3.652071        99.3779 
 492   0.0000       3.658503        99.5529 
 493   0.0000       3.670052        99.8672 
 494   0.0000       3.685983       100.3007 
 495   0.0000       3.702026       100.7372 
 496   0.0000       3.718157       101.1762 
 497   0.0000       3.723842       101.3309 
 498   0.0000       3.763081       102.3986 
 499   0.0000       3.766819       102.5004 
 500   0.0000       3.786167       103.0268 
 501   0.0000       3.799438       103.3880 
 502   0.0000       3.825564       104.0989 
 503   0.0000       3.831884       104.2709 
 504   0.0000       3.865202       105.1775 
 505   0.0000       3.880731       105.6001 
 506   0.0000       3.886838       105.7662 
 507   0.0000       3.916718       106.5793 
 508   0.0000       3.927962       106.8853 
 509   0.0000       3.934886       107.0737 
 510   0.0000       3.946783       107.3974 
 511   0.0000       3.959128       107.7333 
 512   0.0000       3.976359       108.2022 
 513   0.0000       3.984012       108.4105 
 514   0.0000       3.992663       108.6459 
 515   0.0000       4.007074       109.0380 
 516   0.0000       4.019786       109.3839 
 517   0.0000       4.034278       109.7783 
 518   0.0000       4.035368       109.8079 
 519   0.0000       4.047708       110.1437 
 520   0.0000       4.067337       110.6779 
 521   0.0000       4.077922       110.9659 
 522   0.0000       4.099957       111.5655 
 523   0.0000       4.119196       112.0890 
 524   0.0000       4.123701       112.2116 
 525   0.0000       4.163420       113.2924 
 526   0.0000       4.186551       113.9219 
 527   0.0000       4.199793       114.2822 
 528   0.0000       4.215793       114.7176 
 529   0.0000       4.235383       115.2506 
 530   0.0000       4.256978       115.8383 
 531   0.0000       4.269536       116.1800 
 532   0.0000       4.288120       116.6857 
 533   0.0000       4.306371       117.1823 
 534   0.0000       4.320009       117.5534 
 535   0.0000       4.336960       118.0147 
 536   0.0000       4.375462       119.0624 
 537   0.0000       4.393643       119.5571 
 538   0.0000       4.420542       120.2891 
 539   0.0000       4.430616       120.5632 
 540   0.0000       4.441077       120.8478 
 541   0.0000       4.475831       121.7936 
 542   0.0000       4.481180       121.9391 
 543   0.0000       4.519667       122.9864 
 544   0.0000       4.541050       123.5683 
 545   0.0000       4.553528       123.9078 
 546   0.0000       4.566471       124.2600 
 547   0.0000       4.592431       124.9664 
 548   0.0000       4.622545       125.7858 
 549   0.0000       4.645983       126.4236 
 550   0.0000       4.674458       127.1985 
 551   0.0000       4.684000       127.4581 
 552   0.0000       4.696588       127.8007 
 553   0.0000       4.703918       128.0001 
 554   0.0000       4.715024       128.3023 
 555   0.0000       4.718790       128.4048 
 556   0.0000       4.742700       129.0554 
 557   0.0000       4.783387       130.1626 
 558   0.0000       4.804972       130.7499 
 559   0.0000       4.830479       131.4440 
 560   0.0000       4.848258       131.9278 
 561   0.0000       4.873380       132.6114 
 562   0.0000       4.891497       133.1044 
 563   0.0000       4.916305       133.7795 
 564   0.0000       4.935873       134.3119 
 565   0.0000       4.943292       134.5138 
 566   0.0000       4.983404       135.6053 
 567   0.0000       5.061491       137.7302 
 568   0.0000       5.104223       138.8930 
 569   0.0000       5.123876       139.4277 
 570   0.0000       5.127034       139.5137 
 571   0.0000       5.128792       139.5615 
 572   0.0000       5.140182       139.8715 
 573   0.0000       5.145211       140.0083 
 574   0.0000       5.153085       140.2226 
 575   0.0000       5.162247       140.4719 
 576   0.0000       5.171818       140.7323 
 577   0.0000       5.191628       141.2714 
 578   0.0000       5.222339       142.1071 
 579   0.0000       5.251163       142.8914 
 580   0.0000       5.309554       144.4803 
 581   0.0000       5.328879       145.0062 
 582   0.0000       5.342108       145.3661 
 583   0.0000       5.413016       147.2957 
 584   0.0000       5.475552       148.9973 
 585   0.0000       5.485755       149.2750 
 586   0.0000       5.503596       149.7605 
 587   0.0000       5.577634       151.7751 
 588   0.0000       5.616070       152.8210 
 589   0.0000       5.652069       153.8006 
 590   0.0000       5.691933       154.8854 
 591   0.0000       5.936351       161.5363 
 592   0.0000       6.014114       163.6524 
 593   0.0000       6.295036       171.2966 
 594   0.0000       6.316194       171.8724 
 595   0.0000       6.367031       173.2557 
 596   0.0000       6.442846       175.3188 
 597   0.0000       6.637101       180.6047 
 598   0.0000       6.664411       181.3479 
 599   0.0000       6.720810       182.8825 
 600   0.0000       6.774357       184.3396 
 601   0.0000       6.791588       184.8085 
 602   0.0000       6.813178       185.3960 
 603   0.0000       6.833519       185.9495 
 604   0.0000       6.860597       186.6863 
 605   0.0000       6.883489       187.3093 
 606   0.0000       6.926845       188.4890 
 607   0.0000       6.951985       189.1731 
 608   0.0000       7.013072       190.8354 
 609   0.0000       7.027297       191.2225 
 610   0.0000       8.305331       225.9995 
 611   0.0000       8.486883       230.9398 
 612   0.0000       8.599434       234.0025 
 613   0.0000       8.681646       236.2396 
 614   0.0000       8.796010       239.3516 
 615   0.0000       9.392468       255.5820 
 616   0.0000       9.609003       261.4743 
 617   0.0000       9.663709       262.9629 
 618   0.0000      22.161754       603.0520 
 619   0.0000      22.478418       611.6689 
 620   0.0000      22.538622       613.3071 
 621   0.0000      22.564479       614.0107 
 622   0.0000      22.583299       614.5228 
 623   0.0000      22.594009       614.8142 
 624   0.0000      22.632345       615.8574 
 625   0.0000      22.643594       616.1635 
 626   0.0000      22.654903       616.4713 
 627   0.0000      22.676551       617.0603 
 628   0.0000      22.758875       619.3005 
 629   0.0000      23.411094       637.0482 
 630   0.0000      32.357607       880.4953 
 631   0.0000      43.692094      1188.9223 
 632   0.0000      43.859814      1193.4862 
 633   0.0000      57.245257      1557.7226 

                    ********************************
                    * MULLIKEN POPULATION ANALYSIS *
                    ********************************

-----------------------
MULLIKEN ATOMIC CHARGES
-----------------------
   0 C :   -0.145377
   1 C :   -0.168626
   2 C :   -0.312904
   3 H :    0.180000
   4 H :    0.182164
   5 S :    0.847483
   6 C :    0.149387
   7 C :   -0.457004
   8 N :   -0.454952
   9 H :    0.246361
  10 H :    0.255398
  11 H :    0.103792
  12 H :    0.093865
  13 F :   -0.124235
  14 O :   -0.431561
  15 C :   -0.276713
  16 C :   -0.288607
  17 C :   -0.226806
  18 H :    0.122476
  19 H :    0.119300
  20 H :    0.119138
  21 H :    0.145121
  22 C :   -0.227075
  23 H :    0.105843
  24 H :    0.094391
  25 C :   -0.136385
  26 H :    0.132303
  27 H :    0.105417
  28 C :   -0.194515
  29 H :    0.104389
  30 H :    0.099682
  31 H :    0.107512
  32 H :    0.081429
  33 H :    0.108021
  34 H :    0.112323
  35 O :   -0.388341
  36 H :    0.112124
  37 H :    0.105181
Sum of atomic charges:   -0.0000000

--------------------------------
MULLIKEN REDUCED ORBITAL CHARGES
--------------------------------
  0 C s       :     3.143568  s :     3.143568
      pz      :     0.989261  p :     2.902631
      px      :     0.921957
      py      :     0.991414
      dz2     :     0.021077  d :     0.093822
      dxz     :     0.028020
      dyz     :     0.007038
      dx2y2   :     0.025704
      dxy     :     0.011984
      f0      :     0.000795  f :     0.005357
      f+1     :     0.001032
      f-1     :     0.000473
      f+2     :     0.000721
      f-2     :     0.000498
      f+3     :     0.000880
      f-3     :     0.000956
  1 C s       :     3.141857  s :     3.141857
      pz      :     0.985231  p :     2.920722
      px      :     0.918115
      py      :     1.017377
      dz2     :     0.016666  d :     0.100542
      dxz     :     0.028584
      dyz     :     0.007637
      dx2y2   :     0.028442
      dxy     :     0.019213
      f0      :     0.000763  f :     0.005504
      f+1     :     0.001147
      f-1     :     0.000195
      f+2     :     0.000469
      f-2     :     0.000973
      f+3     :     0.001182
      f-3     :     0.000775
  2 C s       :     3.217262  s :     3.217262
      pz      :     0.854447  p :     2.996306
      px      :     1.039007
      py      :     1.102853
      dz2     :     0.035883  d :     0.094585
      dxz     :     0.014709
      dyz     :     0.010834
      dx2y2   :     0.012627
      dxy     :     0.020532
      f0      :     0.000967  f :     0.004751
      f+1     :     0.001438
      f-1     :     0.000398
      f+2     :     0.000338
      f-2     :     0.000564
      f+3     :     0.000538
      f-3     :     0.000508
  3 H s       :     0.797216  s :     0.797216
      pz      :     0.004626  p :     0.022784
      px      :     0.005952
      py      :     0.012205
  4 H s       :     0.795511  s :     0.795511
      pz      :     0.003823  p :     0.022324
      px      :     0.010605
      py      :     0.007897
  5 S s       :     5.381008  s :     5.381008
      pz      :     2.997194  p :     8.522331
      px      :     2.767542
      py      :     2.757595
      dz2     :     0.257556  d :     1.128587
      dxz     :     0.164783
      dyz     :     0.187624
      dx2y2   :     0.243407
      dxy     :     0.275217
      f0      :     0.009697  f :     0.120591
      f+1     :     0.013622
      f-1     :     0.011632
      f+2     :     0.013446
      f-2     :     0.018599
      f+3     :     0.026883
      f-3     :     0.026712
  6 C s       :     3.084875  s :     3.084875
      pz      :     0.857441  p :     2.575110
      px      :     0.925758
      py      :     0.791912
      dz2     :     0.009019  d :     0.176306
      dxz     :     0.026984
      dyz     :     0.048785
      dx2y2   :     0.050919
      dxy     :     0.040598
      f0      :     0.002192  f :     0.014322
      f+1     :     0.000878
      f-1     :     0.001179
      f+2     :     0.002453
      f-2     :     0.001186
      f+3     :     0.004345
      f-3     :     0.002090
  7 C s       :     3.216535  s :     3.216535
      pz      :     1.239297  p :     3.192588
      px      :     0.962911
      py      :     0.990380
      dz2     :     0.005572  d :     0.042570
      dxz     :     0.006368
      dyz     :     0.005072
      dx2y2   :     0.018698
      dxy     :     0.006859
      f0      :     0.001134  f :     0.005311
      f+1     :     0.000770
      f-1     :     0.000804
      f+2     :     0.000152
      f-2     :     0.000434
      f+3     :     0.001058
      f-3     :     0.000960
  8 N s       :     3.404587  s :     3.404587
      pz      :     1.691134  p :     4.004554
      px      :     1.162041
      py      :     1.151379
      dz2     :     0.004042  d :     0.042208
      dxz     :     0.000865
      dyz     :     0.010886
      dx2y2   :     0.006082
      dxy     :     0.020333
      f0      :     0.000709  f :     0.003603
      f+1     :     0.000496
      f-1     :     0.000616
      f+2     :     0.000357
      f-2     :     0.000140
      f+3     :     0.000645
      f-3     :     0.000641
  9 H s       :     0.702717  s :     0.702717
      pz      :     0.013979  p :     0.050921
      px      :     0.015398
      py      :     0.021544
 10 H s       :     0.705356  s :     0.705356
      pz      :     0.011772  p :     0.039246
      px      :     0.016623
      py      :     0.010850
 11 H s       :     0.870114  s :     0.870114
      pz      :     0.008789  p :     0.026094
      px      :     0.004686
      py      :     0.012619
 12 H s       :     0.880896  s :     0.880896
      pz      :     0.008217  p :     0.025240
      px      :     0.011781
      py      :     0.005241
 13 F s       :     3.901185  s :     3.901185
      pz      :     1.858688  p :     5.202472
      px      :     1.668809
      py      :     1.674975
      dz2     :     0.002520  d :     0.019812
      dxz     :     0.003014
      dyz     :     0.002233
      dx2y2   :     0.004842
      dxy     :     0.007203
      f0      :     0.000079  f :     0.000767
      f+1     :     0.000085
      f-1     :     0.000081
      f+2     :     0.000015
      f-2     :     0.000118
      f+3     :     0.000195
      f-3     :     0.000195
 14 O s       :     3.859286  s :     3.859286
      pz      :     1.590738  p :     4.535909
      px      :     1.325346
      py      :     1.619825
      dz2     :     0.005756  d :     0.034406
      dxz     :     0.009354
      dyz     :     0.003290
      dx2y2   :     0.008540
      dxy     :     0.007466
      f0      :     0.000177  f :     0.001959
      f+1     :     0.000419
      f-1     :     0.000070
      f+2     :     0.000342
      f-2     :     0.000305
      f+3     :     0.000344
      f-3     :     0.000303
 15 C s       :     3.197953  s :     3.197953
      pz      :     0.944331  p :     2.974913
      px      :     1.025074
      py      :     1.005508
      dz2     :     0.032479  d :     0.098360
      dxz     :     0.019633
      dyz     :     0.016076
      dx2y2   :     0.022036
      dxy     :     0.008137
      f0      :     0.001261  f :     0.005487
      f+1     :     0.001174
      f-1     :     0.000857
      f+2     :     0.000848
      f-2     :     0.000574
      f+3     :     0.000162
      f-3     :     0.000613
 16 C s       :     3.215491  s :     3.215491
      pz      :     1.039508  p :     2.971164
      px      :     0.981588
      py      :     0.950068
      dz2     :     0.006594  d :     0.096395
      dxz     :     0.027349
      dyz     :     0.016192
      dx2y2   :     0.024509
      dxy     :     0.021750
      f0      :     0.000652  f :     0.005557
      f+1     :     0.000788
      f-1     :     0.000312
      f+2     :     0.000560
      f-2     :     0.000642
      f+3     :     0.001551
      f-3     :     0.001053
 17 C s       :     3.188730  s :     3.188730
      pz      :     1.064799  p :     2.935266
      px      :     0.958108
      py      :     0.912359
      dz2     :     0.007971  d :     0.097342
      dxz     :     0.023265
[...]
      pz      :     0.989963  p :     3.125974
      px      :     1.057073
      py      :     1.078938
      dz2     :     0.136267  d :     0.363823
      dxz     :     0.066076
      dyz     :     0.040464
      dx2y2   :     0.045423
      dxy     :     0.075594
      f0      :     0.005337  f :     0.031091
      f+1     :     0.007648
      f-1     :     0.003834
      f+2     :     0.004124
      f-2     :     0.003991
      f+3     :     0.003130
      f-3     :     0.003026
  3 H s       :     0.788623  s :     0.788623
      pz      :     0.013703  p :     0.065697
      px      :     0.016621
      py      :     0.035373
  4 H s       :     0.776481  s :     0.776481
      pz      :     0.011549  p :     0.063094
      px      :     0.028036
      py      :     0.023510
  5 S s       :     4.760778  s :     4.760778
      pz      :     2.923866  p :     8.555201
      px      :     2.812877
      py      :     2.818458
      dz2     :     0.399764  d :     1.756899
      dxz     :     0.262803
      dyz     :     0.267625
      dx2y2   :     0.372237
      dxy     :     0.454470
      f0      :     0.030426  f :     0.367369
      f+1     :     0.041109
      f-1     :     0.037789
      f+2     :     0.040774
      f-2     :     0.051657
      f+3     :     0.081534
      f-3     :     0.084081
  6 C s       :     2.707888  s :     2.707888
      pz      :     0.818019  p :     2.847426
      px      :     1.039703
      py      :     0.989704
      dz2     :     0.047059  d :     0.737591
      dxz     :     0.086076
      dyz     :     0.193960
      dx2y2   :     0.214220
      dxy     :     0.196276
      f0      :     0.007301  f :     0.094280
      f+1     :     0.004711
      f-1     :     0.007320
      f+2     :     0.017698
      f-2     :     0.009889
      f+3     :     0.031308
      f-3     :     0.016053
  7 C s       :     2.801824  s :     2.801824
      pz      :     1.136600  p :     3.228479
      px      :     1.047193
      py      :     1.044685
      dz2     :     0.019324  d :     0.230422
      dxz     :     0.018792
      dyz     :     0.015602
      dx2y2   :     0.118630
      dxy     :     0.058074
      f0      :     0.002075  f :     0.028647
      f+1     :     0.003665
      f-1     :     0.003367
      f+2     :     0.000722
      f-2     :     0.003788
      f+3     :     0.007754
      f-3     :     0.007275
  8 N s       :     2.961263  s :     2.961263
      pz      :     1.515449  p :     3.860788
      px      :     1.146972
      py      :     1.198366
      dz2     :     0.010551  d :     0.174846
      dxz     :     0.001829
      dyz     :     0.036537
      dx2y2   :     0.035780
      dxy     :     0.090150
      f0      :     0.001455  f :     0.012406
      f+1     :     0.000974
      f-1     :     0.001962
      f+2     :     0.002015
      f-2     :     0.000293
      f+3     :     0.003468
      f-3     :     0.002239
  9 H s       :     0.704054  s :     0.704054
      pz      :     0.036865  p :     0.142480
      px      :     0.046628
      py      :     0.058987
 10 H s       :     0.713682  s :     0.713682
      pz      :     0.033802  p :     0.113343
      px      :     0.052414
      py      :     0.027127
 11 H s       :     0.822477  s :     0.822477
      pz      :     0.026506  p :     0.079568
      px      :     0.016527
      py      :     0.036536
 12 H s       :     0.827629  s :     0.827629
      pz      :     0.025406  p :     0.078629
      px      :     0.033646
      py      :     0.019577
 13 F s       :     3.673648  s :     3.673648
      pz      :     1.805978  p :     5.223942
      px      :     1.716267
      py      :     1.701697
      dz2     :     0.006042  d :     0.039161
      dxz     :     0.004281
      dyz     :     0.003981
      dx2y2   :     0.007956
      dxy     :     0.016901
      f0      :     0.000126  f :     0.001583
      f+1     :     0.000181
      f-1     :     0.000159
      f+2     :     0.000034
      f-2     :     0.000218
      f+3     :     0.000442
      f-3     :     0.000423
 14 O s       :     3.569925  s :     3.569925
      pz      :     1.578775  p :     4.626322
      px      :     1.461369
      py      :     1.586178
      dz2     :     0.008756  d :     0.066902
      dxz     :     0.021800
      dyz     :     0.005643
      dx2y2   :     0.016588
      dxy     :     0.014115
      f0      :     0.000526  f :     0.004414
      f+1     :     0.000700
      f-1     :     0.000129
      f+2     :     0.000879
      f-2     :     0.000744
      f+3     :     0.000632
      f-3     :     0.000805
 15 C s       :     2.771545  s :     2.771545
      pz      :     1.012816  p :     3.054371
      px      :     1.021355
      py      :     1.020200
      dz2     :     0.126628  d :     0.406651
      dxz     :     0.081411
      dyz     :     0.067037
      dx2y2   :     0.094075
      dxy     :     0.037500
      f0      :     0.007188  f :     0.038805
      f+1     :     0.007045
      f-1     :     0.007293
      f+2     :     0.005586
      f-2     :     0.006111
      f+3     :     0.001377
      f-3     :     0.004204
 16 C s       :     2.770283  s :     2.770283
      pz      :     1.025292  p :     3.057983
      px      :     1.030053
      py      :     1.002638
      dz2     :     0.046849  d :     0.408036
      dxz     :     0.103398
      dyz     :     0.061575
      dx2y2   :     0.100395
      dxy     :     0.095819
      f0      :     0.004309  f :     0.039512
      f+1     :     0.003880
      f-1     :     0.003476
      f+2     :     0.005535
      f-2     :     0.005705
      f+3     :     0.009898
      f-3     :     0.006709
 17 C s       :     2.774420  s :     2.774420
      pz      :     1.033217  p :     3.059851
      px      :     1.011652
      py      :     1.014982
      dz2     :     0.046696  d :     0.404178
      dxz     :     0.095522
      dyz     :     0.065284
      dx2y2   :     0.093778
      dxy     :     0.102898
      f0      :     0.004171  f :     0.038527
      f+1     :     0.004091
      f-1     :     0.003686
      f+2     :     0.004912
      f-2     :     0.005265
      f+3     :     0.009641
      f-3     :     0.006762
 18 H s       :     0.802835  s :     0.802835
      pz      :     0.028535  p :     0.060598
      px      :     0.018838
      py      :     0.013225
 19 H s       :     0.796453  s :     0.796453
      pz      :     0.024877  p :     0.059430
      px      :     0.019861
      py      :     0.014692
 20 H s       :     0.790443  s :     0.790443
      pz      :     0.030196  p :     0.059888
      px      :     0.016249
      py      :     0.013443
 21 H s       :     0.790682  s :     0.790682
      pz      :     0.014097  p :     0.060904
      px      :     0.014440
      py      :     0.032367
 22 C s       :     2.773348  s :     2.773348
      pz      :     1.006367  p :     3.055811
      px      :     1.025284
      py      :     1.024160
      dz2     :     0.125350  d :     0.401502
      dxz     :     0.085890
      dyz     :     0.061662
      dx2y2   :     0.086447
      dxy     :     0.042153
      f0      :     0.007214  f :     0.038361
      f+1     :     0.006995
      f-1     :     0.007228
      f+2     :     0.005637
      f-2     :     0.005795
      f+3     :     0.001341
      f-3     :     0.004151
 23 H s       :     0.800662  s :     0.800662
      pz      :     0.013180  p :     0.059513
      px      :     0.030040
      py      :     0.016293
 24 H s       :     0.812580  s :     0.812580
      pz      :     0.013614  p :     0.060389
      px      :     0.014028
      py      :     0.032747
 25 C s       :     2.776727  s :     2.776727
      pz      :     1.017347  p :     3.053591
      px      :     1.026789
      py      :     1.009455
      dz2     :     0.090451  d :     0.402372
      dxz     :     0.058981
      dyz     :     0.079324
      dx2y2   :     0.073626
      dxy     :     0.099990
      f0      :     0.004943  f :     0.037722
      f+1     :     0.005292
      f-1     :     0.004868
      f+2     :     0.006754
      f-2     :     0.004332
      f+3     :     0.005179
      f-3     :     0.006354
 26 H s       :     0.798712  s :     0.798712
      pz      :     0.013087  p :     0.060688
      px      :     0.030604
      py      :     0.016997
 27 H s       :     0.799202  s :     0.799202
      pz      :     0.012503  p :     0.059154
      px      :     0.013461
      py      :     0.033189
 28 C s       :     2.773515  s :     2.773515
      pz      :     1.026024  p :     3.054001
      px      :     1.015441
      py      :     1.012536
      dz2     :     0.043933  d :     0.406162
      dxz     :     0.102302
      dyz     :     0.062810
      dx2y2   :     0.097963
      dxy     :     0.099152
      f0      :     0.004081  f :     0.038502
      f+1     :     0.004177
      f-1     :     0.003593
      f+2     :     0.005120
      f-2     :     0.005210
      f+3     :     0.009588
      f-3     :     0.006733
 29 H s       :     0.802016  s :     0.802016
      pz      :     0.013255  p :     0.059199
      px      :     0.028246
      py      :     0.017697
 30 H s       :     0.802826  s :     0.802826
      pz      :     0.027926  p :     0.059319
      px      :     0.017184
      py      :     0.014209
 31 H s       :     0.800823  s :     0.800823
      pz      :     0.028772  p :     0.059194
      px      :     0.017287
      py      :     0.013135
 32 H s       :     0.807245  s :     0.807245
      pz      :     0.024704  p :     0.062118
      px      :     0.021703
      py      :     0.015712
 33 H s       :     0.802191  s :     0.802191
      pz      :     0.025623  p :     0.059457
      px      :     0.020186
      py      :     0.013648
 34 H s       :     0.802112  s :     0.802112
      pz      :     0.027862  p :     0.059966
      px      :     0.018053
      py      :     0.014051
 35 O s       :     3.560396  s :     3.560396
      pz      :     1.577446  p :     4.601588
      px      :     1.568678
      py      :     1.455463
      dz2     :     0.009836  d :     0.070185
      dxz     :     0.002819
      dyz     :     0.016390
      dx2y2   :     0.023251
      dxy     :     0.017889
      f0      :     0.000456  f :     0.004726
      f+1     :     0.000135
      f-1     :     0.000831
      f+2     :     0.000625
      f-2     :     0.000417
      f+3     :     0.001186
      f-3     :     0.001076
 36 H s       :     0.792958  s :     0.792958
      pz      :     0.028837  p :     0.060003
      px      :     0.016933
      py      :     0.014234
 37 H s       :     0.790226  s :     0.790226
      pz      :     0.012854  p :     0.058493
      px      :     0.012032
      py      :     0.033607


                      *****************************
                      * MAYER POPULATION ANALYSIS *
                      *****************************

  NA   - Mulliken gross atomic population
  ZA   - Total nuclear charge
  QA   - Mulliken gross atomic charge
  VA   - Mayer's total valence
  BVA  - Mayer's bonded valence
  FA   - Mayer's free valence

  ATOM       NA         ZA         QA         VA         BVA        FA
  0 C      6.1454     6.0000    -0.1454     3.9471     3.9471    -0.0000
  1 C      6.1686     6.0000    -0.1686     3.9050     3.9050     0.0000
  2 C      6.3129     6.0000    -0.3129     3.9122     3.9122    -0.0000
  3 H      0.8200     1.0000     0.1800     0.9640     0.9640    -0.0000
  4 H      0.8178     1.0000     0.1822     0.9672     0.9672    -0.0000
  5 S     15.1525    16.0000     0.8475     5.8847     5.8847    -0.0000
  6 C      5.8506     6.0000     0.1494     4.0406     4.0406    -0.0000
  7 C      6.4570     6.0000    -0.4570     3.8747     3.8747     0.0000
  8 N      7.4550     7.0000    -0.4550     3.1509     3.1509    -0.0000
  9 H      0.7536     1.0000     0.2464     0.9677     0.9677    -0.0000
 10 H      0.7446     1.0000     0.2554     0.9483     0.9483    -0.0000
 11 H      0.8962     1.0000     0.1038     0.9866     0.9866    -0.0000
 12 H      0.9061     1.0000     0.0939     0.9936     0.9936     0.0000
 13 F      9.1242     9.0000    -0.1242     1.1818     1.1818     0.0000
 14 O      8.4316     8.0000    -0.4316     2.0309     2.0309    -0.0000
 15 C      6.2767     6.0000    -0.2767     3.9691     3.9691    -0.0000
 16 C      6.2886     6.0000    -0.2886     3.9335     3.9335    -0.0000
 17 C      6.2268     6.0000    -0.2268     3.8918     3.8918    -0.0000
 18 H      0.8775     1.0000     0.1225     0.9854     0.9854    -0.0000
 19 H      0.8807     1.0000     0.1193     0.9785     0.9785    -0.0000
 20 H      0.8809     1.0000     0.1191     0.9714     0.9714    -0.0000
 21 H      0.8549     1.0000     0.1451     0.9724     0.9724     0.0000
 22 C      6.2271     6.0000    -0.2271     3.8954     3.8954     0.0000
 23 H      0.8942     1.0000     0.1058     0.9740     0.9740     0.0000
 24 H      0.9056     1.0000     0.0944     0.9733     0.9733     0.0000
 25 C      6.1364     6.0000    -0.1364     3.9206     3.9206    -0.0000
 26 H      0.8677     1.0000     0.1323     0.9774     0.9774     0.0000
 27 H      0.8946     1.0000     0.1054     0.9774     0.9774     0.0000
 28 C      6.1945     6.0000    -0.1945     3.9411     3.9411     0.0000
 29 H      0.8956     1.0000     0.1044     0.9729     0.9729     0.0000
 30 H      0.9003     1.0000     0.0997     0.9728     0.9728    -0.0000
 31 H      0.8925     1.0000     0.1075     0.9733     0.9733    -0.0000
 32 H      0.9186     1.0000     0.0814     1.0046     1.0046    -0.0000
 33 H      0.8920     1.0000     0.1080     0.9701     0.9701     0.0000
 34 H      0.8877     1.0000     0.1123     0.9717     0.9717     0.0000
 35 O      8.3883     8.0000    -0.3883     2.1227     2.1227    -0.0000
 36 H      0.8879     1.0000     0.1121     0.9646     0.9646    -0.0000
 37 H      0.8948     1.0000     0.1052     0.9800     0.9800    -0.0000

  Mayer bond orders larger than 0.100000
B(  0-C ,  6-C ) :   1.0000 B(  0-C , 15-C ) :   0.9770 B(  0-C , 36-H ) :   0.9477 
B(  0-C , 37-H ) :   0.9655 B(  1-C ,  2-C ) :   0.9747 B(  1-C , 17-C ) :   1.0093 
B(  1-C , 20-H ) :   0.9388 B(  1-C , 21-H ) :   0.9542 B(  2-C ,  3-H ) :   0.9328 
B(  2-C ,  4-H ) :   0.9292 B(  2-C ,  5-S ) :   0.9121 B(  5-S , 13-F ) :   1.0326 
B(  5-S , 14-O ) :   1.8679 B(  5-S , 35-O ) :   1.9834 B(  6-C ,  7-C ) :   1.7454 
B(  6-C ,  8-N ) :   1.2493 B(  7-C , 11-H ) :   0.9833 B(  7-C , 12-H ) :   0.9808 
B(  8-N ,  9-H ) :   0.8742 B(  8-N , 10-H ) :   0.8887 B( 15-C , 22-C ) :   0.9821 
B( 15-C , 23-H ) :   0.9497 B( 15-C , 24-H ) :   0.9813 B( 16-C , 17-C ) :   0.9654 
B( 16-C , 28-C ) :   1.0087 B( 16-C , 31-H ) :   0.9484 B( 16-C , 32-H ) :   0.9723 
B( 17-C , 18-H ) :   0.9726 B( 17-C , 19-H ) :   0.9561 B( 22-C , 25-C ) :   0.9916 
B( 22-C , 26-H ) :   0.9737 B( 22-C , 27-H ) :   0.9520 B( 25-C , 28-C ) :   0.9905 
B( 25-C , 29-H ) :   0.9595 B( 25-C , 30-H ) :   0.9622 B( 28-C , 33-H ) :   0.9544 
B( 28-C , 34-H ) :   0.9673 

-------
TIMINGS
-------

Total SCF time: 0 days 0 hours 1 min 32 sec 

Total time                  ....      92.408 sec
Sum of individual times     ....      90.825 sec  ( 98.3%)

Fock matrix formation       ....      83.686 sec  ( 90.6%)
  Split-RI-J                ....       8.899 sec  ( 10.6% of F)
  Chain of spheres X        ....      65.855 sec  ( 78.7% of F)
  XC integration            ....       8.423 sec  ( 10.1% of F)
    Basis function eval.    ....       1.554 sec  ( 18.4% of XC)
    Density eval.           ....       1.889 sec  ( 22.4% of XC)
    XC-Functional eval.     ....       0.134 sec  (  1.6% of XC)
    XC-Potential eval.      ....       1.560 sec  ( 18.5% of XC)
Diagonalization             ....       1.089 sec  (  1.2%)
Density matrix formation    ....       0.098 sec  (  0.1%)
Population analysis         ....       0.141 sec  (  0.2%)
Initial guess               ....       0.819 sec  (  0.9%)
Orbital Transformation      ....       0.000 sec  (  0.0%)
Orbital Orthonormalization  ....       0.000 sec  (  0.0%)
DIIS solution               ....       0.632 sec  (  0.7%)
SOSCF solution              ....       0.964 sec  (  1.0%)
Grid generation             ....       3.397 sec  (  3.7%)

Maximum memory used throughout the entire SCF-calculation: 131.7 MB


-------------------------------------------------------------------------------
                          DFT DISPERSION CORRECTION                            
                                                                               
                              DFTD3 V3.1  Rev 1                                
                          USING Becke-Johnson damping                          
-------------------------------------------------------------------------------
The PBE0 functional is recognized
Active option DFTDOPT                   ...         4   

molecular C6(AA) [au] = 12472.702980 


            DFT-D V3
 parameters
 s6 scaling factor         :     1.0000 
 a1 scaling factor         :     0.4145 
 s8 scaling factor         :     1.2177 
 a2 scaling factor         :     4.8593 
 ad hoc parameters k1-k3   :    16.0000     1.3333    -4.0000 

 Edisp/kcal,au: -25.265563732647  -0.040263234392 
 E6   /kcal   : -16.368976877 
 E8   /kcal   :  -8.896586855 
 % E8         :  35.212302997 

-------------------------   ----------------
Dispersion correction           -0.040263234
-------------------------   ----------------


-------------------------   --------------------
FINAL SINGLE POINT ENERGY     -1134.946902649449
-------------------------   --------------------


                            ***************************************
                            *     ORCA property calculations      *
                            ***************************************

                                    ---------------------
                                    Active property flags
                                    ---------------------
   (+) Dipole Moment


------------------------------------------------------------------------------
                       ORCA ELECTRIC PROPERTIES CALCULATION
------------------------------------------------------------------------------

Dipole Moment Calculation                       ... on
Quadrupole Moment Calculation                   ... off
Polarizability Calculation                      ... off
GBWName                                         ... PBE0_D1_wb97.gbw
Electron density file                           ... PBE0_D1_wb97.scfp
The origin for moment calculation is the CENTER OF MASS  = ( 9.499836, -9.303175 -8.797718)

-------------
DIPOLE MOMENT
-------------
                                X             Y             Z
Electronic contribution:     -7.01136     -18.80846     -13.23354
Nuclear contribution   :      7.78491      18.17172      15.09294
                        -----------------------------------------
Total Dipole Moment    :      0.77355      -0.63674       1.85939
                        -----------------------------------------
Magnitude (a.u.)       :      2.11215
Magnitude (Debye)      :      5.36865



--------------------
Rotational spectrum 
--------------------
 
Rotational constants in cm-1:     0.018190     0.012573     0.008405 
Rotational constants in MHz :   545.327178   376.916509   251.974803 

 Dipole components along the rotational axes: 
x,y,z [a.u.] :    -0.638305    -1.991945     0.293058 
x,y,z [Debye]:    -1.622443    -5.063122     0.744894 

 

Timings for individual modules:

Sum of individual times         ...       94.659 sec (=   1.578 min)
GTO integral calculation        ...        1.780 sec (=   0.030 min)   1.9 %
SCF iterations                  ...       92.879 sec (=   1.548 min)  98.1 %
                             ****ORCA TERMINATED NORMALLY****
TOTAL RUN TIME: 0 days 0 hours 1 minutes 35 seconds 511 msec
