
                                        *****************
                                        * O   R   C   A *
                                        *****************

                                            #,                                       
                                            ###                                      
                                            ####                                     
                                            #####                                    
                                            ######                                   
                                           ########,                                 
                                     ,,################,,,,,                         
                               ,,#################################,,                 
                          ,,##########################################,,             
                       ,#########################################, ''#####,          
                    ,#############################################,,   '####,        
                  ,##################################################,,,,####,       
                ,###########''''           ''''###############################       
              ,#####''   ,,,,##########,,,,          '''####'''          '####       
            ,##' ,,,,###########################,,,                        '##       
           ' ,,###''''                  '''############,,,                           
         ,,##''                                '''############,,,,        ,,,,,,###''
      ,#''                                            '''#######################'''  
     '                                                          ''''####''''         
             ,#######,   #######,   ,#######,      ##                                
            ,#'     '#,  ##    ##  ,#'     '#,    #''#        ######   ,####,        
            ##       ##  ##   ,#'  ##            #'  '#       #        #'  '#        
            ##       ##  #######   ##           ,######,      #####,   #    #        
            '#,     ,#'  ##    ##  '#,     ,#' ,#      #,         ##   #,  ,#        
             '#######'   ##     ##  '#######'  #'      '#     #####' # '####'        



                  #######################################################
                  #                        -***-                        #
                  #          Department of theory and spectroscopy      #
                  #    Directorship and core code : Frank Neese         #
                  #        Max Planck Institute fuer Kohlenforschung    #
                  #                Kaiser Wilhelm Platz 1               #
                  #                 D-45470 Muelheim/Ruhr               #
                  #                      Germany                        #
                  #                                                     #
                  #                  All rights reserved                #
                  #                        -***-                        #
                  #######################################################


                         Program Version 5.0.0 -  RELEASE  -
                                (SVN: $Rev: 19529$)
                ($Date: 2021-06-28 11:36:33 +0200 (Mo, 28 Jun 2021) $)


 With contributions from (in alphabetic order):
   Daniel Aravena         : Magnetic Suceptibility
   Michael Atanasov       : Ab Initio Ligand Field Theory (pilot matlab implementation)
   Alexander A. Auer      : GIAO ZORA, VPT2 properties, NMR spectrum
   Ute Becker             : Parallelization
   Giovanni Bistoni       : ED, misc. LED, open-shell LED, HFLD
   Martin Brehm           : Molecular dynamics
   Dmytro Bykov           : SCF Hessian
   Vijay G. Chilkuri      : MRCI spin determinant printing, contributions to CSF-ICE
   Dipayan Datta          : RHF DLPNO-CCSD density
   Achintya Kumar Dutta   : EOM-CC, STEOM-CC
   Dmitry Ganyushin       : Spin-Orbit,Spin-Spin,Magnetic field MRCI
   Miquel Garcia          : C-PCM Hessian, Gaussian charge scheme
   Yang Guo               : DLPNO-NEVPT2, F12-NEVPT2, CIM, IAO-localization
   Andreas Hansen         : Spin unrestricted coupled pair/coupled cluster methods
   Benjamin Helmich-Paris : MC-RPA, TRAH-SCF, COSX integrals
   Lee Huntington         : MR-EOM, pCC
   Robert Izsak           : Overlap fitted RIJCOSX, COSX-SCS-MP3, EOM
   Marcus Kettner         : VPT2
   Christian Kollmar      : KDIIS, OOCD, Brueckner-CCSD(T), CCSD density, CASPT2, CASPT2-K
   Simone Kossmann        : Meta GGA functionals, TD-DFT gradient, OOMP2, MP2 Hessian
   Martin Krupicka        : Initial AUTO-CI
   Lucas Lang             : DCDCAS
   Marvin Lechner         : AUTO-CI (C++ implementation), FIC-MRCC
   Dagmar Lenk            : GEPOL surface, SMD
   Dimitrios Liakos       : Extrapolation schemes; Compound Job, initial MDCI parallelization
   Dimitrios Manganas     : Further ROCIS development; embedding schemes
   Dimitrios Pantazis     : SARC Basis sets
   Anastasios Papadopoulos: AUTO-CI, single reference methods and gradients
   Taras Petrenko         : DFT Hessian,TD-DFT gradient, ASA, ECA, R-Raman, ABS, FL, XAS/XES, NRVS
   Peter Pinski           : DLPNO-MP2, DLPNO-MP2 Gradient
   Christoph Reimann      : Effective Core Potentials
   Marius Retegan         : Local ZFS, SOC
   Christoph Riplinger    : Optimizer, TS searches, QM/MM, DLPNO-CCSD(T), (RO)-DLPNO pert. Triples
   Tobias Risthaus        : Range-separated hybrids, TD-DFT gradient, RPA, STAB
   Michael Roemelt        : Original ROCIS implementation
   Masaaki Saitow         : Open-shell DLPNO-CCSD energy and density
   Barbara Sandhoefer     : DKH picture change effects
   Avijit Sen             : IP-ROCIS
   Kantharuban Sivalingam : CASSCF convergence, NEVPT2, FIC-MRCI
   Bernardo de Souza      : ESD, SOC TD-DFT
   Georgi Stoychev        : AutoAux, RI-MP2 NMR
   Willem Van den Heuvel  : Paramagnetic NMR
   Boris Wezisla          : Elementary symmetry handling
   Frank Wennmohs         : Technical directorship


 We gratefully acknowledge several colleagues who have allowed us to
 interface, adapt or use parts of their codes:
   Stefan Grimme, W. Hujo, H. Kruse, P. Pracht,  : VdW corrections, initial TS optimization,
                  C. Bannwarth, S. Ehlert          DFT functionals, gCP, sTDA/sTD-DF
   Ed Valeev, F. Pavosevic, A. Kumar             : LibInt (2-el integral package), F12 methods
   Garnet Chan, S. Sharma, J. Yang, R. Olivares  : DMRG
   Ulf Ekstrom                                   : XCFun DFT Library
   Mihaly Kallay                                 : mrcc  (arbitrary order and MRCC methods)
   Jiri Pittner, Ondrej Demel                    : Mk-CCSD
   Frank Weinhold                                : gennbo (NPA and NBO analysis)
   Christopher J. Cramer and Donald G. Truhlar   : smd solvation model
   Lars Goerigk                                  : TD-DFT with DH, B97 family of functionals
   V. Asgeirsson, H. Jonsson                     : NEB implementation
   FAccTs GmbH                                   : IRC, NEB, NEB-TS, DLPNO-Multilevel, CI-OPT
                                                   MM, QMMM, 2- and 3-layer-ONIOM, Crystal-QMMM,
                                                   LR-CPCM, SF, NACMEs, symmetry and pop. for TD-DFT,
                                                   nearIR, NL-DFT gradient (VV10), updates on ESD,
                                                   ML-optimized integration grids
   S Lehtola, MJT Oliveira, MAL Marques          : LibXC Library
   Liviu Ungur et al                             : ANISO software


 Your calculation uses the libint2 library for the computation of 2-el integrals
 For citations please refer to: http://libint.valeyev.net

 Your ORCA version has been built with support for libXC version: 5.1.0
 For citations please refer to: https://tddft.org/programs/libxc/

 This ORCA versions uses:
   CBLAS   interface :  Fast vector & matrix operations
   LAPACKE interface :  Fast linear algebra routines
   SCALAPACK package :  Parallel linear algebra routines
   Shared memory     :  Shared parallel matrices
   BLAS/LAPACK       :  OpenBLAS 0.3.15  USE64BITINT DYNAMIC_ARCH NO_AFFINITY Haswell SINGLE_THREADED
        Core in use  :  Haswell
   Copyright (c) 2011-2014, The OpenBLAS Project




***************************************
The coordinates will be read from file: D3.xyz
***************************************


Your calculation utilizes the atom-pairwise dispersion correction
with the Becke-Johnson damping scheme (D3BJ)
Cite in your paper:
S.Grimme, S.Ehrlich, L.Goerigk, J Comput Chem, (2011), 32, 1456–1465 
S.Grimme, J.Antony, S.Ehrlich and H.Krieg, J.Chem.Phys., 132, (2010), 154104 
   

================================================================================

----- Orbital basis set information -----
Your calculation utilizes the basis: def2-TZVPD
   F. Weigend and R. Ahlrichs, Phys. Chem. Chem. Phys. 7, 3297 (2005).
   D. Rappoport and F. Furche, J. Chem. Phys. 133 134105 (2010).

----- AuxJ basis set information -----
Your calculation utilizes the auxiliary basis: def2/J
   F. Weigend, Phys. Chem. Chem. Phys. 8, 1057 (2006).

================================================================================
                                        WARNINGS
                       Please study these warnings very carefully!
================================================================================



WARNING: Found flag for RIJCOSX approximation but no HF exchange needed!
  ===> : RIJCOSX  will be disabled and Split-RI-J is turned on

INFO   : the flag for use of the SHARK integral package has been found!

================================================================================
                                       INPUT FILE
================================================================================
NAME = 28Oct_TZVPD_PBE_D3_wb97.com
|  1> !PBE D3BJ RIJCOSX def2-TZVPD def2/J TightSCF xyzfile                                                                                         
|  2> 
|  3> *xyzfile 0 1 D3.xyz
|  4> 
|  5> %MaxCore 64000
|  6> 
|  7> %pal nprocs 4                                                                                                                                                  
|  8> end  
|  9> 
| 10> %scf
| 11>   MaxIter 150
| 12> end
| 13> 
| 14> 
| 15>                          ****END OF INPUT****
================================================================================

                       ****************************
                       * Single Point Calculation *
                       ****************************

---------------------------------
CARTESIAN COORDINATES (ANGSTROEM)
---------------------------------
  C      4.602954   -2.440100    2.634780
  C     -0.914947    0.615112    2.505538
  C     -0.059146    1.503524    3.410578
  H      0.365364    2.344315    2.861161
  H     -0.692261    1.920207    4.198985
  C      1.083027    0.749640    4.085705
  C      3.860851   -1.591565    3.622893
  C      2.756502   -2.046159    4.166333
  N      4.254325   -0.362905    3.860455
  H      3.565256    0.310994    4.168983
  H      5.054292   -0.016059    3.337838
  H      2.439696   -2.973894    3.897395
  H      2.066869   -1.412532    4.549813
  O      2.228167    1.263475    4.019826
  F      0.810034   -0.345411    4.636269
  C      3.744685   -2.580557    1.361882
  C      0.772139    0.636882    0.562129
  C     -0.130740   -0.193985    1.470763
  H     -0.840563   -0.760165    0.856377
  H      0.466691   -0.938942    2.006959
  H     -1.647961    1.245963    1.991076
  H     -1.478180   -0.081046    3.130424
  C      3.203721   -1.256004    0.826211
  H      2.898939   -3.239289    1.583074
  H      4.334962   -3.095523    0.600188
  C      2.107815   -1.442385   -0.216865
  H      2.786775   -0.672760    1.650711
  H      4.021008   -0.652993    0.414046
  C      1.390662   -0.145912   -0.602422
  H      1.372179   -2.152184    0.176151
  H      2.523302   -1.906787   -1.117115
  H      1.561361    1.100094    1.161831
  H      0.195516    1.468325    0.142758
  H      0.602893   -0.398214   -1.319716
  H      2.087247    0.508272   -1.137335
  H      5.561557   -1.971347    2.407084
  H      4.810498   -3.422552    3.063099

----------------------------
CARTESIAN COORDINATES (A.U.)
----------------------------
  NO LB      ZA    FRAG     MASS         X           Y           Z
   0 C     6.0000    0    12.011    8.698322   -4.611120    4.979013
   1 C     6.0000    0    12.011   -1.729000    1.162394    4.734780
   2 C     6.0000    0    12.011   -0.111770    2.841249    6.445058
   3 H     1.0000    0     1.008    0.690439    4.430113    5.406811
   4 H     1.0000    0     1.008   -1.308184    3.628665    7.934932
   5 C     6.0000    0    12.011    2.046625    1.416613    7.720864
   6 C     6.0000    0    12.011    7.295951   -3.007623    6.846275
   7 C     6.0000    0    12.011    5.209033   -3.866681    7.873228
   8 N     7.0000    0    14.007    8.039509   -0.685791    7.295203
   9 H     1.0000    0     1.008    6.737357    0.587693    7.878236
  10 H     1.0000    0     1.008    9.551228   -0.030346    6.307599
  11 H     1.0000    0     1.008    4.610356   -5.619845    7.365010
  12 H     1.0000    0     1.008    3.905816   -2.669299    8.597900
  13 O     8.0000    0    15.999    4.210626    2.387622    7.596370
  14 F     9.0000    0    18.998    1.530743   -0.652732    8.761278
  15 C     6.0000    0    12.011    7.076429   -4.876545    2.573585
  16 C     6.0000    0    12.011    1.459131    1.203533    1.062270
  17 C     6.0000    0    12.011   -0.247062   -0.366578    2.779339
  18 H     1.0000    0     1.008   -1.588435   -1.436503    1.618317
  19 H     1.0000    0     1.008    0.881918   -1.774344    3.792602
  20 H     1.0000    0     1.008   -3.114194    2.354529    3.762589
  21 H     1.0000    0     1.008   -2.793356   -0.153155    5.915644
  22 C     6.0000    0    12.011    6.054155   -2.373503    1.561312
  23 H     1.0000    0     1.008    5.478202   -6.121369    2.991576
  24 H     1.0000    0     1.008    8.191891   -5.849691    1.134191
  25 C     6.0000    0    12.011    3.983193   -2.725713   -0.409815
  26 H     1.0000    0     1.008    5.266242   -1.271333    3.119391
  27 H     1.0000    0     1.008    7.598605   -1.233978    0.782434
  28 C     6.0000    0    12.011    2.627970   -0.275734   -1.138412
  29 H     1.0000    0     1.008    2.593043   -4.067039    0.332877
  30 H     1.0000    0     1.008    4.768351   -3.603306   -2.111041
  31 H     1.0000    0     1.008    2.950544    2.078876    2.195543
  32 H     1.0000    0     1.008    0.369472    2.774732    0.269774
  33 H     1.0000    0     1.008    1.139302   -0.752515   -2.493901
  34 H     1.0000    0     1.008    3.944325    0.960495   -2.149252
  35 H     1.0000    0     1.008   10.509819   -3.725306    4.548729
  36 H     1.0000    0     1.008    9.090524   -6.467686    5.788418

--------------------------------
INTERNAL COORDINATES (ANGSTROEM)
--------------------------------
 C      0   0   0     0.000000000000     0.00000000     0.00000000
 C      1   0   0     6.308586203432     0.00000000     0.00000000
 C      2   1   0     1.529957107993    77.28183059     0.00000000
 H      3   2   1     1.090411256774   111.55882853    97.86413420
 H      3   2   1     1.093638623089   108.89708857   215.91870349
 C      3   2   1     1.526007259671   113.17289755   335.54994809
 C      1   2   3     1.499030944607    46.08102107    32.22435449
 C      7   1   2     1.312086311450   119.57550804    69.68026511
 N      7   1   2     1.311816934860   120.06979092   255.12582827
 H      9   7   1     1.012000689182   118.33807127   152.74591339
 H      9   7   1     1.016552687460   117.54905062     1.38456693
 H      8   7   1     1.016555216927   117.96452659     0.26424067
 H      8   7   1     1.011994677785   120.90292470   202.77321427
 O      6   3   2     1.256866490428   117.17953923   130.97680566
 F      6   3   2     1.255699244565   117.52128403   312.46756963
 C      1   2   3     1.541629623907    62.62949466   209.82401956
 C      2   1   7     2.573629742126    56.37183241   136.26281467
 C     17   2   1     1.526808691257    32.68646011    60.03349628
 H     18  17   2     1.096302867074   109.29355526   122.31318015
 H     18  17   2     1.095166743970   109.81281793   238.24291461
 H      2   1   7     1.095423053861   150.90514655   137.54603026
 H      2   1   7     1.091948135609    97.50871692   284.68569777
 C     16   1   2     1.527752200286   114.05719293    47.35458413
 H     16   1   2     1.094595536307   108.55040841   286.13459305
 H     16   1   2     1.092609492451   108.52889090   171.42518318
 C     23  16   1     1.524386816897   112.85978214   193.54989873
 H     23  16   1     1.092618984700   109.47162788   313.73212395
 H     23  16   1     1.096111287972   110.16899423    69.84711356
 C     26  23  16     1.530949467148   113.92567496   170.54322561
 H     26  23  16     1.095187357748   108.45658234    49.04879098
 H     26  23  16     1.094874135111   109.97857956   293.58866087
 H     17   2   1     1.094110893791    93.58564518   298.96858035
 H     17   2   1     1.095290749861    87.15927614   193.54313289
 H     29  26  23     1.094872693905   107.87186420   182.29548401
 H     29  26  23     1.095134664272   109.32442771    67.48507798
 H      1   2   3     1.091097475703   123.78768244   307.63340442
 H      1   2   3     1.091670392935   127.60165869   114.33613372

---------------------------
INTERNAL COORDINATES (A.U.)
---------------------------
 C      0   0   0     0.000000000000     0.00000000     0.00000000
 C      1   0   0    11.921500216720     0.00000000     0.00000000
 C      2   1   0     2.891199930754    77.28183059     0.00000000
 H      3   2   1     2.060578648647   111.55882853    97.86413420
 H      3   2   1     2.066677487118   108.89708857   215.91870349
 C      3   2   1     2.883735799153   113.17289755   335.54994809
 C      1   2   3     2.832757951581    46.08102107    32.22435449
 C      7   1   2     2.479483792708   119.57550804    69.68026511
 N      7   1   2     2.478974744726   120.06979092   255.12582827
 H      9   7   1     1.912404149893   118.33807127   152.74591339
 H      9   7   1     1.921006180000   117.54905062     1.38456693
 H      8   7   1     1.921010960000   117.96452659     0.26424067
 H      8   7   1     1.912392789999   120.90292470   202.77321427
 O      6   3   2     2.375133453811   117.17953923   130.97680566
 F      6   3   2     2.372927678799   117.52128403   312.46756963
 C      1   2   3     2.913257789125    62.62949466   209.82401956
 C      2   1   7     4.863455382733    56.37183241   136.26281467
 C     17   2   1     2.885250285367    32.68646011    60.03349628
 H     18  17   2     2.071712178603   109.29355526   122.31318015
 H     18  17   2     2.069565217082   109.81281793   238.24291461
 H      2   1   7     2.070049572580   150.90514655   137.54603026
 H      2   1   7     2.063482928747    97.50871692   284.68569777
 C     16   1   2     2.887033259036   114.05719293    47.35458413
 H     16   1   2     2.068485791032   108.55040841   286.13459305
 H     16   1   2     2.064732712056   108.52889090   171.42518318
 C     23  16   1     2.880673606096   112.85978214   193.54989873
 H     23  16   1     2.064750649806   109.47162788   313.73212395
 H     23  16   1     2.071350146566   110.16899423    69.84711356
 C     26  23  16     2.893075217783   113.92567496   170.54322561
 H     26  23  16     2.069604171476   108.45658234    49.04879098
 H     26  23  16     2.069012266473   109.97857956   293.58866087
 H     17   2   1     2.067569949404    93.58564518   298.96858035
 H     17   2   1     2.069799554255    87.15927614   193.54313289
 H     29  26  23     2.069009542990   107.87186420   182.29548401
 H     29  26  23     2.069504595238   109.32442771    67.48507798
 H      1   2   3     2.061875414492   123.78768244   307.63340442
 H      1   2   3     2.062958071157   127.60165869   114.33613372

---------------------
BASIS SET INFORMATION
---------------------
There are 5 groups of distinct atoms

 Group   1 Type C   : 12s6p3d1f contracted to 6s3p3d1f pattern {621111/411/111/1}
 Group   2 Type H   : 5s2p contracted to 3s2p pattern {311/11}
 Group   3 Type N   : 12s6p3d1f contracted to 6s3p3d1f pattern {621111/411/111/1}
 Group   4 Type O   : 12s7p3d1f contracted to 6s4p3d1f pattern {621111/4111/111/1}
 Group   5 Type F   : 12s7p3d1f contracted to 6s4p3d1f pattern {621111/4111/111/1}

Atom   0C    basis set group =>   1
Atom   1C    basis set group =>   1
Atom   2C    basis set group =>   1
Atom   3H    basis set group =>   2
Atom   4H    basis set group =>   2
Atom   5C    basis set group =>   1
Atom   6C    basis set group =>   1
Atom   7C    basis set group =>   1
Atom   8N    basis set group =>   3
Atom   9H    basis set group =>   2
Atom  10H    basis set group =>   2
Atom  11H    basis set group =>   2
Atom  12H    basis set group =>   2
Atom  13O    basis set group =>   4
Atom  14F    basis set group =>   5
Atom  15C    basis set group =>   1
Atom  16C    basis set group =>   1
Atom  17C    basis set group =>   1
Atom  18H    basis set group =>   2
Atom  19H    basis set group =>   2
Atom  20H    basis set group =>   2
Atom  21H    basis set group =>   2
Atom  22C    basis set group =>   1
Atom  23H    basis set group =>   2
Atom  24H    basis set group =>   2
Atom  25C    basis set group =>   1
Atom  26H    basis set group =>   2
Atom  27H    basis set group =>   2
Atom  28C    basis set group =>   1
Atom  29H    basis set group =>   2
Atom  30H    basis set group =>   2
Atom  31H    basis set group =>   2
Atom  32H    basis set group =>   2
Atom  33H    basis set group =>   2
Atom  34H    basis set group =>   2
Atom  35H    basis set group =>   2
Atom  36H    basis set group =>   2
---------------------------------
AUXILIARY/J BASIS SET INFORMATION
---------------------------------
There are 5 groups of distinct atoms

 Group   1 Type C   : 12s5p4d2f1g contracted to 6s4p3d1f1g pattern {711111/2111/211/2/1}
 Group   2 Type H   : 5s2p1d contracted to 3s1p1d pattern {311/2/1}
 Group   3 Type N   : 12s5p4d2f1g contracted to 6s4p3d1f1g pattern {711111/2111/211/2/1}
 Group   4 Type O   : 12s5p4d2f1g contracted to 6s4p3d1f1g pattern {711111/2111/211/2/1}
 Group   5 Type F   : 12s5p4d2f1g contracted to 6s4p3d1f1g pattern {711111/2111/211/2/1}

Atom   0C    basis set group =>   1
Atom   1C    basis set group =>   1
Atom   2C    basis set group =>   1
Atom   3H    basis set group =>   2
Atom   4H    basis set group =>   2
Atom   5C    basis set group =>   1
Atom   6C    basis set group =>   1
Atom   7C    basis set group =>   1
Atom   8N    basis set group =>   3
Atom   9H    basis set group =>   2
Atom  10H    basis set group =>   2
Atom  11H    basis set group =>   2
Atom  12H    basis set group =>   2
Atom  13O    basis set group =>   4
Atom  14F    basis set group =>   5
Atom  15C    basis set group =>   1
Atom  16C    basis set group =>   1
Atom  17C    basis set group =>   1
Atom  18H    basis set group =>   2
Atom  19H    basis set group =>   2
Atom  20H    basis set group =>   2
Atom  21H    basis set group =>   2
Atom  22C    basis set group =>   1
Atom  23H    basis set group =>   2
Atom  24H    basis set group =>   2
Atom  25C    basis set group =>   1
Atom  26H    basis set group =>   2
Atom  27H    basis set group =>   2
Atom  28C    basis set group =>   1
Atom  29H    basis set group =>   2
Atom  30H    basis set group =>   2
Atom  31H    basis set group =>   2
Atom  32H    basis set group =>   2
Atom  33H    basis set group =>   2
Atom  34H    basis set group =>   2
Atom  35H    basis set group =>   2
Atom  36H    basis set group =>   2


           ************************************************************
           *        Program running with 4 parallel MPI-processes     *
           *              working on a common directory               *
           ************************************************************
------------------------------------------------------------------------------
                           ORCA GTO INTEGRAL CALCULATION
                           -- RI-GTO INTEGRALS CHOSEN --
------------------------------------------------------------------------------
------------------------------------------------------------------------------
                   ___                                                        
                  /   \      - P O W E R E D   B Y -                         
                 /     \                                                     
                 |  |  |   _    _      __       _____    __    __             
                 |  |  |  | |  | |    /  \     |  _  \  |  |  /  |          
                  \  \/   | |  | |   /    \    | | | |  |  | /  /          
                 / \  \   | |__| |  /  /\  \   | |_| |  |  |/  /          
                |  |  |   |  __  | /  /__\  \  |    /   |      \           
                |  |  |   | |  | | |   __   |  |    \   |  |\   \          
                \     /   | |  | | |  |  |  |  | |\  \  |  | \   \       
                 \___/    |_|  |_| |__|  |__|  |_| \__\ |__|  \__/        
                                                                              
                      - O R C A' S   B I G   F R I E N D -                    
                                      &                                       
                       - I N T E G R A L  F E E D E R -                       
                                                                              
 v1 FN, 2020, v2 2021                                                         
------------------------------------------------------------------------------


Reading SHARK input file 28Oct_TZVPD_PBE_D3_wb97.SHARKINP.tmp ... ok
----------------------
SHARK INTEGRAL PACKAGE
----------------------

Number of atoms                             ...     37
Number of basis functions                   ...    759
Number of shells                            ...    307
Maximum angular momentum                    ...      3
Integral batch strategy                     ... SHARK/LIBINT Hybrid
RI-J (if used) integral strategy            ... SPLIT-RIJ (Revised 2003 algorithm where possible)
Printlevel                                  ...      1
Contraction scheme used                     ... SEGMENTED contraction
Coulomb Range Separation                    ... NOT USED
Exchange Range Separation                   ... NOT USED
Finite Nucleus Model                        ... NOT USED
Auxiliary Coulomb fitting basis             ... AVAILABLE
   # of basis functions in Aux-J            ...    977
   # of shells in Aux-J                     ...    335
   Maximum angular momentum in Aux-J        ...      4
Auxiliary J/K fitting basis                 ... NOT available
Auxiliary Correlation fitting basis         ... NOT available
Auxiliary 'external' fitting basis          ... NOT available
Integral threshold                          ...     2.500000e-11
Primitive cut-off                           ...     2.500000e-12
Primitive pair pre-selection threshold      ...     2.500000e-12

Calculating pre-screening integrals         ... done (  0.3 sec) Dimension = 307
Organizing shell pair data                  ... done (  0.4 sec)
Shell pair information
Total number of shell pairs                 ...     47278
Shell pairs after pre-screening             ...     41549
Total number of primitive shell pairs       ...    118737
Primitive shell pairs kept                  ...     78468
          la=0 lb=0:  10314 shell pairs
          la=1 lb=0:  12615 shell pairs
          la=1 lb=1:   3868 shell pairs
          la=2 lb=0:   6252 shell pairs
          la=2 lb=1:   3800 shell pairs
          la=2 lb=2:    969 shell pairs
          la=3 lb=0:   1867 shell pairs
          la=3 lb=1:   1174 shell pairs
          la=3 lb=2:    592 shell pairs
          la=3 lb=3:     98 shell pairs

Calculating one electron integrals          ... done (  0.1 sec)
Calculating RI/J V-Matrix + Cholesky decomp.... done (  0.1 sec)
Calculating Nuclear repulsion               ... done (  0.0 sec) ENN=   1120.299095689832 Eh

SHARK setup successfully completed in   1.0 seconds

Maximum memory used throughout the entire GTOINT-calculation: 58.2 MB


           ************************************************************
           *        Program running with 4 parallel MPI-processes     *
           *              working on a common directory               *
           ************************************************************
-------------------------------------------------------------------------------
                                 ORCA SCF
-------------------------------------------------------------------------------

------------
SCF SETTINGS
------------
Hamiltonian:
 Density Functional     Method          .... DFT(GTOs)
 Exchange Functional    Exchange        .... PBE
   PBE kappa parameter   XKappa         ....  0.804000
   PBE mue parameter    XMuePBE         ....  0.219520
 Correlation Functional Correlation     .... PBE
   PBE beta parameter  CBetaPBE         ....  0.066725
 LDA part of GGA corr.  LDAOpt          .... PW91-LDA
 Gradients option       PostSCFGGA      .... off
   Density functional embedding theory  .... OFF
   NL short-range parameter             ....  6.400000
 RI-approximation to the Coulomb term is turned on
   Number of AuxJ basis functions       .... 977


General Settings:
 Integral files         IntName         .... 28Oct_TZVPD_PBE_D3_wb97
 Hartree-Fock type      HFTyp           .... RHF
 Total Charge           Charge          ....    0
 Multiplicity           Mult            ....    1
 Number of Electrons    NEL             ....  118
 Basis Dimension        Dim             ....  759
 Nuclear Repulsion      ENuc            ....   1120.2990956898 Eh

Convergence Acceleration:
 DIIS                   CNVDIIS         .... on
   Start iteration      DIISMaxIt       ....    12
   Startup error        DIISStart       ....  0.200000
   # of expansion vecs  DIISMaxEq       ....     5
   Bias factor          DIISBfac        ....   1.050
   Max. coefficient     DIISMaxC        ....  10.000
 Trust-Rad. Augm. Hess. CNVTRAH         .... auto
   Auto Start mean grad. ratio tolernc. ....  1.125000
   Auto Start start iteration           ....    20
   Auto Start num. interpolation iter.  ....    10
   Max. Number of Micro iterations      ....    16
   Max. Number of Macro iterations      .... Maxiter - #DIIS iter
   Number of Davidson start vectors     ....     2
   Converg. threshold I  (grad. norm)   ....   1.000e-05
   Converg. threshold II (energy diff.) ....   1.000e-08
   Grad. Scal. Fac. for Micro threshold ....   0.100
   Minimum threshold for Micro iter.    ....   0.010
   NR start threshold (gradient norm)   ....   0.001
   Initial trust radius                 ....   0.400
   Minimum AH scaling param. (alpha)    ....   1.000
   Maximum AH scaling param. (alpha)    .... 1000.000
   Orbital update algorithm             .... Taylor
   White noise on init. David. guess    .... on
   Maximum white noise                  ....   0.010
   Quad. conv. algorithm                .... NR
 SOSCF                  CNVSOSCF        .... on
   Start iteration      SOSCFMaxIt      ....   150
   Startup grad/error   SOSCFStart      ....  0.003300
 Level Shifting         CNVShift        .... on
   Level shift para.    LevelShift      ....    0.2500
   Turn off err/grad.   ShiftErr        ....    0.0010
 Zerner damping         CNVZerner       .... off
 Static damping         CNVDamp         .... on
   Fraction old density DampFac         ....    0.7000
   Max. Damping (<1)    DampMax         ....    0.9800
   Min. Damping (>=0)   DampMin         ....    0.0000
   Turn off err/grad.   DampErr         ....    0.1000
 Fernandez-Rico         CNVRico         .... off

SCF Procedure:
 Maximum # iterations   MaxIter         ....   150
 SCF integral mode      SCFMode         .... Direct
   Integral package                     .... SHARK and LIBINT hybrid scheme
 Reset frequency        DirectResetFreq ....    20
 Integral Threshold     Thresh          ....  2.500e-11 Eh
 Primitive CutOff       TCut            ....  2.500e-12 Eh

Convergence Tolerance:
 Convergence Check Mode ConvCheckMode   .... Total+1el-Energy
 Convergence forced     ConvForced      .... 0
 Energy Change          TolE            ....  1.000e-08 Eh
 1-El. energy change                    ....  1.000e-05 Eh
 Orbital Gradient       TolG            ....  1.000e-05
 Orbital Rotation angle TolX            ....  1.000e-05
 DIIS Error             TolErr          ....  5.000e-07


Diagonalization of the overlap matrix:
Smallest eigenvalue                        ... 9.641e-07
Time for diagonalization                   ...    0.145 sec
Threshold for overlap eigenvalues          ... 1.000e-08
Number of eigenvalues below threshold      ... 0
Time for construction of square roots      ...    0.164 sec
Total time needed                          ...    0.315 sec

Time for model grid setup =    0.519 sec

------------------------------
INITIAL GUESS: MODEL POTENTIAL
------------------------------
Loading Hartree-Fock densities                     ... done
Calculating cut-offs                               ... done
Initializing the effective Hamiltonian             ... done
Setting up the integral package (SHARK)            ... done
Starting the Coulomb interaction                   ... done (   1.2 sec)
Reading the grid                                   ... done
Mapping shells                                     ... done
Starting the XC term evaluation                    ... done (   1.3 sec)
  promolecular density results
     # of electrons  =    117.985580829
     EX              =    -92.695237100
     EC              =     -3.944983496
     EX+EC           =    -96.640220596
Transforming the Hamiltonian                       ... done (   0.1 sec)
Diagonalizing the Hamiltonian                      ... done (   0.1 sec)
Back transforming the eigenvectors                 ... done (   0.0 sec)
Now organizing SCF variables                       ... done
                      ------------------
                      INITIAL GUESS DONE (   3.3 sec)
                      ------------------
-------------------
DFT GRID GENERATION
-------------------

General Integration Accuracy     IntAcc      ... 4.388
Radial Grid Type                 RadialGrid  ... OptM3 with GC (2021)
Angular Grid (max. ang.)         AngularGrid ... 4 (Lebedev-302)
Angular grid pruning method      GridPruning ... 4 (adaptive)
Weight generation scheme         WeightScheme... Becke
Basis function cutoff            BFCut       ... 1.0000e-11
Integration weight cutoff        WCut        ... 1.0000e-14
Angular grids for H and He will be reduced by one unit
Partially contracted basis set               ... off
Rotationally invariant grid construction     ... off

Total number of grid points                  ...   165604
Total number of batches                      ...     2608
Average number of points per batch           ...       63
Average number of grid points per atom       ...     4476
Time for grid setup =    1.937 sec

--------------
SCF ITERATIONS
--------------
ITER       Energy         Delta-E        Max-DP      RMS-DP      [F,P]     Damp
               ***  Starting incremental Fock matrix formation  ***
  0   -699.1007437809   0.000000000000 2.18849396  0.00532021  0.2654719 0.7000
  1   -699.3880407582  -0.287296977316 1.94315097  0.00450974  0.1048402 0.7000
                               ***Turning on DIIS***
  2   -699.4759628727  -0.087922114530 2.11987916  0.00639254  0.0329945 0.0000
  3   -699.6213464618  -0.145383589068 1.84754334  0.00406191  0.0752528 0.0000
  4   -699.6616835468  -0.040337084946 0.45075610  0.00123311  0.0392548 0.0000
  5   -699.6667043566  -0.005020809798 0.30553525  0.00074091  0.0142270 0.0000
                      *** Initiating the SOSCF procedure ***
                           *** Shutting down DIIS ***
                      *** Re-Reading the Fockian *** 
                      *** Removing any level shift *** 
ITER      Energy       Delta-E        Grad      Rot      Max-DP    RMS-DP
  6   -699.66713036  -0.0004260028  0.000416  0.000416  0.178171  0.000432
               *** Restarting incremental Fock matrix formation ***
  7   -699.66716498  -0.0000346224  0.000318  0.005444  0.121150  0.000414
  8   -699.66715690   0.0000080793  0.000707  0.001476  0.047013  0.000131
  9   -699.66717319  -0.0000162873  0.000196  0.002406  0.062874  0.000175
 10   -699.66717090   0.0000022936  0.000325  0.000383  0.004839  0.000021
 11   -699.66717473  -0.0000038347  0.000087  0.000981  0.022606  0.000083
 12   -699.66717396   0.0000007686  0.000116  0.000364  0.013234  0.000041
 13   -699.66717512  -0.0000011526  0.000025  0.000250  0.014272  0.000049
 14   -699.66717510   0.0000000159  0.000040  0.000090  0.004412  0.000027
 15   -699.66717513  -0.0000000259  0.000008  0.000052  0.008538  0.000042
 16   -699.66717513  -0.0000000078  0.000008  0.000015  0.006850  0.000024
                  ***Gradient check signals convergence***
              ***Rediagonalizing the Fockian in SOSCF/NRSCF***

               *****************************************************
               *                     SUCCESS                       *
               *           SCF CONVERGED AFTER  17 CYCLES          *
               *****************************************************


----------------
TOTAL SCF ENERGY
----------------

Total Energy       :         -699.66717513 Eh          -19038.91175 eV

Components:
Nuclear Repulsion  :         1120.29909569 Eh           30484.88822 eV
Electronic Energy  :        -1819.96627082 Eh          -49523.79997 eV
One Electron Energy:        -3176.75758063 Eh          -86443.96850 eV
Two Electron Energy:         1356.79130981 Eh           36920.16852 eV

Virial components:
Potential Energy   :        -1397.13209430 Eh          -38017.89708 eV
Kinetic Energy     :          697.46491917 Eh           18978.98532 eV
Virial Ratio       :            2.00315752


DFT components:
N(Alpha)           :       59.000213426148 electrons
N(Beta)            :       59.000213426148 electrons
N(Total)           :      118.000426852296 electrons
E(X)               :      -94.791261867583 Eh       
E(C)               :       -3.923872066914 Eh       
E(XC)              :      -98.715133934497 Eh       
DFET-embed. en.    :        0.000000000000 Eh       

---------------
SCF CONVERGENCE
---------------

  Last Energy change         ...    3.4620e-09  Tolerance :   1.0000e-08
  Last MAX-Density change    ...    1.0434e-02  Tolerance :   1.0000e-07
  Last RMS-Density change    ...    4.2029e-05  Tolerance :   5.0000e-09
  Last Orbital Gradient      ...    9.8342e-07  Tolerance :   1.0000e-05
  Last Orbital Rotation      ...    1.9156e-05  Tolerance :   1.0000e-05

             **** THE GBW FILE WAS UPDATED (28Oct_TZVPD_PBE_D3_wb97.gbw) ****
             **** DENSITY 28Oct_TZVPD_PBE_D3_wb97.scfp WAS UPDATED ****
             **** ENERGY FILE WAS UPDATED (28Oct_TZVPD_PBE_D3_wb97.en.tmp) ****
             **** THE GBW FILE WAS UPDATED (28Oct_TZVPD_PBE_D3_wb97.gbw) ****
             **** DENSITY 28Oct_TZVPD_PBE_D3_wb97.scfp WAS UPDATED ****
----------------
ORBITAL ENERGIES
----------------

  NO   OCC          E(Eh)            E(eV) 
   0   2.0000     -24.340711      -662.3444 
   1   2.0000     -18.776398      -510.9318 
   2   2.0000     -13.952886      -379.6773 
   3   2.0000     -10.067449      -273.9492 
   4   2.0000      -9.918576      -269.8982 
   5   2.0000      -9.902134      -269.4508 
   6   2.0000      -9.886596      -269.0280 
   7   2.0000      -9.880773      -268.8695 
   8   2.0000      -9.878780      -268.8153 
   9   2.0000      -9.876789      -268.7611 
  10   2.0000      -9.870930      -268.6017 
  11   2.0000      -9.869832      -268.5718 
  12   2.0000      -9.869303      -268.5574 
  13   2.0000      -9.865568      -268.4557 
  14   2.0000      -9.788919      -266.3700 
  15   2.0000      -1.234642       -33.5963 
  16   2.0000      -0.971950       -26.4481 
  17   2.0000      -0.830228       -22.5917 
  18   2.0000      -0.760133       -20.6843 
  19   2.0000      -0.732993       -19.9458 
  20   2.0000      -0.708419       -19.2770 
  21   2.0000      -0.675694       -18.3866 
  22   2.0000      -0.645339       -17.5606 
  23   2.0000      -0.629135       -17.1196 
  24   2.0000      -0.606123       -16.4935 
  25   2.0000      -0.585863       -15.9421 
  26   2.0000      -0.553785       -15.0693 
  27   2.0000      -0.530735       -14.4420 
  28   2.0000      -0.509014       -13.8510 
  29   2.0000      -0.505936       -13.7672 
  30   2.0000      -0.495925       -13.4948 
  31   2.0000      -0.487112       -13.2550 
  32   2.0000      -0.468840       -12.7578 
  33   2.0000      -0.442890       -12.0516 
  34   2.0000      -0.433983       -11.8093 
  35   2.0000      -0.429409       -11.6848 
  36   2.0000      -0.418534       -11.3889 
  37   2.0000      -0.400668       -10.9027 
  38   2.0000      -0.396199       -10.7811 
  39   2.0000      -0.382985       -10.4215 
  40   2.0000      -0.378269       -10.2932 
  41   2.0000      -0.364164        -9.9094 
  42   2.0000      -0.360801        -9.8179 
  43   2.0000      -0.347482        -9.4555 
  44   2.0000      -0.342367        -9.3163 
  45   2.0000      -0.333562        -9.0767 
  46   2.0000      -0.328871        -8.9490 
  47   2.0000      -0.323172        -8.7940 
  48   2.0000      -0.310933        -8.4609 
  49   2.0000      -0.302017        -8.2183 
  50   2.0000      -0.298015        -8.1094 
  51   2.0000      -0.292363        -7.9556 
  52   2.0000      -0.282748        -7.6940 
  53   2.0000      -0.278894        -7.5891 
  54   2.0000      -0.272617        -7.4183 
  55   2.0000      -0.268843        -7.3156 
  56   2.0000      -0.260955        -7.1009 
  57   2.0000      -0.251552        -6.8451 
  58   2.0000      -0.142632        -3.8812 
  59   0.0000      -0.085056        -2.3145 
  60   0.0000      -0.019721        -0.5366 
  61   0.0000      -0.003149        -0.0857 
  62   0.0000      -0.002085        -0.0567 
  63   0.0000       0.001144         0.0311 
  64   0.0000       0.012558         0.3417 
  65   0.0000       0.016589         0.4514 
  66   0.0000       0.022968         0.6250 
  67   0.0000       0.025717         0.6998 
  68   0.0000       0.031613         0.8602 
  69   0.0000       0.038994         1.0611 
  70   0.0000       0.047667         1.2971 
  71   0.0000       0.050813         1.3827 
  72   0.0000       0.054136         1.4731 
  73   0.0000       0.056075         1.5259 
  74   0.0000       0.060857         1.6560 
  75   0.0000       0.064860         1.7649 
  76   0.0000       0.073082         1.9887 
  77   0.0000       0.080074         2.1789 
  78   0.0000       0.082982         2.2581 
  79   0.0000       0.087210         2.3731 
  80   0.0000       0.091686         2.4949 
  81   0.0000       0.092825         2.5259 
  82   0.0000       0.095058         2.5867 
  83   0.0000       0.098476         2.6797 
  84   0.0000       0.103835         2.8255 
  85   0.0000       0.111489         3.0338 
  86   0.0000       0.116960         3.1826 
  87   0.0000       0.124866         3.3978 
  88   0.0000       0.127438         3.4678 
  89   0.0000       0.128487         3.4963 
  90   0.0000       0.131791         3.5862 
  91   0.0000       0.135287         3.6813 
  92   0.0000       0.139042         3.7835 
  93   0.0000       0.141364         3.8467 
  94   0.0000       0.148826         4.0498 
  95   0.0000       0.150539         4.0964 
  96   0.0000       0.156359         4.2547 
  97   0.0000       0.158583         4.3153 
  98   0.0000       0.166722         4.5367 
  99   0.0000       0.169274         4.6062 
 100   0.0000       0.170389         4.6365 
 101   0.0000       0.171135         4.6568 
 102   0.0000       0.176681         4.8077 
 103   0.0000       0.178760         4.8643 
 104   0.0000       0.182865         4.9760 
 105   0.0000       0.185793         5.0557 
 106   0.0000       0.187392         5.0992 
 107   0.0000       0.189585         5.1589 
 108   0.0000       0.191764         5.2182 
 109   0.0000       0.198625         5.4049 
 110   0.0000       0.203706         5.5431 
 111   0.0000       0.206460         5.6181 
 112   0.0000       0.207183         5.6377 
 113   0.0000       0.210699         5.7334 
 114   0.0000       0.215217         5.8563 
 115   0.0000       0.216529         5.8921 
 116   0.0000       0.222132         6.0445 
 117   0.0000       0.225559         6.1378 
 118   0.0000       0.226866         6.1733 
 119   0.0000       0.231382         6.2962 
 120   0.0000       0.233983         6.3670 
 121   0.0000       0.235417         6.4060 
 122   0.0000       0.241318         6.5666 
 123   0.0000       0.243063         6.6141 
 124   0.0000       0.248599         6.7647 
 125   0.0000       0.249890         6.7999 
 126   0.0000       0.251646         6.8476 
 127   0.0000       0.253059         6.8861 
 128   0.0000       0.257299         7.0015 
 129   0.0000       0.259408         7.0588 
 130   0.0000       0.261780         7.1234 
 131   0.0000       0.263674         7.1749 
 132   0.0000       0.264102         7.1866 
 133   0.0000       0.273334         7.4378 
 134   0.0000       0.274744         7.4762 
 135   0.0000       0.277887         7.5617 
 136   0.0000       0.280744         7.6394 
 137   0.0000       0.282939         7.6992 
 138   0.0000       0.288955         7.8629 
 139   0.0000       0.289849         7.8872 
 140   0.0000       0.293672         7.9912 
 141   0.0000       0.295150         8.0314 
 142   0.0000       0.300376         8.1737 
 143   0.0000       0.302153         8.2220 
 144   0.0000       0.305158         8.3038 
 145   0.0000       0.306072         8.3286 
 146   0.0000       0.310835         8.4583 
 147   0.0000       0.313917         8.5421 
 148   0.0000       0.314512         8.5583 
 149   0.0000       0.320409         8.7188 
 150   0.0000       0.322784         8.7834 
 151   0.0000       0.323947         8.8150 
 152   0.0000       0.326664         8.8890 
 153   0.0000       0.330551         8.9948 
 154   0.0000       0.334165         9.0931 
 155   0.0000       0.339680         9.2432 
 156   0.0000       0.342863         9.3298 
 157   0.0000       0.345072         9.3899 
 158   0.0000       0.351140         9.5550 
 159   0.0000       0.353256         9.6126 
 160   0.0000       0.354250         9.6396 
 161   0.0000       0.355714         9.6795 
 162   0.0000       0.359470         9.7817 
 163   0.0000       0.362350         9.8600 
 164   0.0000       0.362522         9.8647 
 165   0.0000       0.366716         9.9788 
 166   0.0000       0.372988        10.1495 
 167   0.0000       0.376617        10.2483 
 168   0.0000       0.376942        10.2571 
 169   0.0000       0.378606        10.3024 
 170   0.0000       0.386348        10.5131 
 171   0.0000       0.387558        10.5460 
 172   0.0000       0.391016        10.6401 
 173   0.0000       0.394577        10.7370 
 174   0.0000       0.396705        10.7949 
 175   0.0000       0.399244        10.8640 
 176   0.0000       0.403048        10.9675 
 177   0.0000       0.407939        11.1006 
 178   0.0000       0.408725        11.1220 
 179   0.0000       0.413909        11.2630 
 180   0.0000       0.416865        11.3435 
 181   0.0000       0.420156        11.4330 
 182   0.0000       0.426281        11.5997 
 183   0.0000       0.428356        11.6562 
 184   0.0000       0.430641        11.7183 
 185   0.0000       0.433632        11.7997 
 186   0.0000       0.435152        11.8411 
 187   0.0000       0.439539        11.9605 
 188   0.0000       0.444001        12.0819 
 189   0.0000       0.450402        12.2560 
 190   0.0000       0.453585        12.3427 
 191   0.0000       0.454812        12.3761 
 192   0.0000       0.457919        12.4606 
 193   0.0000       0.463458        12.6113 
 194   0.0000       0.464258        12.6331 
 195   0.0000       0.466477        12.6935 
 196   0.0000       0.472286        12.8516 
 197   0.0000       0.473302        12.8792 
 198   0.0000       0.479175        13.0390 
 199   0.0000       0.482841        13.1388 
 200   0.0000       0.485180        13.2024 
 201   0.0000       0.488710        13.2985 
 202   0.0000       0.490183        13.3386 
 203   0.0000       0.495811        13.4917 
 204   0.0000       0.499880        13.6024 
 205   0.0000       0.501052        13.6343 
 206   0.0000       0.503576        13.7030 
 207   0.0000       0.509261        13.8577 
 208   0.0000       0.517978        14.0949 
 209   0.0000       0.520160        14.1543 
 210   0.0000       0.523092        14.2340 
 211   0.0000       0.524493        14.2722 
 212   0.0000       0.528047        14.3689 
 213   0.0000       0.531818        14.4715 
 214   0.0000       0.534026        14.5316 
 215   0.0000       0.543489        14.7891 
 216   0.0000       0.546778        14.8786 
 217   0.0000       0.548798        14.9336 
 218   0.0000       0.551351        15.0030 
 219   0.0000       0.554139        15.0789 
 220   0.0000       0.556632        15.1467 
 221   0.0000       0.560843        15.2613 
 222   0.0000       0.563593        15.3361 
 223   0.0000       0.566145        15.4056 
 224   0.0000       0.570339        15.5197 
 225   0.0000       0.578722        15.7478 
 226   0.0000       0.579999        15.7826 
 227   0.0000       0.585644        15.9362 
 228   0.0000       0.590125        16.0581 
 229   0.0000       0.593307        16.1447 
 230   0.0000       0.598820        16.2947 
 231   0.0000       0.601324        16.3629 
 232   0.0000       0.602749        16.4016 
 233   0.0000       0.608005        16.5446 
 234   0.0000       0.609358        16.5815 
 235   0.0000       0.615456        16.7474 
 236   0.0000       0.617642        16.8069 
 237   0.0000       0.617921        16.8145 
 238   0.0000       0.624871        17.0036 
 239   0.0000       0.627657        17.0794 
 240   0.0000       0.630704        17.1623 
 241   0.0000       0.633920        17.2498 
 242   0.0000       0.638413        17.3721 
 243   0.0000       0.641236        17.4489 
 244   0.0000       0.645360        17.5612 
 245   0.0000       0.649679        17.6787 
 246   0.0000       0.651874        17.7384 
 247   0.0000       0.656832        17.8733 
 248   0.0000       0.660210        17.9652 
 249   0.0000       0.661360        17.9965 
 250   0.0000       0.663990        18.0681 
 251   0.0000       0.664464        18.0810 
 252   0.0000       0.667728        18.1698 
 253   0.0000       0.669599        18.2207 
 254   0.0000       0.671590        18.2749 
 255   0.0000       0.677631        18.4393 
 256   0.0000       0.682172        18.5628 
 257   0.0000       0.684952        18.6385 
 258   0.0000       0.686294        18.6750 
 259   0.0000       0.690124        18.7792 
 260   0.0000       0.691720        18.8227 
 261   0.0000       0.697615        18.9831 
 262   0.0000       0.701052        19.0766 
 263   0.0000       0.702501        19.1160 
 264   0.0000       0.705078        19.1861 
 265   0.0000       0.710981        19.3468 
 266   0.0000       0.718250        19.5446 
 267   0.0000       0.719583        19.5809 
 268   0.0000       0.721738        19.6395 
 269   0.0000       0.725107        19.7312 
 270   0.0000       0.731559        19.9067 
 271   0.0000       0.738915        20.1069 
 272   0.0000       0.740295        20.1444 
 273   0.0000       0.741674        20.1820 
 274   0.0000       0.746713        20.3191 
 275   0.0000       0.751506        20.4495 
 276   0.0000       0.752128        20.4664 
 277   0.0000       0.756043        20.5730 
 278   0.0000       0.760395        20.6914 
 279   0.0000       0.765094        20.8193 
 280   0.0000       0.771967        21.0063 
 281   0.0000       0.774158        21.0659 
 282   0.0000       0.779680        21.2162 
 283   0.0000       0.780258        21.2319 
 284   0.0000       0.786262        21.3953 
 285   0.0000       0.791008        21.5244 
 286   0.0000       0.797584        21.7034 
 287   0.0000       0.801830        21.8189 
 288   0.0000       0.802947        21.8493 
 289   0.0000       0.806162        21.9368 
 290   0.0000       0.811374        22.0786 
 291   0.0000       0.818406        22.2700 
 292   0.0000       0.823135        22.3987 
 293   0.0000       0.824634        22.4394 
 294   0.0000       0.830787        22.6069 
 295   0.0000       0.834314        22.7028 
 296   0.0000       0.836269        22.7560 
 297   0.0000       0.841979        22.9114 
 298   0.0000       0.844756        22.9870 
 299   0.0000       0.853215        23.2172 
 300   0.0000       0.861720        23.4486 
 301   0.0000       0.869912        23.6715 
 302   0.0000       0.873224        23.7616 
 303   0.0000       0.878490        23.9049 
 304   0.0000       0.879015        23.9192 
 305   0.0000       0.889084        24.1932 
 306   0.0000       0.891543        24.2601 
 307   0.0000       0.893376        24.3100 
 308   0.0000       0.897205        24.4142 
 309   0.0000       0.901676        24.5358 
 310   0.0000       0.910900        24.7868 
 311   0.0000       0.914915        24.8961 
 312   0.0000       0.922271        25.0963 
 313   0.0000       0.933866        25.4118 
 314   0.0000       0.941785        25.6273 
 315   0.0000       0.951891        25.9023 
 316   0.0000       0.954178        25.9645 
 317   0.0000       0.958220        26.0745 
 318   0.0000       0.959398        26.1065 
 319   0.0000       0.968356        26.3503 
 320   0.0000       0.972333        26.4585 
 321   0.0000       0.980457        26.6796 
 322   0.0000       0.989510        26.9259 
 323   0.0000       0.993050        27.0223 
 324   0.0000       0.999626        27.2012 
 325   0.0000       1.003646        27.3106 
 326   0.0000       1.009593        27.4724 
 327   0.0000       1.015742        27.6398 
 328   0.0000       1.019393        27.7391 
 329   0.0000       1.031670        28.0732 
 330   0.0000       1.036995        28.2181 
 331   0.0000       1.049723        28.5644 
 332   0.0000       1.053875        28.6774 
 333   0.0000       1.057853        28.7857 
 334   0.0000       1.058874        28.8134 
 335   0.0000       1.071654        29.1612 
 336   0.0000       1.081317        29.4241 
 337   0.0000       1.089924        29.6583 
 338   0.0000       1.094182        29.7742 
 339   0.0000       1.100676        29.9509 
 340   0.0000       1.105094        30.0711 
 341   0.0000       1.118273        30.4298 
 342   0.0000       1.132046        30.8045 
 343   0.0000       1.135143        30.8888 
 344   0.0000       1.148365        31.2486 
 345   0.0000       1.157210        31.4893 
 346   0.0000       1.163054        31.6483 
 347   0.0000       1.165739        31.7214 
 348   0.0000       1.173283        31.9267 
 349   0.0000       1.177148        32.0318 
 350   0.0000       1.184288        32.2261 
 351   0.0000       1.192071        32.4379 
 352   0.0000       1.202848        32.7312 
 353   0.0000       1.206274        32.8244 
 354   0.0000       1.214132        33.0382 
 355   0.0000       1.225856        33.3572 
 356   0.0000       1.229420        33.4542 
 357   0.0000       1.236597        33.6495 
 358   0.0000       1.251213        34.0472 
 359   0.0000       1.259026        34.2598 
 360   0.0000       1.269477        34.5442 
 361   0.0000       1.274345        34.6767 
 362   0.0000       1.284859        34.9628 
 363   0.0000       1.290017        35.1032 
 364   0.0000       1.305741        35.5310 
 365   0.0000       1.309289        35.6276 
 366   0.0000       1.317334        35.8465 
 367   0.0000       1.334031        36.3008 
 368   0.0000       1.338248        36.4156 
 369   0.0000       1.343709        36.5642 
 370   0.0000       1.350366        36.7453 
 371   0.0000       1.363219        37.0951 
 372   0.0000       1.363858        37.1125 
 373   0.0000       1.366713        37.1901 
 374   0.0000       1.376645        37.4604 
 375   0.0000       1.385925        37.7129 
 376   0.0000       1.394644        37.9502 
 377   0.0000       1.398613        38.0582 
 378   0.0000       1.403353        38.1872 
 379   0.0000       1.409218        38.3468 
 380   0.0000       1.417062        38.5602 
 381   0.0000       1.428703        38.8770 
 382   0.0000       1.440640        39.2018 
 383   0.0000       1.453379        39.5484 
 384   0.0000       1.460386        39.7391 
 385   0.0000       1.466637        39.9092 
 386   0.0000       1.472948        40.0809 
 387   0.0000       1.485352        40.4185 
 388   0.0000       1.491081        40.5744 
 389   0.0000       1.503812        40.9208 
 390   0.0000       1.507613        41.0242 
 391   0.0000       1.517437        41.2915 
 392   0.0000       1.526197        41.5299 
 393   0.0000       1.548918        42.1482 
 394   0.0000       1.560118        42.4530 
 395   0.0000       1.571878        42.7730 
 396   0.0000       1.580662        43.0120 
 397   0.0000       1.585488        43.1433 
 398   0.0000       1.595340        43.4114 
 399   0.0000       1.596319        43.4380 
 400   0.0000       1.619242        44.0618 
 401   0.0000       1.659201        45.1492 
 402   0.0000       1.688143        45.9367 
 403   0.0000       1.713496        46.6266 
 404   0.0000       1.730563        47.0910 
 405   0.0000       1.742155        47.4064 
 406   0.0000       1.761561        47.9345 
 407   0.0000       1.771568        48.2068 
 408   0.0000       1.776448        48.3396 
 409   0.0000       1.780356        48.4460 
 410   0.0000       1.791585        48.7515 
 411   0.0000       1.798513        48.9400 
 412   0.0000       1.806180        49.1487 
 413   0.0000       1.808625        49.2152 
 414   0.0000       1.818206        49.4759 
 415   0.0000       1.824973        49.6600 
 416   0.0000       1.830671        49.8151 
 417   0.0000       1.833029        49.8793 
 418   0.0000       1.834498        49.9192 
 419   0.0000       1.849619        50.3307 
 420   0.0000       1.856105        50.5072 
 421   0.0000       1.858195        50.5640 
 422   0.0000       1.864441        50.7340 
 423   0.0000       1.866465        50.7891 
 424   0.0000       1.876383        51.0590 
 425   0.0000       1.883828        51.2616 
 426   0.0000       1.888999        51.4023 
 427   0.0000       1.894997        51.5655 
 428   0.0000       1.900810        51.7237 
 429   0.0000       1.910666        51.9919 
 430   0.0000       1.912948        52.0540 
 431   0.0000       1.917918        52.1892 
 432   0.0000       1.931016        52.5456 
 433   0.0000       1.939174        52.7676 
 434   0.0000       1.949417        53.0463 
 435   0.0000       1.962005        53.3889 
 436   0.0000       1.969679        53.5977 
 437   0.0000       1.972093        53.6634 
 438   0.0000       1.988718        54.1158 
 439   0.0000       2.000054        54.4242 
 440   0.0000       2.007764        54.6340 
 441   0.0000       2.016494        54.8716 
 442   0.0000       2.022232        55.0277 
 443   0.0000       2.036966        55.4287 
 444   0.0000       2.047330        55.7107 
 445   0.0000       2.058833        56.0237 
 446   0.0000       2.076352        56.5004 
 447   0.0000       2.084635        56.7258 
 448   0.0000       2.095111        57.0109 
 449   0.0000       2.096329        57.0440 
 450   0.0000       2.106152        57.3113 
 451   0.0000       2.110533        57.4305 
 452   0.0000       2.125903        57.8488 
 453   0.0000       2.132614        58.0314 
 454   0.0000       2.151195        58.5370 
 455   0.0000       2.155680        58.6590 
 456   0.0000       2.158077        58.7243 
 457   0.0000       2.171045        59.0771 
 458   0.0000       2.173101        59.1331 
 459   0.0000       2.180894        59.3451 
 460   0.0000       2.183198        59.4078 
 461   0.0000       2.201419        59.9037 
 462   0.0000       2.208922        60.1078 
 463   0.0000       2.216156        60.3047 
 464   0.0000       2.232546        60.7507 
 465   0.0000       2.233281        60.7707 
 466   0.0000       2.238717        60.9186 
 467   0.0000       2.258222        61.4494 
 468   0.0000       2.261482        61.5380 
 469   0.0000       2.280645        62.0595 
 470   0.0000       2.282555        62.1115 
 471   0.0000       2.300455        62.5986 
 472   0.0000       2.305985        62.7490 
 473   0.0000       2.312818        62.9350 
 474   0.0000       2.326790        63.3152 
 475   0.0000       2.328937        63.3736 
 476   0.0000       2.337124        63.5964 
 477   0.0000       2.345950        63.8365 
 478   0.0000       2.357931        64.1626 
 479   0.0000       2.383557        64.8599 
 480   0.0000       2.387865        64.9771 
 481   0.0000       2.403973        65.4154 
 482   0.0000       2.407949        65.5236 
 483   0.0000       2.414907        65.7130 
 484   0.0000       2.428615        66.0860 
 485   0.0000       2.442190        66.4554 
 486   0.0000       2.447990        66.6132 
 487   0.0000       2.457273        66.8658 
 488   0.0000       2.471738        67.2594 
 489   0.0000       2.485351        67.6298 
 490   0.0000       2.505298        68.1726 
 491   0.0000       2.515232        68.4429 
 492   0.0000       2.522234        68.6335 
 493   0.0000       2.529327        68.8265 
 494   0.0000       2.533063        68.9282 
 495   0.0000       2.542327        69.1802 
 496   0.0000       2.557699        69.5985 
 497   0.0000       2.567385        69.8621 
 498   0.0000       2.575031        70.0702 
 499   0.0000       2.578935        70.1764 
 500   0.0000       2.585251        70.3483 
 501   0.0000       2.603841        70.8541 
 502   0.0000       2.610759        71.0424 
 503   0.0000       2.611727        71.0687 
 504   0.0000       2.617777        71.2333 
 505   0.0000       2.632470        71.6331 
 506   0.0000       2.634595        71.6910 
 507   0.0000       2.647225        72.0346 
 508   0.0000       2.657519        72.3148 
 509   0.0000       2.665914        72.5432 
 510   0.0000       2.673415        72.7473 
 511   0.0000       2.687577        73.1327 
 512   0.0000       2.691515        73.2398 
 513   0.0000       2.694421        73.3189 
 514   0.0000       2.700634        73.4880 
 515   0.0000       2.707009        73.6615 
 516   0.0000       2.717633        73.9506 
 517   0.0000       2.721611        74.0588 
 518   0.0000       2.733124        74.3721 
 519   0.0000       2.738073        74.5068 
 520   0.0000       2.748678        74.7953 
 521   0.0000       2.752480        74.8988 
 522   0.0000       2.755401        74.9783 
 523   0.0000       2.765845        75.2625 
 524   0.0000       2.777122        75.5693 
 525   0.0000       2.780414        75.6589 
 526   0.0000       2.793216        76.0073 
 527   0.0000       2.804880        76.3247 
 528   0.0000       2.817270        76.6618 
 529   0.0000       2.820076        76.7382 
 530   0.0000       2.826426        76.9110 
 531   0.0000       2.839942        77.2788 
 532   0.0000       2.842063        77.3365 
 533   0.0000       2.858872        77.7939 
 534   0.0000       2.865756        77.9812 
 535   0.0000       2.873341        78.1876 
 536   0.0000       2.881951        78.4219 
 537   0.0000       2.890051        78.6423 
 538   0.0000       2.904768        79.0428 
 539   0.0000       2.912905        79.2642 
 540   0.0000       2.921884        79.5085 
 541   0.0000       2.926139        79.6243 
 542   0.0000       2.938225        79.9532 
 543   0.0000       2.954859        80.4058 
 544   0.0000       2.955754        80.4302 
 545   0.0000       2.965113        80.6848 
 546   0.0000       2.982562        81.1596 
 547   0.0000       2.984915        81.2237 
 548   0.0000       3.002340        81.6978 
 549   0.0000       3.009278        81.8866 
 550   0.0000       3.021768        82.2265 
 551   0.0000       3.039890        82.7196 
 552   0.0000       3.044833        82.8541 
 553   0.0000       3.060869        83.2905 
 554   0.0000       3.069755        83.5323 
 555   0.0000       3.080311        83.8195 
 556   0.0000       3.086918        83.9993 
 557   0.0000       3.110090        84.6298 
 558   0.0000       3.115458        84.7759 
 559   0.0000       3.116702        84.8098 
 560   0.0000       3.138349        85.3988 
 561   0.0000       3.154333        85.8338 
 562   0.0000       3.161376        86.0254 
 563   0.0000       3.174159        86.3733 
 564   0.0000       3.179310        86.5134 
 565   0.0000       3.189061        86.7788 
 566   0.0000       3.201589        87.1197 
 567   0.0000       3.205557        87.2276 
 568   0.0000       3.213490        87.4435 
 569   0.0000       3.226677        87.8024 
 570   0.0000       3.229025        87.8662 
 571   0.0000       3.237824        88.1057 
 572   0.0000       3.257570        88.6430 
 573   0.0000       3.264567        88.8334 
 574   0.0000       3.272186        89.0407 
 575   0.0000       3.283746        89.3553 
 576   0.0000       3.292079        89.5820 
 577   0.0000       3.295421        89.6730 
 578   0.0000       3.301612        89.8414 
 579   0.0000       3.316834        90.2557 
 580   0.0000       3.322723        90.4159 
 581   0.0000       3.330413        90.6252 
 582   0.0000       3.333075        90.6976 
 583   0.0000       3.341147        90.9172 
 584   0.0000       3.343450        90.9799 
 585   0.0000       3.346804        91.0712 
 586   0.0000       3.359515        91.4171 
 587   0.0000       3.361261        91.4646 
 588   0.0000       3.373651        91.8017 
 589   0.0000       3.377091        91.8953 
 590   0.0000       3.388321        92.2009 
 591   0.0000       3.397451        92.4493 
 592   0.0000       3.401913        92.5708 
 593   0.0000       3.408443        92.7485 
 594   0.0000       3.417307        92.9897 
 595   0.0000       3.424277        93.1793 
 596   0.0000       3.433039        93.4177 
 597   0.0000       3.443033        93.6897 
 598   0.0000       3.444888        93.7402 
 599   0.0000       3.449849        93.8752 
 600   0.0000       3.456110        94.0455 
 601   0.0000       3.462119        94.2090 
 602   0.0000       3.475253        94.5665 
 603   0.0000       3.490077        94.9698 
 604   0.0000       3.492889        95.0463 
 605   0.0000       3.504942        95.3743 
 606   0.0000       3.508886        95.4817 
 607   0.0000       3.524477        95.9059 
 608   0.0000       3.537424        96.2582 
 609   0.0000       3.540488        96.3416 
 610   0.0000       3.543385        96.4204 
 611   0.0000       3.547686        96.5375 
 612   0.0000       3.556947        96.7895 
 613   0.0000       3.574293        97.2615 
 614   0.0000       3.584696        97.5445 
 615   0.0000       3.589250        97.6684 
 616   0.0000       3.593988        97.7974 
 617   0.0000       3.611879        98.2842 
 618   0.0000       3.620077        98.5073 
 619   0.0000       3.629246        98.7568 
 620   0.0000       3.631229        98.8108 
 621   0.0000       3.648954        99.2931 
 622   0.0000       3.655278        99.4652 
 623   0.0000       3.666544        99.7717 
 624   0.0000       3.673160        99.9518 
 625   0.0000       3.680430       100.1496 
 626   0.0000       3.698104       100.6305 
 627   0.0000       3.700805       100.7040 
 628   0.0000       3.706357       100.8551 
 629   0.0000       3.720713       101.2458 
 630   0.0000       3.744951       101.9053 
 631   0.0000       3.749558       102.0306 
 632   0.0000       3.762014       102.3696 
 633   0.0000       3.763445       102.4085 
 634   0.0000       3.784931       102.9932 
 635   0.0000       3.796326       103.3033 
 636   0.0000       3.815362       103.8213 
 637   0.0000       3.852478       104.8313 
 638   0.0000       3.860127       105.0394 
 639   0.0000       3.877152       105.5027 
 640   0.0000       3.895998       106.0155 
 641   0.0000       3.904102       106.2360 
 642   0.0000       3.937618       107.1480 
 643   0.0000       3.944271       107.3291 
 644   0.0000       3.965458       107.9056 
 645   0.0000       3.969226       108.0081 
 646   0.0000       3.973359       108.1206 
 647   0.0000       3.983002       108.3830 
 648   0.0000       3.990574       108.5890 
 649   0.0000       4.019998       109.3897 
 650   0.0000       4.022320       109.4529 
 651   0.0000       4.028617       109.6242 
 652   0.0000       4.039831       109.9294 
 653   0.0000       4.054219       110.3209 
 654   0.0000       4.060845       110.5012 
 655   0.0000       4.071606       110.7940 
 656   0.0000       4.088249       111.2469 
 657   0.0000       4.098993       111.5393 
 658   0.0000       4.112054       111.8947 
 659   0.0000       4.134861       112.5153 
 660   0.0000       4.149819       112.9223 
 661   0.0000       4.162155       113.2580 
 662   0.0000       4.191983       114.0697 
 663   0.0000       4.200346       114.2972 
 664   0.0000       4.225349       114.9776 
 665   0.0000       4.229590       115.0930 
 666   0.0000       4.253852       115.7532 
 667   0.0000       4.266308       116.0921 
 668   0.0000       4.295560       116.8881 
 669   0.0000       4.315585       117.4331 
 670   0.0000       4.350031       118.3704 
 671   0.0000       4.368188       118.8644 
 672   0.0000       4.376417       119.0884 
 673   0.0000       4.402486       119.7977 
 674   0.0000       4.407664       119.9386 
 675   0.0000       4.424527       120.3975 
 676   0.0000       4.444611       120.9440 
 677   0.0000       4.471206       121.6677 
 678   0.0000       4.499753       122.4445 
 679   0.0000       4.506166       122.6190 
 680   0.0000       4.540253       123.5466 
 681   0.0000       4.561681       124.1297 
 682   0.0000       4.563395       124.1763 
 683   0.0000       4.591273       124.9349 
 684   0.0000       4.610541       125.4592 
 685   0.0000       4.640410       126.2720 
 686   0.0000       4.650838       126.5557 
 687   0.0000       4.651414       126.5714 
 688   0.0000       4.667116       126.9987 
 689   0.0000       4.683190       127.4361 
 690   0.0000       4.690020       127.6219 
 691   0.0000       4.709985       128.1652 
 692   0.0000       4.719477       128.4235 
 693   0.0000       4.740543       128.9967 
 694   0.0000       4.747942       129.1981 
 695   0.0000       4.782342       130.1341 
 696   0.0000       4.813121       130.9717 
 697   0.0000       4.829122       131.4071 
 698   0.0000       4.838455       131.6611 
 699   0.0000       4.874713       132.6477 
 700   0.0000       4.888773       133.0303 
 701   0.0000       4.915955       133.7699 
 702   0.0000       4.946735       134.6075 
 703   0.0000       4.957945       134.9125 
 704   0.0000       4.974702       135.3685 
 705   0.0000       5.002297       136.1194 
 706   0.0000       5.050003       137.4176 
 707   0.0000       5.077807       138.1741 
 708   0.0000       5.107973       138.9950 
 709   0.0000       5.122088       139.3791 
 710   0.0000       5.142359       139.9307 
 711   0.0000       5.166273       140.5814 
 712   0.0000       5.181767       141.0030 
 713   0.0000       5.215589       141.9234 
 714   0.0000       5.282828       143.7531 
 715   0.0000       5.355951       145.7428 
 716   0.0000       5.389532       146.6566 
 717   0.0000       5.430740       147.7779 
 718   0.0000       5.470629       148.8634 
 719   0.0000       5.502683       149.7356 
 720   0.0000       5.570066       151.5692 
 721   0.0000       5.645292       153.6162 
 722   0.0000       5.772108       157.0670 
 723   0.0000       5.888410       160.2318 
 724   0.0000       6.057068       164.8212 
 725   0.0000       6.127323       166.7329 
 726   0.0000       6.202386       168.7755 
 727   0.0000       6.460152       175.7897 
 728   0.0000       6.542606       178.0333 
 729   0.0000       6.687708       181.9818 
 730   0.0000       6.710905       182.6130 
 731   0.0000       6.771807       184.2702 
 732   0.0000       6.812592       185.3801 
 733   0.0000       6.959731       189.3839 
 734   0.0000       7.070285       192.3922 
 735   0.0000       7.111254       193.5071 
 736   0.0000       7.268403       197.7833 
 737   0.0000       7.452718       202.7988 
 738   0.0000       7.704872       209.6602 
 739   0.0000       8.455079       230.0744 
 740   0.0000       8.482125       230.8104 
 741   0.0000       8.717078       237.2038 
 742   0.0000       8.898183       242.1319 
 743   0.0000       9.144134       248.8245 
 744   0.0000      22.440473       610.6363 
 745   0.0000      22.497596       612.1907 
 746   0.0000      22.518382       612.7563 
 747   0.0000      22.532355       613.1366 
 748   0.0000      22.576197       614.3295 
 749   0.0000      22.587397       614.6343 
 750   0.0000      22.618509       615.4809 
 751   0.0000      22.679726       617.1467 
 752   0.0000      22.708193       617.9213 
 753   0.0000      22.763915       619.4376 
 754   0.0000      23.233510       632.2159 
 755   0.0000      23.285512       633.6310 
 756   0.0000      32.406905       881.8367 
 757   0.0000      44.027641      1198.0530 
 758   0.0000      57.417959      1562.4221 

                    ********************************
                    * MULLIKEN POPULATION ANALYSIS *
                    ********************************

-----------------------
MULLIKEN ATOMIC CHARGES
-----------------------
   0 C :   -0.335566
   1 C :   -0.370550
   2 C :   -0.191582
   3 H :    0.199147
   4 H :    0.162092
   5 C :    0.530664
   6 C :    0.062517
   7 C :   -1.316062
   8 N :   -0.126912
   9 H :    0.261450
  10 H :    0.182980
  11 H :    0.309496
  12 H :    0.577430
  13 O :   -0.558881
  14 F :   -0.231132
  15 C :   -0.470407
  16 C :   -0.214890
  17 C :   -0.248077
  18 H :    0.175852
  19 H :    0.146016
  20 H :    0.124303
  21 H :    0.193974
  22 C :    0.366229
  23 H :    0.180734
  24 H :    0.152797
  25 C :   -0.383092
  26 H :   -0.223113
  27 H :    0.100518
  28 C :   -0.435606
  29 H :    0.177795
  30 H :    0.168710
  31 H :    0.256857
  32 H :    0.133082
  33 H :    0.161134
  34 H :    0.164501
  35 H :    0.215195
  36 H :    0.102396
Sum of atomic charges:    0.0000000

--------------------------------
MULLIKEN REDUCED ORBITAL CHARGES
--------------------------------
  0 C s       :     3.097475  s :     3.097475
      pz      :     1.091092  p :     3.132807
      px      :     0.982982
      py      :     1.058733
      dz2     :     0.037695  d :     0.100083
      dxz     :     0.020653
      dyz     :     0.047039
      dx2y2   :     0.011381
      dxy     :    -0.016684
      f0      :     0.000969  f :     0.005202
      f+1     :     0.000908
      f-1     :     0.000496
      f+2     :     0.001128
      f-2     :     0.000941
      f+3     :     0.000136
      f-3     :     0.000625
  1 C s       :     3.118777  s :     3.118777
      pz      :     1.069049  p :     3.140977
      px      :     1.073514
      py      :     0.998414
      dz2     :    -0.024495  d :     0.105592
      dxz     :     0.018376
      dyz     :     0.088263
      dx2y2   :    -0.024150
      dxy     :     0.047598
      f0      :     0.000381  f :     0.005204
      f+1     :     0.000660
      f-1     :     0.000683
      f+2     :     0.001088
      f-2     :     0.001549
      f+3     :     0.000474
      f-3     :     0.000370
  2 C s       :     3.073882  s :     3.073882
      pz      :     1.065118  p :     3.014817
      px      :     0.979521
      py      :     0.970178
      dz2     :     0.000623  d :     0.097921
      dxz     :     0.065647
      dyz     :     0.032828
      dx2y2   :    -0.011425
      dxy     :     0.010247
      f0      :     0.000163  f :     0.004962
      f+1     :     0.000749
      f-1     :     0.000448
      f+2     :     0.000912
      f-2     :     0.001360
      f+3     :     0.000735
      f-3     :     0.000594
  3 H s       :     0.753253  s :     0.753253
      pz      :     0.020601  p :     0.047601
      px      :     0.014434
      py      :     0.012567
  4 H s       :     0.821080  s :     0.821080
      pz      :     0.019886  p :     0.016828
      px      :     0.008065
      py      :    -0.011122
  5 C s       :     3.304037  s :     3.304037
      pz      :     0.599559  p :     1.845308
      px      :     0.701667
      py      :     0.544082
      dz2     :     0.052830  d :     0.292547
      dxz     :     0.078020
      dyz     :     0.023049
      dx2y2   :     0.108510
      dxy     :     0.030138
      f0      :     0.001806  f :     0.027444
      f+1     :     0.001577
      f-1     :     0.004170
      f+2     :     0.003816
      f-2     :     0.003747
      f+3     :     0.007417
      f-3     :     0.004911
  6 C s       :     3.365249  s :     3.365249
      pz      :     0.837035  p :     2.259640
      px      :     0.590689
      py      :     0.831916
      dz2     :     0.063925  d :     0.298197
      dxz     :     0.118655
      dyz     :     0.072399
      dx2y2   :    -0.031688
      dxy     :     0.074907
      f0      :     0.001279  f :     0.014398
      f+1     :     0.001972
      f-1     :     0.001780
      f+2     :     0.002376
      f-2     :     0.001492
      f+3     :     0.003009
      f-3     :     0.002491
  7 C s       :     3.748511  s :     3.748511
      pz      :     1.241294  p :     3.520348
      px      :     1.068978
      py      :     1.210076
      dz2     :    -0.002087  d :     0.042791
      dxz     :     0.007529
      dyz     :     0.020118
      dx2y2   :    -0.033386
      dxy     :     0.050618
      f0      :     0.000414  f :     0.004412
      f+1     :     0.001312
      f-1     :     0.000190
      f+2     :     0.000471
      f-2     :     0.000749
      f+3     :     0.000798
      f-3     :     0.000479
  8 N s       :     3.323756  s :     3.323756
      pz      :     1.521188  p :     3.754935
      px      :     1.175361
      py      :     1.058386
      dz2     :     0.006861  d :     0.045224
      dxz     :    -0.002546
      dyz     :     0.025081
      dx2y2   :     0.005044
      dxy     :     0.010785
      f0      :     0.000515  f :     0.002997
      f+1     :     0.000242
      f-1     :     0.000341
      f+2     :     0.000463
      f-2     :     0.000492
      f+3     :     0.000348
      f-3     :     0.000596
  9 H s       :     0.746033  s :     0.746033
      pz      :     0.017555  p :    -0.007483
      px      :    -0.005895
      py      :    -0.019143
 10 H s       :     0.780110  s :     0.780110
      pz      :     0.023264  p :     0.036910
      px      :     0.012237
      py      :     0.001409
 11 H s       :     0.639815  s :     0.639815
      pz      :     0.011023  p :     0.050689
      px      :     0.026921
      py      :     0.012745
 12 H s       :     0.441603  s :     0.441603
      pz      :    -0.039678  p :    -0.019033
      px      :     0.013669
      py      :     0.006976
 13 O s       :     4.002143  s :     4.002143
      pz      :     1.542688  p :     4.518848
      px      :     1.352268
      py      :     1.623893
      dz2     :     0.002582  d :     0.036285
[...]
      f+3     :     0.004799
      f-3     :     0.004767
  2 C s       :     2.670058  s :     2.670058
      pz      :     0.906518  p :     2.722556
      px      :     0.900789
      py      :     0.915248
      dz2     :     0.099068  d :     0.667184
      dxz     :     0.166560
      dyz     :     0.130530
      dx2y2   :     0.126140
      dxy     :     0.144886
      f0      :     0.004351  f :     0.037296
      f+1     :     0.006089
      f-1     :     0.003618
      f+2     :     0.005238
      f-2     :     0.006214
      f+3     :     0.006063
      f-3     :     0.005724
  3 H s       :     0.661244  s :     0.661244
      pz      :     0.074110  p :     0.217154
      px      :     0.065930
      py      :     0.077114
  4 H s       :     0.669637  s :     0.669637
      pz      :     0.077788  p :     0.202106
      px      :     0.066422
      py      :     0.057896
  5 C s       :     2.629043  s :     2.629043
      pz      :     0.672460  p :     2.311193
      px      :     0.890224
      py      :     0.748509
      dz2     :     0.167453  d :     1.347013
      dxz     :     0.238074
      dyz     :     0.210160
      dx2y2   :     0.350910
      dxy     :     0.380417
      f0      :     0.013860  f :     0.179130
      f+1     :     0.011494
      f-1     :     0.022451
      f+2     :     0.028229
      f-2     :     0.022444
      f+3     :     0.046625
      f-3     :     0.034027
  6 C s       :     2.605312  s :     2.605312
      pz      :     0.799169  p :     2.576402
      px      :     0.909764
      py      :     0.867469
      dz2     :     0.183598  d :     1.225753
      dxz     :     0.205798
      dyz     :     0.273466
      dx2y2   :     0.279541
      dxy     :     0.283350
      f0      :     0.009369  f :     0.095097
      f+1     :     0.009738
      f-1     :     0.012191
      f+2     :     0.017286
      f-2     :     0.008409
      f+3     :     0.019756
      f-3     :     0.018348
  7 C s       :     2.700876  s :     2.700876
      pz      :     0.911948  p :     2.804289
      px      :     0.964735
      py      :     0.927606
      dz2     :     0.061370  d :     0.438358
      dxz     :     0.089479
      dyz     :     0.048157
      dx2y2   :     0.097805
      dxy     :     0.141548
      f0      :     0.003709  f :     0.033027
      f+1     :     0.004871
      f-1     :     0.001593
      f+2     :     0.005665
      f-2     :     0.005141
      f+3     :     0.006665
      f-3     :     0.005383
  8 N s       :     2.897702  s :     2.897702
      pz      :     1.258345  p :     3.511674
      px      :     1.122997
      py      :     1.130332
      dz2     :     0.038618  d :     0.442575
      dxz     :     0.046387
      dyz     :     0.107031
      dx2y2   :     0.096056
      dxy     :     0.154483
      f0      :     0.001787  f :     0.013139
      f+1     :     0.000411
      f-1     :     0.001701
      f+2     :     0.002593
      f-2     :     0.001376
      f+3     :     0.002242
      f-3     :     0.003029
  9 H s       :     0.577329  s :     0.577329
      pz      :     0.091559  p :     0.383342
      px      :     0.163121
      py      :     0.128662
 10 H s       :     0.625919  s :     0.625919
      pz      :     0.102973  p :     0.265818
      px      :     0.097258
      py      :     0.065587
 11 H s       :     0.706577  s :     0.706577
      pz      :     0.094728  p :     0.258278
      px      :     0.066489
      py      :     0.097061
 12 H s       :     0.663680  s :     0.663680
      pz      :     0.092706  p :     0.340986
      px      :     0.118675
      py      :     0.129606
 13 O s       :     3.335165  s :     3.335165
      pz      :     1.362484  p :     4.290849
      px      :     1.452020
      py      :     1.476345
      dz2     :     0.037550  d :     0.270894
      dxz     :     0.047663
      dyz     :     0.013980
      dx2y2   :     0.077637
      dxy     :     0.094064
      f0      :     0.000466  f :     0.005443
      f+1     :     0.000788
      f-1     :     0.000258
      f+2     :     0.000325
      f-2     :     0.000494
      f+3     :     0.001390
      f-3     :     0.001722
 14 F s       :     3.478071  s :     3.478071
      pz      :     1.666468  p :     5.027835
      px      :     1.757431
      py      :     1.603936
      dz2     :     0.043590  d :     0.280676
      dxz     :     0.023898
      dyz     :     0.063042
      dx2y2   :     0.053037
      dxy     :     0.097109
      f0      :     0.000194  f :     0.002293
      f+1     :     0.000051
      f-1     :     0.000354
      f+2     :     0.000451
      f-2     :     0.000345
      f+3     :     0.000457
      f-3     :     0.000441
 15 C s       :     2.677863  s :     2.677863
      pz      :     0.897870  p :     2.726268
      px      :     0.913310
      py      :     0.915089
      dz2     :     0.142967  d :     0.753878
      dxz     :     0.159309
      dyz     :     0.173329
      dx2y2   :     0.106043
      dxy     :     0.172230
      f0      :     0.005611  f :     0.038882
      f+1     :     0.004843
      f-1     :     0.007019
      f+2     :     0.005166
      f-2     :     0.006024
      f+3     :     0.003900
      f-3     :     0.006320
 16 C s       :     2.668868  s :     2.668868
      pz      :     0.908025  p :     2.734937
      px      :     0.914032
      py      :     0.912880
      dz2     :     0.149491  d :     0.771396
      dxz     :     0.180735
      dyz     :     0.175549
      dx2y2   :     0.099397
      dxy     :     0.166223
      f0      :     0.007097  f :     0.039279
      f+1     :     0.004626
      f-1     :     0.005730
      f+2     :     0.006862
      f-2     :     0.006341
      f+3     :     0.004616
      f-3     :     0.004007
 17 C s       :     2.666751  s :     2.666751
      pz      :     0.904710  p :     2.733011
      px      :     0.911458
      py      :     0.916843
      dz2     :     0.131567  d :     0.770373
      dxz     :     0.178385
      dyz     :     0.176254
      dx2y2   :     0.101750
      dxy     :     0.182417
      f0      :     0.006431  f :     0.039499
      f+1     :     0.005363
      f-1     :     0.005068
      f+2     :     0.006163
      f-2     :     0.006883
      f+3     :     0.004869
      f-3     :     0.004723
 18 H s       :     0.673637  s :     0.673637
      pz      :     0.070220  p :     0.203448
      px      :     0.070301
      py      :     0.062926
 19 H s       :     0.652835  s :     0.652835
      pz      :     0.079730  p :     0.240795
      px      :     0.084575
      py      :     0.076490
 20 H s       :     0.677866  s :     0.677866
      pz      :     0.065193  p :     0.205405
      px      :     0.071108
      py      :     0.069104
 21 H s       :     0.677402  s :     0.677402
      pz      :     0.071843  p :     0.210121
      px      :     0.065505
      py      :     0.072773
 22 C s       :     2.666100  s :     2.666100
      pz      :     0.909075  p :     2.723315
      px      :     0.904583
      py      :     0.909656
      dz2     :     0.145982  d :     0.785809
      dxz     :     0.145741
      dyz     :     0.169766
      dx2y2   :     0.126168
      dxy     :     0.198152
      f0      :     0.005124  f :     0.040252
      f+1     :     0.005372
      f-1     :     0.005871
      f+2     :     0.004891
      f-2     :     0.006918
      f+3     :     0.004755
      f-3     :     0.007321
 23 H s       :     0.667024  s :     0.667024
      pz      :     0.069132  p :     0.224246
      px      :     0.089174
      py      :     0.065940
 24 H s       :     0.684698  s :     0.684698
      pz      :     0.077447  p :     0.204994
      px      :     0.066365
      py      :     0.061183
 25 C s       :     2.674347  s :     2.674347
      pz      :     0.917726  p :     2.739246
      px      :     0.910268
      py      :     0.911251
      dz2     :     0.130681  d :     0.765826
      dxz     :     0.149983
      dyz     :     0.167421
      dx2y2   :     0.129359
      dxy     :     0.188383
      f0      :     0.004661  f :     0.039683
      f+1     :     0.006124
      f-1     :     0.005277
      f+2     :     0.004435
      f-2     :     0.006982
      f+3     :     0.005099
      f-3     :     0.007106
 26 H s       :     0.639594  s :     0.639594
      pz      :     0.107419  p :     0.273444
      px      :     0.085683
      py      :     0.080343
 27 H s       :     0.677794  s :     0.677794
      pz      :     0.056616  p :     0.196667
      px      :     0.075608
      py      :     0.064442
 28 C s       :     2.678824  s :     2.678824
      pz      :     0.911670  p :     2.748137
      px      :     0.916652
      py      :     0.919815
      dz2     :     0.109474  d :     0.743690
      dxz     :     0.171798
      dyz     :     0.171745
      dx2y2   :     0.125992
      dxy     :     0.164680
      f0      :     0.006075  f :     0.038744
      f+1     :     0.003710
      f-1     :     0.005790
      f+2     :     0.005778
      f-2     :     0.006102
      f+3     :     0.004160
      f-3     :     0.007129
 29 H s       :     0.666509  s :     0.666509
      pz      :     0.069062  p :     0.225581
      px      :     0.081465
      py      :     0.075053
 30 H s       :     0.682347  s :     0.682347
      pz      :     0.082381  p :     0.203588
      px      :     0.060436
      py      :     0.060770
 31 H s       :     0.659136  s :     0.659136
      pz      :     0.082618  p :     0.235881
      px      :     0.085831
      py      :     0.067432
 32 H s       :     0.677351  s :     0.677351
      pz      :     0.058786  p :     0.205764
      px      :     0.068745
      py      :     0.078233
 33 H s       :     0.682390  s :     0.682390
      pz      :     0.070849  p :     0.209068
      px      :     0.081802
      py      :     0.056417
 34 H s       :     0.682772  s :     0.682772
      pz      :     0.062020  p :     0.206764
      px      :     0.076598
      py      :     0.068146
 35 H s       :     0.681272  s :     0.681272
      pz      :     0.054405  p :     0.211421
      px      :     0.085013
      py      :     0.072003
 36 H s       :     0.677992  s :     0.677992
      pz      :     0.060485  p :     0.205979
      px      :     0.056238
      py      :     0.089255


                      *****************************
                      * MAYER POPULATION ANALYSIS *
                      *****************************

  NA   - Mulliken gross atomic population
  ZA   - Total nuclear charge
  QA   - Mulliken gross atomic charge
  VA   - Mayer's total valence
  BVA  - Mayer's bonded valence
  FA   - Mayer's free valence

  ATOM       NA         ZA         QA         VA         BVA        FA
  0 C      6.3356     6.0000    -0.3356     4.0159     4.0159    -0.0000
  1 C      6.3705     6.0000    -0.3705     4.3402     4.3402     0.0000
  2 C      6.1916     6.0000    -0.1916     4.0231     4.0231     0.0000
  3 H      0.8009     1.0000     0.1991     0.9642     0.9642    -0.0000
  4 H      0.8379     1.0000     0.1621     0.9744     0.9744     0.0000
  5 C      5.4693     6.0000     0.5307     3.8454     3.8454     0.0000
  6 C      5.9375     6.0000     0.0625     3.9224     3.9224     0.0000
  7 C      7.3161     6.0000    -1.3161     3.3682     3.3682     0.0000
  8 N      7.1269     7.0000    -0.1269     3.0217     3.0217    -0.0000
  9 H      0.7386     1.0000     0.2614     0.8583     0.8583     0.0000
 10 H      0.8170     1.0000     0.1830     0.9316     0.9316     0.0000
 11 H      0.6905     1.0000     0.3095     0.9778     0.9778     0.0000
 12 H      0.4226     1.0000     0.5774     0.8215     0.8215     0.0000
 13 O      8.5589     8.0000    -0.5589     1.8689     1.8689    -0.0000
 14 F      9.2311     9.0000    -0.2311     1.0303     1.0303     0.0000
 15 C      6.4704     6.0000    -0.4704     4.1191     4.1191    -0.0000
 16 C      6.2149     6.0000    -0.2149     3.9148     3.9148     0.0000
 17 C      6.2481     6.0000    -0.2481     4.0109     4.0109     0.0000
 18 H      0.8241     1.0000     0.1759     0.8155     0.8155    -0.0000
 19 H      0.8540     1.0000     0.1460     1.1406     1.1406     0.0000
 20 H      0.8757     1.0000     0.1243     1.0430     1.0430     0.0000
 21 H      0.8060     1.0000     0.1940     0.9197     0.9197    -0.0000
 22 C      5.6338     6.0000     0.3662     4.0200     4.0200     0.0000
 23 H      0.8193     1.0000     0.1807     1.0333     1.0333    -0.0000
 24 H      0.8472     1.0000     0.1528     1.0236     1.0236    -0.0000
 25 C      6.3831     6.0000    -0.3831     4.1236     4.1236     0.0000
 26 H      1.2231     1.0000    -0.2231     1.9129     1.9129    -0.0000
 27 H      0.8995     1.0000     0.1005     0.6515     0.6515    -0.0000
 28 C      6.4356     6.0000    -0.4356     4.5407     4.5407     0.0000
 29 H      0.8222     1.0000     0.1778     1.0087     1.0087     0.0000
 30 H      0.8313     1.0000     0.1687     0.9554     0.9554     0.0000
 31 H      0.7431     1.0000     0.2569     0.9312     0.9312     0.0000
 32 H      0.8669     1.0000     0.1331     0.8757     0.8757    -0.0000
 33 H      0.8389     1.0000     0.1611     0.9580     0.9580    -0.0000
 34 H      0.8355     1.0000     0.1645     0.9379     0.9379    -0.0000
 35 H      0.7848     1.0000     0.2152     0.8929     0.8929    -0.0000
 36 H      0.8976     1.0000     0.1024     1.0064     1.0064    -0.0000

  Mayer bond orders larger than 0.100000
B(  0-C ,  6-C ) :   0.9924 B(  0-C , 15-C ) :   0.8952 B(  0-C , 35-H ) :   0.9118 
B(  0-C , 36-H ) :   0.9822 B(  1-C ,  2-C ) :   0.9048 B(  1-C ,  5-C ) :   0.1421 
B(  1-C , 16-C ) :   0.1846 B(  1-C , 17-C ) :   1.0243 B(  1-C , 19-H ) :   0.1129 
B(  1-C , 20-H ) :   0.9339 B(  1-C , 21-H ) :   0.9200 B(  2-C ,  3-H ) :   0.9630 
B(  2-C ,  4-H ) :   0.8829 B(  2-C ,  5-C ) :   1.0058 B(  2-C , 16-C ) :   0.1965 
B(  5-C , 13-O ) :   1.6125 B(  5-C , 14-F ) :   0.9250 B(  6-C ,  7-C ) :   1.5407 
B(  6-C ,  8-N ) :   1.1926 B(  6-C , 15-C ) :   0.1434 B(  7-C , 11-H ) :   1.0168 
B(  7-C , 12-H ) :   0.7578 B(  7-C , 15-C ) :   0.1027 B(  8-N ,  9-H ) :   0.7896 
B(  8-N , 10-H ) :   0.8683 B( 13-O , 14-F ) :   0.1092 B( 15-C , 22-C ) :   0.6996 
B( 15-C , 23-H ) :   0.8373 B( 15-C , 24-H ) :   0.9622 B( 15-C , 25-C ) :   0.4918 
B( 15-C , 26-H ) :   0.1181 B( 15-C , 27-H ) :  -0.1421 B( 16-C , 17-C ) :   0.6181 
B( 16-C , 19-H ) :  -0.1241 B( 16-C , 22-C ) :   0.1531 B( 16-C , 26-H ) :   0.1057 
B( 16-C , 28-C ) :   1.0098 B( 16-C , 31-H ) :   0.9924 B( 16-C , 32-H ) :   0.8812 
B( 17-C , 18-H ) :   0.8556 B( 17-C , 19-H ) :   1.1461 B( 17-C , 25-C ) :   0.1729 
B( 17-C , 28-C ) :   0.2353 B( 17-C , 29-H ) :   0.1199 B( 17-C , 31-H ) :  -0.1058 
B( 22-C , 25-C ) :   0.5892 B( 22-C , 26-H ) :   1.6842 B( 22-C , 27-H ) :   0.7796 
B( 22-C , 28-C ) :   0.1580 B( 23-H , 25-C ) :   0.1263 B( 25-C , 27-H ) :  -0.1245 
B( 25-C , 28-C ) :   1.0526 B( 25-C , 29-H ) :   0.8802 B( 25-C , 30-H ) :   0.9381 
B( 26-H , 27-H ) :   0.1411 B( 28-C , 33-H ) :   0.9237 B( 28-C , 34-H ) :   0.9362 


-------
TIMINGS
-------

Total SCF time: 0 days 0 hours 2 min 9 sec 

Total time                  ....     129.022 sec
Sum of individual times     ....     127.392 sec  ( 98.7%)

Fock matrix formation       ....     117.137 sec  ( 90.8%)
  Split-RI-J                ....      35.878 sec  ( 30.6% of F)
  XC integration            ....      80.704 sec  ( 68.9% of F)
    Basis function eval.    ....      14.203 sec  ( 17.6% of XC)
    Density eval.           ....      34.899 sec  ( 43.2% of XC)
    XC-Functional eval.     ....       0.851 sec  (  1.1% of XC)
    XC-Potential eval.      ....      28.766 sec  ( 35.6% of XC)
Diagonalization             ....       1.768 sec  (  1.4%)
Density matrix formation    ....       0.137 sec  (  0.1%)
Population analysis         ....       0.190 sec  (  0.1%)
Initial guess               ....       2.747 sec  (  2.1%)
Orbital Transformation      ....       0.000 sec  (  0.0%)
Orbital Orthonormalization  ....       0.000 sec  (  0.0%)
DIIS solution               ....       0.915 sec  (  0.7%)
SOSCF solution              ....       2.043 sec  (  1.6%)
Grid generation             ....       2.457 sec  (  1.9%)

Maximum memory used throughout the entire SCF-calculation: 135.2 MB


-------------------------------------------------------------------------------
                          DFT DISPERSION CORRECTION                            
                                                                               
                              DFTD3 V3.1  Rev 1                                
                          USING Becke-Johnson damping                          
-------------------------------------------------------------------------------
The PBE functional is recognized
Active option DFTDOPT                   ...         4   

molecular C6(AA) [au] = 10415.660784 


            DFT-D V3
 parameters
 s6 scaling factor         :     1.0000 
 a1 scaling factor         :     0.4289 
 s8 scaling factor         :     0.7875 
 a2 scaling factor         :     4.4407 
 ad hoc parameters k1-k3   :    16.0000     1.3333    -4.0000 

 Edisp/kcal,au: -27.049495900485  -0.043106110956 
 E6   /kcal   : -19.631404934 
 E8   /kcal   :  -7.418090967 
 % E8         :  27.424137566 

-------------------------   ----------------
Dispersion correction           -0.043106111
-------------------------   ----------------


-------------------------   --------------------
FINAL SINGLE POINT ENERGY      -699.710281240334
-------------------------   --------------------


                            ***************************************
                            *     ORCA property calculations      *
                            ***************************************

                                    ---------------------
                                    Active property flags
                                    ---------------------
   (+) Dipole Moment


------------------------------------------------------------------------------
                       ORCA ELECTRIC PROPERTIES CALCULATION
------------------------------------------------------------------------------

Dipole Moment Calculation                       ... on
Quadrupole Moment Calculation                   ... off
Polarizability Calculation                      ... off
GBWName                                         ... 28Oct_TZVPD_PBE_D3_wb97.gbw
Electron density file                           ... 28Oct_TZVPD_PBE_D3_wb97.scfp
The origin for moment calculation is the CENTER OF MASS  = ( 3.706189, -0.919215  4.665613)

-------------
DIPOLE MOMENT
-------------
                                X             Y             Z
Electronic contribution:     -1.15986       4.74133      16.01241
Nuclear contribution   :      0.05905      -3.94566     -16.70013
                        -----------------------------------------
Total Dipole Moment    :     -1.10082       0.79567      -0.68773
                        -----------------------------------------
Magnitude (a.u.)       :      1.52245
Magnitude (Debye)      :      3.86976



--------------------
Rotational spectrum 
--------------------
 
Rotational constants in cm-1:     0.021602     0.017295     0.011353 
Rotational constants in MHz :   647.614981   518.478934   340.359556 

 Dipole components along the rotational axes: 
x,y,z [a.u.] :    -1.289004    -0.793074    -0.165406 
x,y,z [Debye]:    -3.276389    -2.015834    -0.420429 

 

Timings for individual modules:

Sum of individual times         ...      130.740 sec (=   2.179 min)
GTO integral calculation        ...        1.324 sec (=   0.022 min)   1.0 %
SCF iterations                  ...      129.416 sec (=   2.157 min)  99.0 %
                             ****ORCA TERMINATED NORMALLY****
TOTAL RUN TIME: 0 days 0 hours 2 minutes 11 seconds 539 msec
