
                                        *****************
                                        * O   R   C   A *
                                        *****************

                                            #,                                       
                                            ###                                      
                                            ####                                     
                                            #####                                    
                                            ######                                   
                                           ########,                                 
                                     ,,################,,,,,                         
                               ,,#################################,,                 
                          ,,##########################################,,             
                       ,#########################################, ''#####,          
                    ,#############################################,,   '####,        
                  ,##################################################,,,,####,       
                ,###########''''           ''''###############################       
              ,#####''   ,,,,##########,,,,          '''####'''          '####       
            ,##' ,,,,###########################,,,                        '##       
           ' ,,###''''                  '''############,,,                           
         ,,##''                                '''############,,,,        ,,,,,,###''
      ,#''                                            '''#######################'''  
     '                                                          ''''####''''         
             ,#######,   #######,   ,#######,      ##                                
            ,#'     '#,  ##    ##  ,#'     '#,    #''#        ######   ,####,        
            ##       ##  ##   ,#'  ##            #'  '#       #        #'  '#        
            ##       ##  #######   ##           ,######,      #####,   #    #        
            '#,     ,#'  ##    ##  '#,     ,#' ,#      #,         ##   #,  ,#        
             '#######'   ##     ##  '#######'  #'      '#     #####' # '####'        



                  #######################################################
                  #                        -***-                        #
                  #          Department of theory and spectroscopy      #
                  #    Directorship and core code : Frank Neese         #
                  #        Max Planck Institute fuer Kohlenforschung    #
                  #                Kaiser Wilhelm Platz 1               #
                  #                 D-45470 Muelheim/Ruhr               #
                  #                      Germany                        #
                  #                                                     #
                  #                  All rights reserved                #
                  #                        -***-                        #
                  #######################################################


                         Program Version 5.0.0 -  RELEASE  -
                                (SVN: $Rev: 19529$)
                ($Date: 2021-06-28 11:36:33 +0200 (Mo, 28 Jun 2021) $)


 With contributions from (in alphabetic order):
   Daniel Aravena         : Magnetic Suceptibility
   Michael Atanasov       : Ab Initio Ligand Field Theory (pilot matlab implementation)
   Alexander A. Auer      : GIAO ZORA, VPT2 properties, NMR spectrum
   Ute Becker             : Parallelization
   Giovanni Bistoni       : ED, misc. LED, open-shell LED, HFLD
   Martin Brehm           : Molecular dynamics
   Dmytro Bykov           : SCF Hessian
   Vijay G. Chilkuri      : MRCI spin determinant printing, contributions to CSF-ICE
   Dipayan Datta          : RHF DLPNO-CCSD density
   Achintya Kumar Dutta   : EOM-CC, STEOM-CC
   Dmitry Ganyushin       : Spin-Orbit,Spin-Spin,Magnetic field MRCI
   Miquel Garcia          : C-PCM Hessian, Gaussian charge scheme
   Yang Guo               : DLPNO-NEVPT2, F12-NEVPT2, CIM, IAO-localization
   Andreas Hansen         : Spin unrestricted coupled pair/coupled cluster methods
   Benjamin Helmich-Paris : MC-RPA, TRAH-SCF, COSX integrals
   Lee Huntington         : MR-EOM, pCC
   Robert Izsak           : Overlap fitted RIJCOSX, COSX-SCS-MP3, EOM
   Marcus Kettner         : VPT2
   Christian Kollmar      : KDIIS, OOCD, Brueckner-CCSD(T), CCSD density, CASPT2, CASPT2-K
   Simone Kossmann        : Meta GGA functionals, TD-DFT gradient, OOMP2, MP2 Hessian
   Martin Krupicka        : Initial AUTO-CI
   Lucas Lang             : DCDCAS
   Marvin Lechner         : AUTO-CI (C++ implementation), FIC-MRCC
   Dagmar Lenk            : GEPOL surface, SMD
   Dimitrios Liakos       : Extrapolation schemes; Compound Job, initial MDCI parallelization
   Dimitrios Manganas     : Further ROCIS development; embedding schemes
   Dimitrios Pantazis     : SARC Basis sets
   Anastasios Papadopoulos: AUTO-CI, single reference methods and gradients
   Taras Petrenko         : DFT Hessian,TD-DFT gradient, ASA, ECA, R-Raman, ABS, FL, XAS/XES, NRVS
   Peter Pinski           : DLPNO-MP2, DLPNO-MP2 Gradient
   Christoph Reimann      : Effective Core Potentials
   Marius Retegan         : Local ZFS, SOC
   Christoph Riplinger    : Optimizer, TS searches, QM/MM, DLPNO-CCSD(T), (RO)-DLPNO pert. Triples
   Tobias Risthaus        : Range-separated hybrids, TD-DFT gradient, RPA, STAB
   Michael Roemelt        : Original ROCIS implementation
   Masaaki Saitow         : Open-shell DLPNO-CCSD energy and density
   Barbara Sandhoefer     : DKH picture change effects
   Avijit Sen             : IP-ROCIS
   Kantharuban Sivalingam : CASSCF convergence, NEVPT2, FIC-MRCI
   Bernardo de Souza      : ESD, SOC TD-DFT
   Georgi Stoychev        : AutoAux, RI-MP2 NMR
   Willem Van den Heuvel  : Paramagnetic NMR
   Boris Wezisla          : Elementary symmetry handling
   Frank Wennmohs         : Technical directorship


 We gratefully acknowledge several colleagues who have allowed us to
 interface, adapt or use parts of their codes:
   Stefan Grimme, W. Hujo, H. Kruse, P. Pracht,  : VdW corrections, initial TS optimization,
                  C. Bannwarth, S. Ehlert          DFT functionals, gCP, sTDA/sTD-DF
   Ed Valeev, F. Pavosevic, A. Kumar             : LibInt (2-el integral package), F12 methods
   Garnet Chan, S. Sharma, J. Yang, R. Olivares  : DMRG
   Ulf Ekstrom                                   : XCFun DFT Library
   Mihaly Kallay                                 : mrcc  (arbitrary order and MRCC methods)
   Jiri Pittner, Ondrej Demel                    : Mk-CCSD
   Frank Weinhold                                : gennbo (NPA and NBO analysis)
   Christopher J. Cramer and Donald G. Truhlar   : smd solvation model
   Lars Goerigk                                  : TD-DFT with DH, B97 family of functionals
   V. Asgeirsson, H. Jonsson                     : NEB implementation
   FAccTs GmbH                                   : IRC, NEB, NEB-TS, DLPNO-Multilevel, CI-OPT
                                                   MM, QMMM, 2- and 3-layer-ONIOM, Crystal-QMMM,
                                                   LR-CPCM, SF, NACMEs, symmetry and pop. for TD-DFT,
                                                   nearIR, NL-DFT gradient (VV10), updates on ESD,
                                                   ML-optimized integration grids
   S Lehtola, MJT Oliveira, MAL Marques          : LibXC Library
   Liviu Ungur et al                             : ANISO software


 Your calculation uses the libint2 library for the computation of 2-el integrals
 For citations please refer to: http://libint.valeyev.net

 Your ORCA version has been built with support for libXC version: 5.1.0
 For citations please refer to: https://tddft.org/programs/libxc/

 This ORCA versions uses:
   CBLAS   interface :  Fast vector & matrix operations
   LAPACKE interface :  Fast linear algebra routines
   SCALAPACK package :  Parallel linear algebra routines
   Shared memory     :  Shared parallel matrices
   BLAS/LAPACK       :  OpenBLAS 0.3.15  USE64BITINT DYNAMIC_ARCH NO_AFFINITY Haswell SINGLE_THREADED
        Core in use  :  Haswell
   Copyright (c) 2011-2014, The OpenBLAS Project


Your calculation utilizes the atom-pairwise dispersion correction
with the Becke-Johnson damping scheme (D3BJ)
Cite in your paper:
S.Grimme, S.Ehrlich, L.Goerigk, J Comput Chem, (2011), 32, 1456–1465 
S.Grimme, J.Antony, S.Ehrlich and H.Krieg, J.Chem.Phys., 132, (2010), 154104 
   

================================================================================

----- Orbital basis set information -----
Your calculation utilizes the basis: def2-SVPD
   F. Weigend and R. Ahlrichs, Phys. Chem. Chem. Phys. 7, 3297 (2005).
   D. Rappoport and F. Furche, J. Chem. Phys. 133 134105 (2010).

----- AuxJ basis set information -----
Your calculation utilizes the auxiliary basis: def2/J
   F. Weigend, Phys. Chem. Chem. Phys. 8, 1057 (2006).

================================================================================
                                        WARNINGS
                       Please study these warnings very carefully!
================================================================================



WARNING: Found flag for RIJCOSX approximation but no HF exchange needed!
  ===> : RIJCOSX  will be disabled and Split-RI-J is turned on

INFO   : the flag for use of the SHARK integral package has been found!

================================================================================
                                       INPUT FILE
================================================================================
NAME = 14Feb_SVPD_PBE_A_wt_wb97_typ1_neg.com
|  1> !PBE D3BJ RIJCOSX def2-SVPD def2/J TightSCF 
|  2> *xyz -1 1
|  3> C         -0.81136       -2.90878       -4.60763
|  4> C         -1.91658       -2.48508       -3.64367
|  5> H         -2.55452       -1.71243       -4.09199
|  6> C         -1.36353       -1.98134       -2.29361
|  7> H         -2.55345       -3.35567       -3.45881
|  8> O         -0.35039       -2.74969       -1.79601
|  9> H         -2.22622       -1.90839       -1.60204
| 10> H         -1.05135       -0.91567       -2.44333
| 11> H         -1.24783       -3.24801       -5.52377
| 12> H         -0.24047       -3.70079       -4.16978
| 13> H         -0.17107       -2.07453       -4.80501
| 14> *
| 15> 
| 16> %MaxCore 64000
| 17> %pal nprocs 4
| 18> end  
| 19> 
| 20> %scf
| 21>   MaxIter 150
| 22> end
| 23> 
| 24> 
| 25>                          ****END OF INPUT****
================================================================================

                       ****************************
                       * Single Point Calculation *
                       ****************************

---------------------------------
CARTESIAN COORDINATES (ANGSTROEM)
---------------------------------
  C     -0.811360   -2.908780   -4.607630
  C     -1.916580   -2.485080   -3.643670
  H     -2.554520   -1.712430   -4.091990
  C     -1.363530   -1.981340   -2.293610
  H     -2.553450   -3.355670   -3.458810
  O     -0.350390   -2.749690   -1.796010
  H     -2.226220   -1.908390   -1.602040
  H     -1.051350   -0.915670   -2.443330
  H     -1.247830   -3.248010   -5.523770
  H     -0.240470   -3.700790   -4.169780
  H     -0.171070   -2.074530   -4.805010

----------------------------
CARTESIAN COORDINATES (A.U.)
----------------------------
  NO LB      ZA    FRAG     MASS         X           Y           Z
   0 C     6.0000    0    12.011   -1.533248   -5.496798   -8.707159
   1 C     6.0000    0    12.011   -3.621811   -4.696121   -6.885538
   2 H     1.0000    0     1.008   -4.827343   -3.236024   -7.732740
   3 C     6.0000    0    12.011   -2.576698   -3.744190   -4.334295
   4 H     1.0000    0     1.008   -4.825321   -6.341297   -6.536204
   5 O     8.0000    0    15.999   -0.662141   -5.196161   -3.393967
   6 H     1.0000    0     1.008   -4.206946   -3.606334   -3.027417
   7 H     1.0000    0     1.008   -1.986764   -1.730366   -4.617225
   8 H     1.0000    0     1.008   -2.358057   -6.137849  -10.438413
   9 H     1.0000    0     1.008   -0.454422   -6.993480   -7.879742
  10 H     1.0000    0     1.008   -0.323275   -3.920294   -9.080153

--------------------------------
INTERNAL COORDINATES (ANGSTROEM)
--------------------------------
 C      0   0   0     0.000000000000     0.00000000     0.00000000
 C      1   0   0     1.526516236402     0.00000000     0.00000000
 H      2   1   0     1.097700454815   110.99162534     0.00000000
 C      2   1   3     1.543463732551   112.55127125   236.71996500
 H      2   1   3     1.094396438499   107.89048101   116.81254446
 O      4   2   1     1.365437710809   113.63920554   316.83089338
 H      4   2   1     1.108072562380   106.76416070   191.84554268
 H      4   2   1     1.120502110529   107.05880727    81.22973923
 H      1   2   3     1.069997922148   109.47130590   303.27966928
 H      1   2   3     1.070003670414   109.47138700   183.27946294
 H      1   2   3     1.070001500466   109.47113850    63.28026689

---------------------------
INTERNAL COORDINATES (A.U.)
---------------------------
 C      0   0   0     0.000000000000     0.00000000     0.00000000
 C      1   0   0     2.884697625785     0.00000000     0.00000000
 H      2   1   0     2.074353236680   110.99162534     0.00000000
 C      2   1   3     2.916723752161   112.55127125   236.71996500
 H      2   1   3     2.068109550703   107.89048101   116.81254446
 O      4   2   1     2.580303326358   113.63920554   316.83089338
 H      4   2   1     2.093953679411   106.76416070   191.84554268
 H      4   2   1     2.117442121381   107.05880727    81.22973923
 H      1   2   3     2.022003036724   109.47130590   303.27966928
 H      1   2   3     2.022013899373   109.47138700   183.27946294
 H      1   2   3     2.022009798766   109.47113850    63.28026689

---------------------
BASIS SET INFORMATION
---------------------
There are 3 groups of distinct atoms

 Group   1 Type C   : 8s4p2d contracted to 4s2p2d pattern {5111/31/11}
 Group   2 Type H   : 4s2p contracted to 2s2p pattern {31/11}
 Group   3 Type O   : 8s5p2d contracted to 4s3p2d pattern {5111/311/11}

Atom   0C    basis set group =>   1
Atom   1C    basis set group =>   1
Atom   2H    basis set group =>   2
Atom   3C    basis set group =>   1
Atom   4H    basis set group =>   2
Atom   5O    basis set group =>   3
Atom   6H    basis set group =>   2
Atom   7H    basis set group =>   2
Atom   8H    basis set group =>   2
Atom   9H    basis set group =>   2
Atom  10H    basis set group =>   2
---------------------------------
AUXILIARY/J BASIS SET INFORMATION
---------------------------------
There are 3 groups of distinct atoms

 Group   1 Type C   : 12s5p4d2f1g contracted to 6s4p3d1f1g pattern {711111/2111/211/2/1}
 Group   2 Type H   : 5s2p1d contracted to 3s1p1d pattern {311/2/1}
 Group   3 Type O   : 12s5p4d2f1g contracted to 6s4p3d1f1g pattern {711111/2111/211/2/1}

Atom   0C    basis set group =>   1
Atom   1C    basis set group =>   1
Atom   2H    basis set group =>   2
Atom   3C    basis set group =>   1
Atom   4H    basis set group =>   2
Atom   5O    basis set group =>   3
Atom   6H    basis set group =>   2
Atom   7H    basis set group =>   2
Atom   8H    basis set group =>   2
Atom   9H    basis set group =>   2
Atom  10H    basis set group =>   2


           ************************************************************
           *        Program running with 4 parallel MPI-processes     *
           *              working on a common directory               *
           ************************************************************
------------------------------------------------------------------------------
                           ORCA GTO INTEGRAL CALCULATION
                           -- RI-GTO INTEGRALS CHOSEN --
------------------------------------------------------------------------------
------------------------------------------------------------------------------
                   ___                                                        
                  /   \      - P O W E R E D   B Y -                         
                 /     \                                                     
                 |  |  |   _    _      __       _____    __    __             
                 |  |  |  | |  | |    /  \     |  _  \  |  |  /  |          
                  \  \/   | |  | |   /    \    | | | |  |  | /  /          
                 / \  \   | |__| |  /  /\  \   | |_| |  |  |/  /          
                |  |  |   |  __  | /  /__\  \  |    /   |      \           
                |  |  |   | |  | | |   __   |  |    \   |  |\   \          
                \     /   | |  | | |  |  |  |  | |\  \  |  | \   \       
                 \___/    |_|  |_| |__|  |__|  |_| \__\ |__|  \__/        
                                                                              
                      - O R C A' S   B I G   F R I E N D -                    
                                      &                                       
                       - I N T E G R A L  F E E D E R -                       
                                                                              
 v1 FN, 2020, v2 2021                                                         
------------------------------------------------------------------------------


Reading SHARK input file 14Feb_SVPD_PBE_A_wt_wb97_typ1_neg.SHARKINP.tmp ... ok
----------------------
SHARK INTEGRAL PACKAGE
----------------------

Number of atoms                             ...     11
Number of basis functions                   ...    139
Number of shells                            ...     61
Maximum angular momentum                    ...      2
Integral batch strategy                     ... SHARK/LIBINT Hybrid
RI-J (if used) integral strategy            ... SPLIT-RIJ (Revised 2003 algorithm where possible)
Printlevel                                  ...      1
Contraction scheme used                     ... SEGMENTED contraction
Coulomb Range Separation                    ... NOT USED
Exchange Range Separation                   ... NOT USED
Finite Nucleus Model                        ... NOT USED
Auxiliary Coulomb fitting basis             ... AVAILABLE
   # of basis functions in Aux-J            ...    273
   # of shells in Aux-J                     ...     95
   Maximum angular momentum in Aux-J        ...      4
Auxiliary J/K fitting basis                 ... NOT available
Auxiliary Correlation fitting basis         ... NOT available
Auxiliary 'external' fitting basis          ... NOT available
Integral threshold                          ...     2.500000e-11
Primitive cut-off                           ...     2.500000e-12
Primitive pair pre-selection threshold      ...     2.500000e-12

Calculating pre-screening integrals         ... done (  0.0 sec) Dimension = 61
Organizing shell pair data                  ... done (  0.0 sec)
Shell pair information
Total number of shell pairs                 ...      1891
Shell pairs after pre-screening             ...      1884
Total number of primitive shell pairs       ...      5023
Primitive shell pairs kept                  ...      4397
          la=0 lb=0:    462 shell pairs
          la=1 lb=0:    686 shell pairs
          la=1 lb=1:    276 shell pairs
          la=2 lb=0:    240 shell pairs
          la=2 lb=1:    184 shell pairs
          la=2 lb=2:     36 shell pairs

Calculating one electron integrals          ... done (  0.0 sec)
Calculating RI/J V-Matrix + Cholesky decomp.... done (  0.0 sec)
Calculating Nuclear repulsion               ... done (  0.0 sec) ENN=    124.500900702216 Eh

SHARK setup successfully completed in   0.1 seconds

Maximum memory used throughout the entire GTOINT-calculation: 8.8 MB


           ************************************************************
           *        Program running with 4 parallel MPI-processes     *
           *              working on a common directory               *
           ************************************************************
-------------------------------------------------------------------------------
                                 ORCA SCF
-------------------------------------------------------------------------------

------------
SCF SETTINGS
------------
Hamiltonian:
 Density Functional     Method          .... DFT(GTOs)
 Exchange Functional    Exchange        .... PBE
   PBE kappa parameter   XKappa         ....  0.804000
   PBE mue parameter    XMuePBE         ....  0.219520
 Correlation Functional Correlation     .... PBE
   PBE beta parameter  CBetaPBE         ....  0.066725
 LDA part of GGA corr.  LDAOpt          .... PW91-LDA
 Gradients option       PostSCFGGA      .... off
   Density functional embedding theory  .... OFF
   NL short-range parameter             ....  6.400000
 RI-approximation to the Coulomb term is turned on
   Number of AuxJ basis functions       .... 273


General Settings:
 Integral files         IntName         .... 14Feb_SVPD_PBE_A_wt_wb97_typ1_neg
 Hartree-Fock type      HFTyp           .... RHF
 Total Charge           Charge          ....   -1
 Multiplicity           Mult            ....    1
 Number of Electrons    NEL             ....   34
 Basis Dimension        Dim             ....  139
 Nuclear Repulsion      ENuc            ....    124.5009007022 Eh

Convergence Acceleration:
 DIIS                   CNVDIIS         .... on
   Start iteration      DIISMaxIt       ....    12
   Startup error        DIISStart       ....  0.200000
   # of expansion vecs  DIISMaxEq       ....     5
   Bias factor          DIISBfac        ....   1.050
   Max. coefficient     DIISMaxC        ....  10.000
 Trust-Rad. Augm. Hess. CNVTRAH         .... auto
   Auto Start mean grad. ratio tolernc. ....  1.125000
   Auto Start start iteration           ....    20
   Auto Start num. interpolation iter.  ....    10
   Max. Number of Micro iterations      ....    16
   Max. Number of Macro iterations      .... Maxiter - #DIIS iter
   Number of Davidson start vectors     ....     2
   Converg. threshold I  (grad. norm)   ....   1.000e-05
   Converg. threshold II (energy diff.) ....   1.000e-08
   Grad. Scal. Fac. for Micro threshold ....   0.100
   Minimum threshold for Micro iter.    ....   0.010
   NR start threshold (gradient norm)   ....   0.001
   Initial trust radius                 ....   0.400
   Minimum AH scaling param. (alpha)    ....   1.000
   Maximum AH scaling param. (alpha)    .... 1000.000
   Orbital update algorithm             .... Taylor
   White noise on init. David. guess    .... on
   Maximum white noise                  ....   0.010
   Quad. conv. algorithm                .... NR
 SOSCF                  CNVSOSCF        .... on
   Start iteration      SOSCFMaxIt      ....   150
   Startup grad/error   SOSCFStart      ....  0.003300
 Level Shifting         CNVShift        .... on
   Level shift para.    LevelShift      ....    0.2500
   Turn off err/grad.   ShiftErr        ....    0.0010
 Zerner damping         CNVZerner       .... off
 Static damping         CNVDamp         .... on
   Fraction old density DampFac         ....    0.7000
   Max. Damping (<1)    DampMax         ....    0.9800
   Min. Damping (>=0)   DampMin         ....    0.0000
   Turn off err/grad.   DampErr         ....    0.1000
 Fernandez-Rico         CNVRico         .... off

SCF Procedure:
 Maximum # iterations   MaxIter         ....   150
 SCF integral mode      SCFMode         .... Direct
   Integral package                     .... SHARK and LIBINT hybrid scheme
 Reset frequency        DirectResetFreq ....    20
 Integral Threshold     Thresh          ....  2.500e-11 Eh
 Primitive CutOff       TCut            ....  2.500e-12 Eh

Convergence Tolerance:
 Convergence Check Mode ConvCheckMode   .... Total+1el-Energy
 Convergence forced     ConvForced      .... 0
 Energy Change          TolE            ....  1.000e-08 Eh
 1-El. energy change                    ....  1.000e-05 Eh
 Orbital Gradient       TolG            ....  1.000e-05
 Orbital Rotation angle TolX            ....  1.000e-05
 DIIS Error             TolErr          ....  5.000e-07


Diagonalization of the overlap matrix:
Smallest eigenvalue                        ... 2.223e-04
Time for diagonalization                   ...    0.006 sec
Threshold for overlap eigenvalues          ... 1.000e-08
Number of eigenvalues below threshold      ... 0
Time for construction of square roots      ...    0.005 sec
Total time needed                          ...    0.011 sec

Time for model grid setup =    0.057 sec

------------------------------
INITIAL GUESS: MODEL POTENTIAL
------------------------------
Loading Hartree-Fock densities                     ... done
Calculating cut-offs                               ... done
Initializing the effective Hamiltonian             ... done
Setting up the integral package (SHARK)            ... done
Starting the Coulomb interaction                   ... done (   0.0 sec)
Reading the grid                                   ... done
Mapping shells                                     ... done
Starting the XC term evaluation                    ... done (   0.0 sec)
  promolecular density results
     # of electrons  =     32.995342631
     EX              =    -25.503246964
     EC              =     -1.064335599
     EX+EC           =    -26.567582562
Transforming the Hamiltonian                       ... done (   0.0 sec)
Diagonalizing the Hamiltonian                      ... done (   0.0 sec)
Back transforming the eigenvectors                 ... done (   0.0 sec)
Now organizing SCF variables                       ... done
                      ------------------
                      INITIAL GUESS DONE (   0.1 sec)
                      ------------------
-------------------
DFT GRID GENERATION
-------------------

General Integration Accuracy     IntAcc      ... 4.388
Radial Grid Type                 RadialGrid  ... OptM3 with GC (2021)
Angular Grid (max. ang.)         AngularGrid ... 4 (Lebedev-302)
Angular grid pruning method      GridPruning ... 4 (adaptive)
Weight generation scheme         WeightScheme... Becke
Basis function cutoff            BFCut       ... 1.0000e-11
Integration weight cutoff        WCut        ... 1.0000e-14
Angular grids for H and He will be reduced by one unit
Partially contracted basis set               ... off
Rotationally invariant grid construction     ... off

Total number of grid points                  ...    48599
Total number of batches                      ...      766
Average number of points per batch           ...       63
Average number of grid points per atom       ...     4418
Time for grid setup =    0.274 sec

--------------
SCF ITERATIONS
--------------
ITER       Energy         Delta-E        Max-DP      RMS-DP      [F,P]     Damp
               ***  Starting incremental Fock matrix formation  ***
  0   -193.0564425242   0.000000000000 1.10154152  0.02147684  0.3427756 0.7000
  1   -193.2217120105  -0.165269486295 0.66858774  0.01417310  0.0822617 0.7000
                               ***Turning on DIIS***
  2   -193.2478753617  -0.026163351161 0.31366147  0.00899908  0.0591642 0.0000
  3   -193.3413020228  -0.093426661136 0.73002410  0.01496038  0.0552703 0.0000
  4   -193.3546934234  -0.013391400532 0.26140659  0.00584521  0.0692058 0.0000
  5   -193.3611927339  -0.006499310574 0.12262089  0.00280487  0.0243903 0.0000
  6   -193.3624793100  -0.001286576088 0.06041849  0.00142307  0.0126646 0.0000
                      *** Initiating the SOSCF procedure ***
                           *** Shutting down DIIS ***
                      *** Re-Reading the Fockian *** 
                      *** Removing any level shift *** 
ITER      Energy       Delta-E        Grad      Rot      Max-DP    RMS-DP
  7   -193.36283626  -0.0003569514  0.001355  0.001355  0.032737  0.000818
               *** Restarting incremental Fock matrix formation ***
  8   -193.36289293  -0.0000566645  0.000871  0.009613  0.046924  0.001505
  9   -193.36291096  -0.0000180295  0.000843  0.007276  0.031269  0.000979
 10   -193.36290492   0.0000060359  0.000986  0.007000  0.028424  0.000921
 11   -193.36292197  -0.0000170554  0.000190  0.000847  0.004558  0.000160
 12   -193.36292114   0.0000008365  0.000203  0.001435  0.006601  0.000213
 13   -193.36292425  -0.0000031118  0.000015  0.000147  0.000547  0.000018
 14   -193.36292425  -0.0000000012  0.000016  0.000025  0.000144  0.000005
 15   -193.36292426  -0.0000000101  0.000004  0.000050  0.000207  0.000006
                  ***Gradient check signals convergence***
              ***Rediagonalizing the Fockian in SOSCF/NRSCF***

               *****************************************************
               *                     SUCCESS                       *
               *           SCF CONVERGED AFTER  16 CYCLES          *
               *****************************************************


----------------
TOTAL SCF ENERGY
----------------

Total Energy       :         -193.36292426 Eh           -5261.67267 eV

Components:
Nuclear Repulsion  :          124.50090070 Eh            3387.84174 eV
Electronic Energy  :         -317.86382497 Eh           -8649.51441 eV
One Electron Energy:         -515.51217980 Eh          -14027.79957 eV
Two Electron Energy:          197.64835483 Eh            5378.28516 eV

Virial components:
Potential Energy   :         -384.86654688 Eh          -10472.75117 eV
Kinetic Energy     :          191.50362262 Eh            5211.07850 eV
Virial Ratio       :            2.00970896


DFT components:
N(Alpha)           :       17.000161009559 electrons
N(Beta)            :       17.000161009559 electrons
N(Total)           :       34.000322019117 electrons
E(X)               :      -26.292087594446 Eh       
E(C)               :       -1.100754168700 Eh       
E(XC)              :      -27.392841763146 Eh       
DFET-embed. en.    :        0.000000000000 Eh       

---------------
SCF CONVERGENCE
---------------

  Last Energy change         ...   -1.3524e-09  Tolerance :   1.0000e-08
  Last MAX-Density change    ...    5.6885e-05  Tolerance :   1.0000e-07
  Last RMS-Density change    ...    1.6792e-06  Tolerance :   5.0000e-09
  Last Orbital Gradient      ...    1.9716e-06  Tolerance :   1.0000e-05
  Last Orbital Rotation      ...    1.3508e-05  Tolerance :   1.0000e-05

             **** THE GBW FILE WAS UPDATED (14Feb_SVPD_PBE_A_wt_wb97_typ1_neg.gbw) ****
             **** DENSITY 14Feb_SVPD_PBE_A_wt_wb97_typ1_neg.scfp WAS UPDATED ****
             **** ENERGY FILE WAS UPDATED (14Feb_SVPD_PBE_A_wt_wb97_typ1_neg.en.tmp) ****
             **** THE GBW FILE WAS UPDATED (14Feb_SVPD_PBE_A_wt_wb97_typ1_neg.gbw) ****
             **** DENSITY 14Feb_SVPD_PBE_A_wt_wb97_typ1_neg.scfp WAS UPDATED ****
----------------
ORBITAL ENERGIES
----------------

  NO   OCC          E(Eh)            E(eV) 
   0   2.0000     -18.448384      -502.0061 
   1   2.0000      -9.713418      -264.3155 
   2   2.0000      -9.709848      -264.2184 
   3   2.0000      -9.705780      -264.1077 
   4   2.0000      -0.601970       -16.3804 
   5   2.0000      -0.504593       -13.7307 
   6   2.0000      -0.398159       -10.8345 
   7   2.0000      -0.300929        -8.1887 
   8   2.0000      -0.226968        -6.1761 
   9   2.0000      -0.216962        -5.9038 
  10   2.0000      -0.168760        -4.5922 
  11   2.0000      -0.146075        -3.9749 
  12   2.0000      -0.120639        -3.2828 
  13   2.0000      -0.107799        -2.9334 
  14   2.0000      -0.075625        -2.0579 
  15   2.0000       0.059896         1.6299 
  16   2.0000       0.065201         1.7742 
  17   0.0000       0.150257         4.0887 
  18   0.0000       0.174428         4.7464 
  19   0.0000       0.190817         5.1924 
  20   0.0000       0.211130         5.7451 
  21   0.0000       0.231481         6.2989 
  22   0.0000       0.242551         6.6001 
  23   0.0000       0.251743         6.8503 
  24   0.0000       0.260325         7.0838 
  25   0.0000       0.265087         7.2134 
  26   0.0000       0.292831         7.9683 
  27   0.0000       0.301508         8.2045 
  28   0.0000       0.307746         8.3742 
  29   0.0000       0.312859         8.5133 
  30   0.0000       0.328644         8.9428 
  31   0.0000       0.333880         9.0853 
  32   0.0000       0.340028         9.2526 
  33   0.0000       0.374054        10.1785 
  34   0.0000       0.387177        10.5356 
  35   0.0000       0.415019        11.2932 
  36   0.0000       0.428510        11.6604 
  37   0.0000       0.435435        11.8488 
  38   0.0000       0.440899        11.9975 
  39   0.0000       0.460007        12.5174 
  40   0.0000       0.469947        12.7879 
  41   0.0000       0.476608        12.9692 
  42   0.0000       0.479908        13.0590 
  43   0.0000       0.483685        13.1617 
  44   0.0000       0.492263        13.3952 
  45   0.0000       0.501137        13.6366 
  46   0.0000       0.510586        13.8937 
  47   0.0000       0.521665        14.1952 
  48   0.0000       0.524584        14.2746 
  49   0.0000       0.528775        14.3887 
  50   0.0000       0.545926        14.8554 
  51   0.0000       0.548217        14.9177 
  52   0.0000       0.572005        15.5651 
  53   0.0000       0.583088        15.8666 
  54   0.0000       0.591771        16.1029 
  55   0.0000       0.612162        16.6578 
  56   0.0000       0.623894        16.9770 
  57   0.0000       0.624672        16.9982 
  58   0.0000       0.629744        17.1362 
  59   0.0000       0.642487        17.4830 
  60   0.0000       0.661280        17.9943 
  61   0.0000       0.678374        18.4595 
  62   0.0000       0.681132        18.5345 
  63   0.0000       0.693735        18.8775 
  64   0.0000       0.695139        18.9157 
  65   0.0000       0.714163        19.4334 
  66   0.0000       0.721279        19.6270 
  67   0.0000       0.734433        19.9849 
  68   0.0000       0.766241        20.8505 
  69   0.0000       0.777164        21.1477 
  70   0.0000       0.826565        22.4920 
  71   0.0000       0.848926        23.1005 
  72   0.0000       0.880791        23.9675 
  73   0.0000       0.912281        24.8244 
  74   0.0000       0.931195        25.3391 
  75   0.0000       0.974278        26.5115 
  76   0.0000       1.011267        27.5180 
  77   0.0000       1.033837        28.1321 
  78   0.0000       1.070872        29.1399 
  79   0.0000       1.095641        29.8139 
  80   0.0000       1.106742        30.1160 
  81   0.0000       1.134357        30.8674 
  82   0.0000       1.139410        31.0049 
  83   0.0000       1.148208        31.2443 
  84   0.0000       1.163670        31.6651 
  85   0.0000       1.204211        32.7682 
  86   0.0000       1.240692        33.7609 
  87   0.0000       1.282214        34.8908 
  88   0.0000       1.297666        35.3113 
  89   0.0000       1.361019        37.0352 
  90   0.0000       1.406680        38.2777 
  91   0.0000       1.408507        38.3274 
  92   0.0000       1.434052        39.0225 
  93   0.0000       1.489981        40.5444 
  94   0.0000       1.664220        45.2857 
  95   0.0000       1.688323        45.9416 
  96   0.0000       1.711981        46.5854 
  97   0.0000       1.720703        46.8227 
  98   0.0000       1.745791        47.5054 
  99   0.0000       1.761346        47.9287 
 100   0.0000       1.801761        49.0284 
 101   0.0000       1.825712        49.6802 
 102   0.0000       1.857594        50.5477 
 103   0.0000       1.935094        52.6566 
 104   0.0000       1.969731        53.5991 
 105   0.0000       1.998143        54.3722 
 106   0.0000       2.028338        55.1939 
 107   0.0000       2.083520        56.6955 
 108   0.0000       2.094127        56.9841 
 109   0.0000       2.113519        57.5118 
 110   0.0000       2.139960        58.2313 
 111   0.0000       2.164116        58.8886 
 112   0.0000       2.181925        59.3732 
 113   0.0000       2.198968        59.8370 
 114   0.0000       2.238174        60.9038 
 115   0.0000       2.314651        62.9849 
 116   0.0000       2.324507        63.2530 
 117   0.0000       2.388201        64.9863 
 118   0.0000       2.437168        66.3187 
 119   0.0000       2.481613        67.5281 
 120   0.0000       2.545155        69.2572 
 121   0.0000       2.593023        70.5597 
 122   0.0000       2.641268        71.8725 
 123   0.0000       2.683000        73.0082 
 124   0.0000       2.759493        75.0896 
 125   0.0000       2.789913        75.9174 
 126   0.0000       2.814410        76.5840 
 127   0.0000       2.942870        80.0796 
 128   0.0000       3.059398        83.2504 
 129   0.0000       3.074869        83.6714 
 130   0.0000       3.117861        84.8413 
 131   0.0000       3.153817        85.8197 
 132   0.0000       3.188155        86.7541 
 133   0.0000       3.233205        87.9800 
 134   0.0000       3.254494        88.5593 
 135   0.0000       3.294164        89.6387 
 136   0.0000       3.362797        91.5064 
 137   0.0000       3.364852        91.5623 
 138   0.0000       3.739613       101.7600 

                    ********************************
                    * MULLIKEN POPULATION ANALYSIS *
                    ********************************

-----------------------
MULLIKEN ATOMIC CHARGES
-----------------------
   0 C :    0.620062
   1 C :   -0.618814
   2 H :   -0.062810
   3 C :    0.400787
   4 H :   -0.036316
   5 O :   -0.833946
   6 H :   -0.171909
   7 H :   -0.099597
   8 H :   -0.113291
   9 H :   -0.012525
  10 H :   -0.071643
Sum of atomic charges:   -1.0000000

--------------------------------
MULLIKEN REDUCED ORBITAL CHARGES
--------------------------------
  0 C s       :     2.490661  s :     2.490661
      pz      :     0.885562  p :     2.738687
      px      :     0.958538
      py      :     0.894587
      dz2     :     0.053990  d :     0.150590
      dxz     :     0.017665
      dyz     :     0.017069
      dx2y2   :     0.015168
      dxy     :     0.046698
  1 C s       :     3.000749  s :     3.000749
      pz      :     1.061142  p :     2.994919
      px      :     1.004480
      py      :     0.929297
      dz2     :     0.229142  d :     0.623145
      dxz     :     0.094276
      dyz     :     0.119982
      dx2y2   :     0.059569
      dxy     :     0.120176
  2 H s       :     0.995297  s :     0.995297
      pz      :     0.004297  p :     0.067513
      px      :     0.024651
      py      :     0.038565
  3 C s       :     2.896607  s :     2.896607
      pz      :     0.867953  p :     2.528733
      px      :     0.817478
      py      :     0.843302
      dz2     :     0.008085  d :     0.173873
      dxz     :     0.045873
      dyz     :     0.050464
      dx2y2   :     0.012174
      dxy     :     0.057277
  4 H s       :     0.990751  s :     0.990751
      pz      :    -0.017684  p :     0.045564
      px      :     0.019572
      py      :     0.043677
  5 O s       :     3.863393  s :     3.863393
      pz      :     1.779418  p :     4.933211
      px      :     1.499462
      py      :     1.654331
      dz2     :     0.005977  d :     0.037342
      dxz     :     0.003985
      dyz     :     0.005815
      dx2y2   :     0.015555
      dxy     :     0.006010
  6 H s       :     1.063487  s :     1.063487
      pz      :     0.022589  p :     0.108423
      px      :     0.091056
      py      :    -0.005222
  7 H s       :     0.989190  s :     0.989190
      pz      :    -0.001383  p :     0.110406
      px      :     0.001128
      py      :     0.110661
  8 H s       :     1.074949  s :     1.074949
      pz      :     0.031854  p :     0.038341
      px      :     0.033223
      py      :    -0.026736
  9 H s       :     0.938827  s :     0.938827
      pz      :     0.027218  p :     0.073698
      px      :     0.002576
      py      :     0.043904
 10 H s       :     1.013711  s :     1.013711
      pz      :    -0.017635  p :     0.057931
      px      :     0.008758
      py      :     0.066809


                     *******************************
                     * LOEWDIN POPULATION ANALYSIS *
                     *******************************

----------------------
LOEWDIN ATOMIC CHARGES
----------------------
   0 C :    0.077427
   1 C :   -0.120492
   2 H :   -0.015784
   3 C :   -0.227797
   4 H :   -0.005572
   5 O :   -0.512916
   6 H :   -0.039993
   7 H :   -0.033373
   8 H :   -0.052134
   9 H :   -0.036977
  10 H :   -0.032388

-------------------------------
LOEWDIN REDUCED ORBITAL CHARGES
-------------------------------
  0 C s       :     2.717638  s :     2.717638
      pz      :     0.903620  p :     2.757748
      px      :     0.923060
      py      :     0.931067
      dz2     :     0.108920  d :     0.447188
      dxz     :     0.101196
      dyz     :     0.066882
      dx2y2   :     0.046659
      dxy     :     0.123531
  1 C s       :     2.729558  s :     2.729558
      pz      :     0.902277  p :     2.689372
      px      :     0.886017
      py      :     0.901078
      dz2     :     0.180392  d :     0.701562
      dxz     :     0.159049
      dyz     :     0.127772
      dx2y2   :     0.068020
      dxy     :     0.166329
  2 H s       :     0.743699  s :     0.743699
      pz      :     0.077014  p :     0.272086
      px      :     0.091218
      py      :     0.103853
  3 C s       :     2.712561  s :     2.712561
      pz      :     0.856381  p :     2.568974
      px      :     0.857380
      py      :     0.855212
      dz2     :     0.171052  d :     0.946263
      dxz     :     0.239133
      dyz     :     0.130473
      dx2y2   :     0.253123
      dxy     :     0.152482
  4 H s       :     0.735675  s :     0.735675
      pz      :     0.068741  p :     0.269897
      px      :     0.087763
      py      :     0.113393
  5 O s       :     3.523561  s :     3.523561
      pz      :     1.642465  p :     4.728049
      px      :     1.519558
      py      :     1.566026
      dz2     :     0.042390  d :     0.261305
      dxz     :     0.055310
      dyz     :     0.032593
      dx2y2   :     0.076911
      dxy     :     0.054100
  6 H s       :     0.755841  s :     0.755841
      pz      :     0.087572  p :     0.284152
      px      :     0.127678
      py      :     0.068902
  7 H s       :     0.752139  s :     0.752139
      pz      :     0.070268  p :     0.281234
      px      :     0.068822
      py      :     0.142145
  8 H s       :     0.755309  s :     0.755309
      pz      :     0.119302  p :     0.296825
      px      :     0.090697
      py      :     0.086826
  9 H s       :     0.724544  s :     0.724544
      pz      :     0.114975  p :     0.312433
      px      :     0.088025
      py      :     0.109433
 10 H s       :     0.742700  s :     0.742700
      pz      :     0.077535  p :     0.289688
      px      :     0.093017
      py      :     0.119136


                      *****************************
                      * MAYER POPULATION ANALYSIS *
                      *****************************

  NA   - Mulliken gross atomic population
  ZA   - Total nuclear charge
  QA   - Mulliken gross atomic charge
  VA   - Mayer's total valence
  BVA  - Mayer's bonded valence
  FA   - Mayer's free valence

  ATOM       NA         ZA         QA         VA         BVA        FA
  0 C      5.3799     6.0000     0.6201     4.0276     4.0276     0.0000
  1 C      6.6188     6.0000    -0.6188     5.5555     5.5555     0.0000
  2 H      1.0628     1.0000    -0.0628     1.1434     1.1434     0.0000
  3 C      5.5992     6.0000     0.4008     4.3853     4.3853    -0.0000
  4 H      1.0363     1.0000    -0.0363     1.0546     1.0546     0.0000
  5 O      8.8339     8.0000    -0.8339     1.2883     1.2883    -0.0000
  6 H      1.1719     1.0000    -0.1719     1.2367     1.2367     0.0000
  7 H      1.0996     1.0000    -0.0996     1.2196     1.2196     0.0000
  8 H      1.1133     1.0000    -0.1133     1.0497     1.0497     0.0000
  9 H      1.0125     1.0000    -0.0125     1.1154     1.1154     0.0000
 10 H      1.0716     1.0000    -0.0716     1.1033     1.1033     0.0000

  Mayer bond orders larger than 0.100000
B(  0-C ,  1-C ) :   1.3106 B(  0-C ,  4-H ) :   0.1025 B(  0-C ,  8-H ) :   0.7917 
B(  0-C ,  9-H ) :   0.8097 B(  0-C , 10-H ) :   0.8212 B(  1-C ,  2-H ) :   1.0155 
B(  1-C ,  3-C ) :   1.0722 B(  1-C ,  4-H ) :   0.9543 B(  1-C ,  5-O ) :   0.1934 
B(  1-C ,  6-H ) :   0.1721 B(  1-C ,  7-H ) :   0.1748 B(  1-C ,  8-H ) :   0.2206 
B(  1-C ,  9-H ) :   0.2195 B(  1-C , 10-H ) :   0.2227 B(  2-H ,  3-C ) :   0.1128 
B(  3-C ,  4-H ) :   0.1112 B(  3-C ,  5-O ) :   1.1286 B(  3-C ,  6-H ) :   0.9521 
B(  3-C ,  7-H ) :   0.9400 B(  6-H ,  7-H ) :   0.1131 

-------
TIMINGS
-------

Total SCF time: 0 days 0 hours 0 min 3 sec 

Total time                  ....       3.832 sec
Sum of individual times     ....       3.687 sec  ( 96.2%)

Fock matrix formation       ....       3.164 sec  ( 82.6%)
  Split-RI-J                ....       0.588 sec  ( 18.6% of F)
  XC integration            ....       2.546 sec  ( 80.5% of F)
    Basis function eval.    ....       0.884 sec  ( 34.7% of XC)
    Density eval.           ....       0.568 sec  ( 22.3% of XC)
    XC-Functional eval.     ....       0.183 sec  (  7.2% of XC)
    XC-Potential eval.      ....       0.798 sec  ( 31.4% of XC)
Diagonalization             ....       0.044 sec  (  1.2%)
Density matrix formation    ....       0.003 sec  (  0.1%)
Population analysis         ....       0.004 sec  (  0.1%)
Initial guess               ....       0.073 sec  (  1.9%)
Orbital Transformation      ....       0.000 sec  (  0.0%)
Orbital Orthonormalization  ....       0.000 sec  (  0.0%)
DIIS solution               ....       0.034 sec  (  0.9%)
SOSCF solution              ....       0.034 sec  (  0.9%)
Grid generation             ....       0.331 sec  (  8.6%)

Maximum memory used throughout the entire SCF-calculation: 15.9 MB


-------------------------------------------------------------------------------
                          DFT DISPERSION CORRECTION                            
                                                                               
                              DFTD3 V3.1  Rev 1                                
                          USING Becke-Johnson damping                          
-------------------------------------------------------------------------------
The PBE functional is recognized
Active option DFTDOPT                   ...         4   

molecular C6(AA) [au] = 819.288469 


            DFT-D V3
 parameters
 s6 scaling factor         :     1.0000 
 a1 scaling factor         :     0.4289 
 s8 scaling factor         :     0.7875 
 a2 scaling factor         :     4.4407 
 ad hoc parameters k1-k3   :    16.0000     1.3333    -4.0000 

 Edisp/kcal,au: -4.165433639697  -0.006638040329 
 E6   /kcal   :  -3.021814494 
 E8   /kcal   :  -1.143619145 
 % E8         :  27.454984142 

-------------------------   ----------------
Dispersion correction           -0.006638040
-------------------------   ----------------


-------------------------   --------------------
FINAL SINGLE POINT ENERGY      -193.369562303210
-------------------------   --------------------


                            ***************************************
                            *     ORCA property calculations      *
                            ***************************************

                                    ---------------------
                                    Active property flags
                                    ---------------------
   (+) Dipole Moment


------------------------------------------------------------------------------
                       ORCA ELECTRIC PROPERTIES CALCULATION
------------------------------------------------------------------------------

Dipole Moment Calculation                       ... on
Quadrupole Moment Calculation                   ... off
Polarizability Calculation                      ... off
GBWName                                         ... 14Feb_SVPD_PBE_A_wt_wb97_typ1_neg.gbw
Electron density file                           ... 14Feb_SVPD_PBE_A_wt_wb97_typ1_neg.scfp
The origin for moment calculation is the CENTER OF MASS  = (-2.074765, -4.785292 -5.810817)

-------------
DIPOLE MOMENT
-------------
                                X             Y             Z
Electronic contribution:      1.38751      -0.60596       2.64287
Nuclear contribution   :     -2.20255       0.75707      -4.26861
                        -----------------------------------------
Total Dipole Moment    :     -0.81504       0.15111      -1.62575
                        -----------------------------------------
Magnitude (a.u.)       :      1.82488
Magnitude (Debye)      :      4.63847



--------------------
Rotational spectrum 
--------------------
 
Rotational constants in cm-1:     0.480704     0.187939     0.150770 
Rotational constants in MHz : 14411.155440  5634.276828  4519.982802 

 Dipole components along the rotational axes: 
x,y,z [a.u.] :    -1.708767     0.632832    -0.099074 
x,y,z [Debye]:    -4.343340     1.608532    -0.251827 

 

Timings for individual modules:

Sum of individual times         ...        4.397 sec (=   0.073 min)
GTO integral calculation        ...        0.359 sec (=   0.006 min)   8.2 %
SCF iterations                  ...        4.038 sec (=   0.067 min)  91.8 %
                             ****ORCA TERMINATED NORMALLY****
TOTAL RUN TIME: 0 days 0 hours 0 minutes 4 seconds 773 msec
