
                                        *****************
                                        * O   R   C   A *
                                        *****************

                                            #,                                       
                                            ###                                      
                                            ####                                     
                                            #####                                    
                                            ######                                   
                                           ########,                                 
                                     ,,################,,,,,                         
                               ,,#################################,,                 
                          ,,##########################################,,             
                       ,#########################################, ''#####,          
                    ,#############################################,,   '####,        
                  ,##################################################,,,,####,       
                ,###########''''           ''''###############################       
              ,#####''   ,,,,##########,,,,          '''####'''          '####       
            ,##' ,,,,###########################,,,                        '##       
           ' ,,###''''                  '''############,,,                           
         ,,##''                                '''############,,,,        ,,,,,,###''
      ,#''                                            '''#######################'''  
     '                                                          ''''####''''         
             ,#######,   #######,   ,#######,      ##                                
            ,#'     '#,  ##    ##  ,#'     '#,    #''#        ######   ,####,        
            ##       ##  ##   ,#'  ##            #'  '#       #        #'  '#        
            ##       ##  #######   ##           ,######,      #####,   #    #        
            '#,     ,#'  ##    ##  '#,     ,#' ,#      #,         ##   #,  ,#        
             '#######'   ##     ##  '#######'  #'      '#     #####' # '####'        



                  #######################################################
                  #                        -***-                        #
                  #          Department of theory and spectroscopy      #
                  #    Directorship and core code : Frank Neese         #
                  #        Max Planck Institute fuer Kohlenforschung    #
                  #                Kaiser Wilhelm Platz 1               #
                  #                 D-45470 Muelheim/Ruhr               #
                  #                      Germany                        #
                  #                                                     #
                  #                  All rights reserved                #
                  #                        -***-                        #
                  #######################################################


                         Program Version 5.0.0 -  RELEASE  -
                                (SVN: $Rev: 19529$)
                ($Date: 2021-06-28 11:36:33 +0200 (Mo, 28 Jun 2021) $)


 With contributions from (in alphabetic order):
   Daniel Aravena         : Magnetic Suceptibility
   Michael Atanasov       : Ab Initio Ligand Field Theory (pilot matlab implementation)
   Alexander A. Auer      : GIAO ZORA, VPT2 properties, NMR spectrum
   Ute Becker             : Parallelization
   Giovanni Bistoni       : ED, misc. LED, open-shell LED, HFLD
   Martin Brehm           : Molecular dynamics
   Dmytro Bykov           : SCF Hessian
   Vijay G. Chilkuri      : MRCI spin determinant printing, contributions to CSF-ICE
   Dipayan Datta          : RHF DLPNO-CCSD density
   Achintya Kumar Dutta   : EOM-CC, STEOM-CC
   Dmitry Ganyushin       : Spin-Orbit,Spin-Spin,Magnetic field MRCI
   Miquel Garcia          : C-PCM Hessian, Gaussian charge scheme
   Yang Guo               : DLPNO-NEVPT2, F12-NEVPT2, CIM, IAO-localization
   Andreas Hansen         : Spin unrestricted coupled pair/coupled cluster methods
   Benjamin Helmich-Paris : MC-RPA, TRAH-SCF, COSX integrals
   Lee Huntington         : MR-EOM, pCC
   Robert Izsak           : Overlap fitted RIJCOSX, COSX-SCS-MP3, EOM
   Marcus Kettner         : VPT2
   Christian Kollmar      : KDIIS, OOCD, Brueckner-CCSD(T), CCSD density, CASPT2, CASPT2-K
   Simone Kossmann        : Meta GGA functionals, TD-DFT gradient, OOMP2, MP2 Hessian
   Martin Krupicka        : Initial AUTO-CI
   Lucas Lang             : DCDCAS
   Marvin Lechner         : AUTO-CI (C++ implementation), FIC-MRCC
   Dagmar Lenk            : GEPOL surface, SMD
   Dimitrios Liakos       : Extrapolation schemes; Compound Job, initial MDCI parallelization
   Dimitrios Manganas     : Further ROCIS development; embedding schemes
   Dimitrios Pantazis     : SARC Basis sets
   Anastasios Papadopoulos: AUTO-CI, single reference methods and gradients
   Taras Petrenko         : DFT Hessian,TD-DFT gradient, ASA, ECA, R-Raman, ABS, FL, XAS/XES, NRVS
   Peter Pinski           : DLPNO-MP2, DLPNO-MP2 Gradient
   Christoph Reimann      : Effective Core Potentials
   Marius Retegan         : Local ZFS, SOC
   Christoph Riplinger    : Optimizer, TS searches, QM/MM, DLPNO-CCSD(T), (RO)-DLPNO pert. Triples
   Tobias Risthaus        : Range-separated hybrids, TD-DFT gradient, RPA, STAB
   Michael Roemelt        : Original ROCIS implementation
   Masaaki Saitow         : Open-shell DLPNO-CCSD energy and density
   Barbara Sandhoefer     : DKH picture change effects
   Avijit Sen             : IP-ROCIS
   Kantharuban Sivalingam : CASSCF convergence, NEVPT2, FIC-MRCI
   Bernardo de Souza      : ESD, SOC TD-DFT
   Georgi Stoychev        : AutoAux, RI-MP2 NMR
   Willem Van den Heuvel  : Paramagnetic NMR
   Boris Wezisla          : Elementary symmetry handling
   Frank Wennmohs         : Technical directorship


 We gratefully acknowledge several colleagues who have allowed us to
 interface, adapt or use parts of their codes:
   Stefan Grimme, W. Hujo, H. Kruse, P. Pracht,  : VdW corrections, initial TS optimization,
                  C. Bannwarth, S. Ehlert          DFT functionals, gCP, sTDA/sTD-DF
   Ed Valeev, F. Pavosevic, A. Kumar             : LibInt (2-el integral package), F12 methods
   Garnet Chan, S. Sharma, J. Yang, R. Olivares  : DMRG
   Ulf Ekstrom                                   : XCFun DFT Library
   Mihaly Kallay                                 : mrcc  (arbitrary order and MRCC methods)
   Jiri Pittner, Ondrej Demel                    : Mk-CCSD
   Frank Weinhold                                : gennbo (NPA and NBO analysis)
   Christopher J. Cramer and Donald G. Truhlar   : smd solvation model
   Lars Goerigk                                  : TD-DFT with DH, B97 family of functionals
   V. Asgeirsson, H. Jonsson                     : NEB implementation
   FAccTs GmbH                                   : IRC, NEB, NEB-TS, DLPNO-Multilevel, CI-OPT
                                                   MM, QMMM, 2- and 3-layer-ONIOM, Crystal-QMMM,
                                                   LR-CPCM, SF, NACMEs, symmetry and pop. for TD-DFT,
                                                   nearIR, NL-DFT gradient (VV10), updates on ESD,
                                                   ML-optimized integration grids
   S Lehtola, MJT Oliveira, MAL Marques          : LibXC Library
   Liviu Ungur et al                             : ANISO software


 Your calculation uses the libint2 library for the computation of 2-el integrals
 For citations please refer to: http://libint.valeyev.net

 Your ORCA version has been built with support for libXC version: 5.1.0
 For citations please refer to: https://tddft.org/programs/libxc/

 This ORCA versions uses:
   CBLAS   interface :  Fast vector & matrix operations
   LAPACKE interface :  Fast linear algebra routines
   SCALAPACK package :  Parallel linear algebra routines
   Shared memory     :  Shared parallel matrices
   BLAS/LAPACK       :  OpenBLAS 0.3.15  USE64BITINT DYNAMIC_ARCH NO_AFFINITY Haswell SINGLE_THREADED
        Core in use  :  Haswell
   Copyright (c) 2011-2014, The OpenBLAS Project


XCFun DFT library Copyright 2009-2010 Ulf Ekstrom and contributors.
See http://admol.org/xcfun for more information.
This is free software; see the source code for copying conditions.
There is ABSOLUTELY NO WARRANTY; not even for MERCHANTABILITY or FITNESS FOR A PARTICULAR PURPOSE.
For details see the documentation.
Scientific users of this library should cite U. Ekstrom, L. Visscher, R. Bast, A. J. Thorvaldsen and K. Ruud;
J.Chem.Theor.Comp. 2010, DOI: 10.1021/ct100117s
XCFun Version 0.99 

================================================================================

----- Orbital basis set information -----
Your calculation utilizes the basis: def2-SVPD
   F. Weigend and R. Ahlrichs, Phys. Chem. Chem. Phys. 7, 3297 (2005).
   D. Rappoport and F. Furche, J. Chem. Phys. 133 134105 (2010).

----- AuxJ basis set information -----
Your calculation utilizes the auxiliary basis: def2/J
   F. Weigend, Phys. Chem. Chem. Phys. 8, 1057 (2006).

================================================================================
                                        WARNINGS
                       Please study these warnings very carefully!
================================================================================


INFO   : the flag for use of the SHARK integral package has been found!

================================================================================
                                       INPUT FILE
================================================================================
NAME = 18Feb_SVPD_LC_BLYP_A_wt_wb97_typm1_neg.com
|  1> !LC-BLYP RIJCOSX def2-SVPD def2/J TightSCF 
|  2> *xyz -1 1 
|  3> C         -0.71189        0.84252       -4.21834
|  4> C         -0.39762       -0.20587       -5.28802
|  5> O          0.61717       -0.00535       -5.99827
|  6> O         -1.13317       -1.22138       -5.34147
|  7> H         -0.00939        1.64646       -4.28960
|  8> H         -0.64409        0.39449       -3.24902
|  9> H         -1.70192        1.21961       -4.36851
| 10> *
| 11> 
| 12> %MaxCore 64000
| 13> 
| 14> %pal nprocs 4
| 15> end  
| 16> 
| 17> %scf
| 18>   MaxIter 150
| 19> end
| 20> 
| 21> 
| 22>                          ****END OF INPUT****
================================================================================

                       ****************************
                       * Single Point Calculation *
                       ****************************

---------------------------------
CARTESIAN COORDINATES (ANGSTROEM)
---------------------------------
  C     -0.711890    0.842520   -4.218340
  C     -0.397620   -0.205870   -5.288020
  O      0.617170   -0.005350   -5.998270
  O     -1.133170   -1.221380   -5.341470
  H     -0.009390    1.646460   -4.289600
  H     -0.644090    0.394490   -3.249020
  H     -1.701920    1.219610   -4.368510

----------------------------
CARTESIAN COORDINATES (A.U.)
----------------------------
  NO LB      ZA    FRAG     MASS         X           Y           Z
   0 C     6.0000    0    12.011   -1.345277    1.592132   -7.971507
   1 C     6.0000    0    12.011   -0.751393   -0.389038   -9.992910
   2 O     8.0000    0    15.999    1.166282   -0.010110  -11.335088
   3 O     8.0000    0    15.999   -2.141381   -2.308074  -10.093915
   4 H     1.0000    0     1.008   -0.017745    3.111358   -8.106169
   5 H     1.0000    0     1.008   -1.217154    0.745478   -6.139758
   6 H     1.0000    0     1.008   -3.216163    2.304729   -8.255288

--------------------------------
INTERNAL COORDINATES (ANGSTROEM)
--------------------------------
 C      0   0   0     0.000000000000     0.00000000     0.00000000
 C      1   0   0     1.530392932354     0.00000000     0.00000000
 O      2   1   0     1.254775707846   116.88744745     0.00000000
 O      2   1   3     1.255050303813   117.62698629   176.69010279
 H      1   2   3     1.070001757569   109.47127787     3.30993646
 H      1   2   3     1.070004197796   109.47130423   243.30997867
 H      1   2   3     1.070003410228   109.47116059   123.31006799

---------------------------
INTERNAL COORDINATES (A.U.)
---------------------------
 C      0   0   0     0.000000000000     0.00000000     0.00000000
 C      1   0   0     2.892023519438     0.00000000     0.00000000
 O      2   1   0     2.371182447326   116.88744745     0.00000000
 O      2   1   3     2.371701358500   117.62698629   176.69010279
 H      1   2   3     2.022010284619   109.47127787     3.30993646
 H      1   2   3     2.022014895980   109.47130423   243.30997867
 H      1   2   3     2.022013407693   109.47116059   123.31006799

---------------------
BASIS SET INFORMATION
---------------------
There are 3 groups of distinct atoms

 Group   1 Type C   : 8s4p2d contracted to 4s2p2d pattern {5111/31/11}
 Group   2 Type O   : 8s5p2d contracted to 4s3p2d pattern {5111/311/11}
 Group   3 Type H   : 4s2p contracted to 2s2p pattern {31/11}

Atom   0C    basis set group =>   1
Atom   1C    basis set group =>   1
Atom   2O    basis set group =>   2
Atom   3O    basis set group =>   2
Atom   4H    basis set group =>   3
Atom   5H    basis set group =>   3
Atom   6H    basis set group =>   3
---------------------------------
AUXILIARY/J BASIS SET INFORMATION
---------------------------------
There are 3 groups of distinct atoms

 Group   1 Type C   : 12s5p4d2f1g contracted to 6s4p3d1f1g pattern {711111/2111/211/2/1}
 Group   2 Type O   : 12s5p4d2f1g contracted to 6s4p3d1f1g pattern {711111/2111/211/2/1}
 Group   3 Type H   : 5s2p1d contracted to 3s1p1d pattern {311/2/1}

Atom   0C    basis set group =>   1
Atom   1C    basis set group =>   1
Atom   2O    basis set group =>   2
Atom   3O    basis set group =>   2
Atom   4H    basis set group =>   3
Atom   5H    basis set group =>   3
Atom   6H    basis set group =>   3


           ************************************************************
           *        Program running with 4 parallel MPI-processes     *
           *              working on a common directory               *
           ************************************************************
------------------------------------------------------------------------------
                           ORCA GTO INTEGRAL CALCULATION
                           -- RI-GTO INTEGRALS CHOSEN --
------------------------------------------------------------------------------
------------------------------------------------------------------------------
                   ___                                                        
                  /   \      - P O W E R E D   B Y -                         
                 /     \                                                     
                 |  |  |   _    _      __       _____    __    __             
                 |  |  |  | |  | |    /  \     |  _  \  |  |  /  |          
                  \  \/   | |  | |   /    \    | | | |  |  | /  /          
                 / \  \   | |__| |  /  /\  \   | |_| |  |  |/  /          
                |  |  |   |  __  | /  /__\  \  |    /   |      \           
                |  |  |   | |  | | |   __   |  |    \   |  |\   \          
                \     /   | |  | | |  |  |  |  | |\  \  |  | \   \       
                 \___/    |_|  |_| |__|  |__|  |_| \__\ |__|  \__/        
                                                                              
                      - O R C A' S   B I G   F R I E N D -                    
                                      &                                       
                       - I N T E G R A L  F E E D E R -                       
                                                                              
 v1 FN, 2020, v2 2021                                                         
------------------------------------------------------------------------------


Reading SHARK input file 18Feb_SVPD_LC_BLYP_A_wt_wb97_typm1_neg.SHARKINP.tmp ... ok
----------------------
SHARK INTEGRAL PACKAGE
----------------------

Number of atoms                             ...      7
Number of basis functions                   ...    110
Number of shells                            ...     46
Maximum angular momentum                    ...      2
Integral batch strategy                     ... SHARK/LIBINT Hybrid
RI-J (if used) integral strategy            ... SPLIT-RIJ (Revised 2003 algorithm where possible)
Printlevel                                  ...      1
Contraction scheme used                     ... SEGMENTED contraction
Coulomb Range Separation                    ... NOT USED
Exchange Range Separation                   ... Long Range
   Mu parameter                             ...  0.330000
   Scaling (regular/separated)              ...  0.000000  1.000000
Finite Nucleus Model                        ... NOT USED
Auxiliary Coulomb fitting basis             ... AVAILABLE
   # of basis functions in Aux-J            ...    229
   # of shells in Aux-J                     ...     75
   Maximum angular momentum in Aux-J        ...      4
Auxiliary J/K fitting basis                 ... NOT available
Auxiliary Correlation fitting basis         ... NOT available
Auxiliary 'external' fitting basis          ... NOT available
Integral threshold                          ...     2.500000e-11
Primitive cut-off                           ...     2.500000e-12
Primitive pair pre-selection threshold      ...     2.500000e-12

Calculating pre-screening integrals         ... done (  0.0 sec) Dimension = 46
Organizing shell pair data                  ... done (  0.0 sec)
Shell pair information
Total number of shell pairs                 ...      1081
Shell pairs after pre-screening             ...      1078
Total number of primitive shell pairs       ...      2987
Primitive shell pairs kept                  ...      2623
          la=0 lb=0:    250 shell pairs
          la=1 lb=0:    352 shell pairs
          la=1 lb=1:    136 shell pairs
          la=2 lb=0:    176 shell pairs
          la=2 lb=1:    128 shell pairs
          la=2 lb=2:     36 shell pairs

Calculating one electron integrals          ... done (  0.0 sec)
Calculating RI/J V-Matrix + Cholesky decomp.... done (  0.0 sec)
Calculating Nuclear repulsion               ... done (  0.0 sec) ENN=    112.631595539730 Eh

SHARK setup successfully completed in   0.1 seconds

Maximum memory used throughout the entire GTOINT-calculation: 8.8 MB


           ************************************************************
           *        Program running with 4 parallel MPI-processes     *
           *              working on a common directory               *
           ************************************************************
-------------------------------------------------------------------------------
                                 ORCA SCF
-------------------------------------------------------------------------------

------------
SCF SETTINGS
------------
Hamiltonian:
 Density Functional     Method          .... DFT(GTOs)
 Exchange Functional    Exchange        .... WB88
 Correlation Functional Correlation     .... LYP
 Gradients option       PostSCFGGA      .... off
   Density functional embedding theory  .... OFF
 Long-range corrected/Screened/Range-Separated Hybrid DFT is turned on
   Amount of maximum screened exact exchange              ....  1.000000
   Range separation parameter mu (erf(mu*r12)/r12)        ....  0.330000
 RI-approximation to the Coulomb term is turned on
   Number of AuxJ basis functions       .... 229
   RIJ-COSX (HFX calculated with COS-X)).... on


General Settings:
 Integral files         IntName         .... 18Feb_SVPD_LC_BLYP_A_wt_wb97_typm1_neg
 Hartree-Fock type      HFTyp           .... RHF
 Total Charge           Charge          ....   -1
 Multiplicity           Mult            ....    1
 Number of Electrons    NEL             ....   32
 Basis Dimension        Dim             ....  110
 Nuclear Repulsion      ENuc            ....    112.6315955397 Eh

Convergence Acceleration:
 DIIS                   CNVDIIS         .... on
   Start iteration      DIISMaxIt       ....    12
   Startup error        DIISStart       ....  0.200000
   # of expansion vecs  DIISMaxEq       ....     5
   Bias factor          DIISBfac        ....   1.050
   Max. coefficient     DIISMaxC        ....  10.000
 Trust-Rad. Augm. Hess. CNVTRAH         .... auto
   Auto Start mean grad. ratio tolernc. ....  1.125000
   Auto Start start iteration           ....    20
   Auto Start num. interpolation iter.  ....    10
   Max. Number of Micro iterations      ....    16
   Max. Number of Macro iterations      .... Maxiter - #DIIS iter
   Number of Davidson start vectors     ....     2
   Converg. threshold I  (grad. norm)   ....   1.000e-05
   Converg. threshold II (energy diff.) ....   1.000e-08
   Grad. Scal. Fac. for Micro threshold ....   0.100
   Minimum threshold for Micro iter.    ....   0.010
   NR start threshold (gradient norm)   ....   0.001
   Initial trust radius                 ....   0.400
   Minimum AH scaling param. (alpha)    ....   1.000
   Maximum AH scaling param. (alpha)    .... 1000.000
   Orbital update algorithm             .... Taylor
   White noise on init. David. guess    .... on
   Maximum white noise                  ....   0.010
   Quad. conv. algorithm                .... NR
 SOSCF                  CNVSOSCF        .... on
   Start iteration      SOSCFMaxIt      ....   150
   Startup grad/error   SOSCFStart      ....  0.003300
 Level Shifting         CNVShift        .... on
   Level shift para.    LevelShift      ....    0.2500
   Turn off err/grad.   ShiftErr        ....    0.0010
 Zerner damping         CNVZerner       .... off
 Static damping         CNVDamp         .... on
   Fraction old density DampFac         ....    0.7000
   Max. Damping (<1)    DampMax         ....    0.9800
   Min. Damping (>=0)   DampMin         ....    0.0000
   Turn off err/grad.   DampErr         ....    0.1000
 Fernandez-Rico         CNVRico         .... off

SCF Procedure:
 Maximum # iterations   MaxIter         ....   150
 SCF integral mode      SCFMode         .... Direct
   Integral package                     .... SHARK and LIBINT hybrid scheme
 Reset frequency        DirectResetFreq ....    20
 Integral Threshold     Thresh          ....  2.500e-11 Eh
 Primitive CutOff       TCut            ....  2.500e-12 Eh

Convergence Tolerance:
 Convergence Check Mode ConvCheckMode   .... Total+1el-Energy
 Convergence forced     ConvForced      .... 0
 Energy Change          TolE            ....  1.000e-08 Eh
 1-El. energy change                    ....  1.000e-05 Eh
 Orbital Gradient       TolG            ....  1.000e-05
 Orbital Rotation angle TolX            ....  1.000e-05
 DIIS Error             TolErr          ....  5.000e-07


Diagonalization of the overlap matrix:
Smallest eigenvalue                        ... 1.566e-04
Time for diagonalization                   ...    0.004 sec
Threshold for overlap eigenvalues          ... 1.000e-08
Number of eigenvalues below threshold      ... 0
Time for construction of square roots      ...    0.003 sec
Total time needed                          ...    0.008 sec

Time for model grid setup =    0.044 sec

------------------------------
INITIAL GUESS: MODEL POTENTIAL
------------------------------
Loading Hartree-Fock densities                     ... done
Calculating cut-offs                               ... done
Initializing the effective Hamiltonian             ... done
Setting up the integral package (SHARK)            ... done
Starting the Coulomb interaction                   ... done (   0.0 sec)
Reading the grid                                   ... done
Mapping shells                                     ... done
Starting the XC term evaluation                    ... done (   0.0 sec)
  promolecular density results
     # of electrons  =     30.999776173
     EX              =    -27.360138283
     EC              =     -1.020738742
     EX+EC           =    -28.380877025
Transforming the Hamiltonian                       ... done (   0.0 sec)
Diagonalizing the Hamiltonian                      ... done (   0.0 sec)
Back transforming the eigenvectors                 ... done (   0.0 sec)
Now organizing SCF variables                       ... done
                      ------------------
                      INITIAL GUESS DONE (   0.1 sec)
                      ------------------
-------------------
DFT GRID GENERATION
-------------------

General Integration Accuracy     IntAcc      ... 4.388
Radial Grid Type                 RadialGrid  ... OptM3 with GC (2021)
Angular Grid (max. ang.)         AngularGrid ... 4 (Lebedev-302)
Angular grid pruning method      GridPruning ... 4 (adaptive)
Weight generation scheme         WeightScheme... Becke
Basis function cutoff            BFCut       ... 1.0000e-11
Integration weight cutoff        WCut        ... 1.0000e-14
Angular grids for H and He will be reduced by one unit
Partially contracted basis set               ... off
Rotationally invariant grid construction     ... off

Total number of grid points                  ...    35432
Total number of batches                      ...      557
Average number of points per batch           ...       63
Average number of grid points per atom       ...     5062
Time for grid setup =    0.221 sec

--------------------
COSX GRID GENERATION
--------------------

GRIDX 1
-------
General Integration Accuracy     IntAcc      ... 3.816
Radial Grid Type                 RadialGrid  ... OptM3 with GC (2021)
Angular Grid (max. ang.)         AngularGrid ... 1 (Lebedev-50)
Angular grid pruning method      GridPruning ... 4 (adaptive)
Weight generation scheme         WeightScheme... Becke
Basis function cutoff            BFCut       ... 1.0000e-11
Integration weight cutoff        WCut        ... 1.0000e-14
Angular grids for H and He will be reduced by one unit
Partially contracted basis set               ... on
Rotationally invariant grid construction     ... off

Total number of grid points                  ...     4458
Total number of batches                      ...       73
Average number of points per batch           ...       61
Average number of grid points per atom       ...      637
UseSFitting                                  ... on

GRIDX 2
-------
General Integration Accuracy     IntAcc      ... 4.020
Radial Grid Type                 RadialGrid  ... OptM3 with GC (2021)
Angular Grid (max. ang.)         AngularGrid ... 2 (Lebedev-110)
Angular grid pruning method      GridPruning ... 4 (adaptive)
Weight generation scheme         WeightScheme... Becke
Basis function cutoff            BFCut       ... 1.0000e-11
Integration weight cutoff        WCut        ... 1.0000e-14
Angular grids for H and He will be reduced by one unit
Partially contracted basis set               ... on
Rotationally invariant grid construction     ... off

Total number of grid points                  ...    10851
Total number of batches                      ...      173
Average number of points per batch           ...       62
Average number of grid points per atom       ...     1550
UseSFitting                                  ... on

GRIDX 3
-------
General Integration Accuracy     IntAcc      ... 4.338
Radial Grid Type                 RadialGrid  ... OptM3 with GC (2021)
Angular Grid (max. ang.)         AngularGrid ... 3 (Lebedev-194)
Angular grid pruning method      GridPruning ... 4 (adaptive)
Weight generation scheme         WeightScheme... Becke
Basis function cutoff            BFCut       ... 1.0000e-11
Integration weight cutoff        WCut        ... 1.0000e-14
Angular grids for H and He will be reduced by one unit
Partially contracted basis set               ... on
Rotationally invariant grid construction     ... off

Total number of grid points                  ...    24388
Total number of batches                      ...      384
Average number of points per batch           ...       63
Average number of grid points per atom       ...     3484
UseSFitting                                  ... on

Time for X-Grid setup             =    0.208 sec

--------------
SCF ITERATIONS
--------------
ITER       Energy         Delta-E        Max-DP      RMS-DP      [F,P]     Damp
               ***  Starting incremental Fock matrix formation  ***
  0   -227.6423624112   0.000000000000 0.08846494  0.00382275  0.2770106 0.7000
  1   -227.7517531476  -0.109390736462 0.07376197  0.00282736  0.1292193 0.7000
                               ***Turning on DIIS***
  2   -227.8002772227  -0.048524075098 0.18521763  0.00601271  0.0562638 0.0000
  3   -227.8808640155  -0.080586792760 0.06309999  0.00206579  0.0747994 0.0000
  4   -227.8946926231  -0.013828607564 0.01780057  0.00050178  0.0107563 0.0000
                      *** Initiating the SOSCF procedure ***
                           *** Shutting down DIIS ***
                      *** Re-Reading the Fockian *** 
                      *** Removing any level shift *** 
ITER      Energy       Delta-E        Grad      Rot      Max-DP    RMS-DP
  5   -227.89507981  -0.0003871902  0.000990  0.000990  0.006758  0.000263
               *** Restarting incremental Fock matrix formation ***
  6   -227.89509547  -0.0000156547  0.000407  0.000729  0.003652  0.000163
  7   -227.89510053  -0.0000050614  0.000181  0.000528  0.001940  0.000083
  8   -227.89510098  -0.0000004491  0.000145  0.000143  0.000983  0.000029
  9   -227.89510133  -0.0000003468  0.000033  0.000025  0.000200  0.000009
 10   -227.89510133  -0.0000000096  0.000016  0.000014  0.000199  0.000004
                  ***Gradient check signals convergence***
              ***Rediagonalizing the Fockian in SOSCF/NRSCF***

               *****************************************************
               *                     SUCCESS                       *
               *           SCF CONVERGED AFTER  11 CYCLES          *
               *****************************************************


----------------
TOTAL SCF ENERGY
----------------

Total Energy       :         -227.89510134 Eh           -6201.34098 eV

Components:
Nuclear Repulsion  :          112.63159554 Eh            3064.86153 eV
Electronic Energy  :         -340.52669688 Eh           -9266.20251 eV
One Electron Energy:         -541.88159926 Eh          -14745.34795 eV
Two Electron Energy:          201.35490237 Eh            5479.14545 eV
Max COSX asymmetry :            0.00000360 Eh               0.00010 eV

Virial components:
Potential Energy   :         -453.97518834 Eh          -12353.29290 eV
Kinetic Energy     :          226.08008700 Eh            6151.95193 eV
Virial Ratio       :            2.00802819


DFT components:
N(Alpha)           :       16.000227643424 electrons
N(Beta)            :       16.000227643424 electrons
N(Total)           :       32.000455286847 electrons
E(XC)              :      -23.361658447687 Eh       
DFET-embed. en.    :        0.000000000000 Eh       

---------------
SCF CONVERGENCE
---------------

  Last Energy change         ...   -7.3921e-09  Tolerance :   1.0000e-08
  Last MAX-Density change    ...    9.9758e-05  Tolerance :   1.0000e-07
  Last RMS-Density change    ...    1.7512e-06  Tolerance :   5.0000e-09
  Last Orbital Gradient      ...    2.3311e-06  Tolerance :   1.0000e-05
  Last Orbital Rotation      ...    7.4801e-06  Tolerance :   1.0000e-05

             **** THE GBW FILE WAS UPDATED (18Feb_SVPD_LC_BLYP_A_wt_wb97_typm1_neg.gbw) ****
             **** DENSITY 18Feb_SVPD_LC_BLYP_A_wt_wb97_typm1_neg.scfp WAS UPDATED ****
             **** ENERGY FILE WAS UPDATED (18Feb_SVPD_LC_BLYP_A_wt_wb97_typm1_neg.en.tmp) ****
             **** THE GBW FILE WAS UPDATED (18Feb_SVPD_LC_BLYP_A_wt_wb97_typm1_neg.gbw) ****
             **** DENSITY 18Feb_SVPD_LC_BLYP_A_wt_wb97_typm1_neg.scfp WAS UPDATED ****
----------------
ORBITAL ENERGIES
----------------

  NO   OCC          E(Eh)            E(eV) 
   0   2.0000     -18.693661      -508.6804 
   1   2.0000     -18.693228      -508.6686 
   2   2.0000      -9.974807      -271.4283 
   3   2.0000      -9.899452      -269.3778 
   4   2.0000      -0.905249       -24.6331 
   5   2.0000      -0.810010       -22.0415 
   6   2.0000      -0.648787       -17.6544 
   7   2.0000      -0.406341       -11.0571 
   8   2.0000      -0.368899       -10.0383 
   9   2.0000      -0.350235        -9.5304 
  10   2.0000      -0.330109        -8.9827 
  11   2.0000      -0.287496        -7.8232 
  12   2.0000      -0.273403        -7.4397 
  13   2.0000      -0.148611        -4.0439 
  14   2.0000      -0.142593        -3.8801 
  15   2.0000      -0.127014        -3.4562 
  16   0.0000       0.221267         6.0210 
  17   0.0000       0.257298         7.0014 
  18   0.0000       0.280962         7.6454 
  19   0.0000       0.291683         7.9371 
  20   0.0000       0.316851         8.6220 
  21   0.0000       0.317920         8.6510 
  22   0.0000       0.332899         9.0586 
  23   0.0000       0.336018         9.1435 
  24   0.0000       0.347201         9.4478 
  25   0.0000       0.359903         9.7934 
  26   0.0000       0.387338        10.5400 
  27   0.0000       0.398298        10.8382 
  28   0.0000       0.404198        10.9988 
  29   0.0000       0.427434        11.6311 
  30   0.0000       0.471319        12.8252 
  31   0.0000       0.497918        13.5490 
  32   0.0000       0.517425        14.0799 
  33   0.0000       0.529030        14.3956 
  34   0.0000       0.555458        15.1148 
  35   0.0000       0.563151        15.3241 
  36   0.0000       0.583802        15.8861 
  37   0.0000       0.597489        16.2585 
  38   0.0000       0.599909        16.3243 
  39   0.0000       0.625199        17.0125 
  40   0.0000       0.641367        17.4525 
  41   0.0000       0.644908        17.5488 
  42   0.0000       0.660717        17.9790 
  43   0.0000       0.677027        18.4228 
  44   0.0000       0.705100        19.1868 
  45   0.0000       0.720157        19.5965 
  46   0.0000       0.722766        19.6675 
  47   0.0000       0.771639        20.9974 
  48   0.0000       0.784401        21.3446 
  49   0.0000       0.796687        21.6789 
  50   0.0000       0.802796        21.8452 
  51   0.0000       0.827818        22.5261 
  52   0.0000       0.847403        23.0590 
  53   0.0000       0.875480        23.8230 
  54   0.0000       0.895780        24.3754 
  55   0.0000       0.906038        24.6545 
  56   0.0000       0.938519        25.5384 
  57   0.0000       0.957883        26.0653 
  58   0.0000       0.965005        26.2591 
  59   0.0000       0.971329        26.4312 
  60   0.0000       0.977515        26.5995 
  61   0.0000       1.066701        29.0264 
  62   0.0000       1.085996        29.5515 
  63   0.0000       1.106019        30.0963 
  64   0.0000       1.172798        31.9135 
  65   0.0000       1.223921        33.3046 
  66   0.0000       1.228374        33.4258 
  67   0.0000       1.256417        34.1889 
  68   0.0000       1.292086        35.1595 
  69   0.0000       1.295773        35.2598 
  70   0.0000       1.339215        36.4419 
  71   0.0000       1.443872        39.2898 
  72   0.0000       1.504451        40.9382 
  73   0.0000       1.774754        48.2935 
  74   0.0000       1.781229        48.4697 
  75   0.0000       1.796456        48.8841 
  76   0.0000       1.808332        49.2072 
  77   0.0000       1.834843        49.9286 
  78   0.0000       1.895701        51.5846 
  79   0.0000       1.935614        52.6707 
  80   0.0000       1.942102        52.8473 
  81   0.0000       1.991768        54.1988 
  82   0.0000       2.023882        55.0726 
  83   0.0000       2.107813        57.3565 
  84   0.0000       2.213224        60.2249 
  85   0.0000       2.224350        60.5276 
  86   0.0000       2.249863        61.2219 
  87   0.0000       2.265498        61.6473 
  88   0.0000       2.278001        61.9876 
  89   0.0000       2.360994        64.2459 
  90   0.0000       2.480747        67.5046 
  91   0.0000       2.496693        67.9385 
  92   0.0000       2.546499        69.2938 
  93   0.0000       2.635503        71.7157 
  94   0.0000       2.787771        75.8591 
  95   0.0000       2.867330        78.0240 
  96   0.0000       2.871923        78.1490 
  97   0.0000       3.154135        85.8284 
  98   0.0000       3.178684        86.4964 
  99   0.0000       3.180340        86.5414 
 100   0.0000       3.195175        86.9451 
 101   0.0000       3.260952        88.7350 
 102   0.0000       3.321807        90.3910 
 103   0.0000       3.331182        90.6461 
 104   0.0000       3.360848        91.4533 
 105   0.0000       3.525348        95.9296 
 106   0.0000       3.597203        97.8849 
 107   0.0000       3.759957       102.3136 
 108   0.0000       3.981717       108.3480 
 109   0.0000       4.114228       111.9538 

                    ********************************
                    * MULLIKEN POPULATION ANALYSIS *
                    ********************************

-----------------------
MULLIKEN ATOMIC CHARGES
-----------------------
   0 C :    0.705683
   1 C :   -0.205571
   2 O :   -0.528516
   3 O :   -0.547592
   4 H :   -0.149531
   5 H :   -0.138454
   6 H :   -0.136019
Sum of atomic charges:   -1.0000000

--------------------------------
MULLIKEN REDUCED ORBITAL CHARGES
--------------------------------
  0 C s       :     2.336107  s :     2.336107
      pz      :     1.013988  p :     2.881569
      px      :     0.902583
      py      :     0.964999
      dz2     :     0.018890  d :     0.076640
      dxz     :     0.022007
      dyz     :     0.006406
      dx2y2   :     0.018129
      dxy     :     0.011208
  1 C s       :     3.148725  s :     3.148725
      pz      :     0.852476  p :     2.607986
      px      :     0.870669
      py      :     0.884841
      dz2     :     0.092042  d :     0.448860
      dxz     :     0.076914
      dyz     :     0.079328
      dx2y2   :     0.097551
      dxy     :     0.103026
  2 O s       :     3.814069  s :     3.814069
      pz      :     1.537025  p :     4.696896
      px      :     1.355583
      py      :     1.804287
      dz2     :     0.004479  d :     0.017551
      dxz     :     0.005580
      dyz     :     0.003304
      dx2y2   :     0.002893
      dxy     :     0.001295
  3 O s       :     3.825180  s :     3.825180
      pz      :     1.751150  p :     4.709127
      px      :     1.566025
      py      :     1.391953
      dz2     :     0.000367  d :     0.013285
      dxz     :     0.001481
      dyz     :     0.003927
      dx2y2   :     0.005547
      dxy     :     0.001963
  4 H s       :     1.054112  s :     1.054112
      pz      :     0.010490  p :     0.095418
      px      :     0.046161
      py      :     0.038767
  5 H s       :     1.080405  s :     1.080405
      pz      :     0.055503  p :     0.058049
      px      :    -0.037534
      py      :     0.040081
  6 H s       :     1.079028  s :     1.079028
      pz      :    -0.008160  p :     0.056991
      px      :     0.055060
      py      :     0.010091


                     *******************************
                     * LOEWDIN POPULATION ANALYSIS *
                     *******************************

----------------------
LOEWDIN ATOMIC CHARGES
----------------------
   0 C :    0.131710
   1 C :   -0.378169
   2 O :   -0.323300
   3 O :   -0.325125
   4 H :   -0.039655
   5 H :   -0.031740
   6 H :   -0.033720

-------------------------------
LOEWDIN REDUCED ORBITAL CHARGES
-------------------------------
  0 C s       :     2.709375  s :     2.709375
      pz      :     0.929445  p :     2.785137
      px      :     0.932074
      py      :     0.923619
      dz2     :     0.104585  d :     0.373778
      dxz     :     0.045724
      dyz     :     0.073982
      dx2y2   :     0.059657
      dxy     :     0.089829
  1 C s       :     2.683882  s :     2.683882
      pz      :     0.774585  p :     2.456311
      px      :     0.840248
      py      :     0.841478
      dz2     :     0.210077  d :     1.237976
      dxz     :     0.218654
      dyz     :     0.230834
      dx2y2   :     0.297779
      dxy     :     0.280632
  2 O s       :     3.459866  s :     3.459866
      pz      :     1.516243  p :     4.634773
      px      :     1.455594
      py      :     1.662936
      dz2     :     0.038552  d :     0.228661
      dxz     :     0.065121
      dyz     :     0.029686
      dx2y2   :     0.040719
      dxy     :     0.054583
  3 O s       :     3.461491  s :     3.461491
      pz      :     1.607874  p :     4.638875
      px      :     1.546091
      py      :     1.484911
      dz2     :     0.022008  d :     0.224759
      dxz     :     0.027085
      dyz     :     0.047938
      dx2y2   :     0.066468
      dxy     :     0.061260
  4 H s       :     0.738275  s :     0.738275
      pz      :     0.083971  p :     0.301380
      px      :     0.109074
      py      :     0.108335
  5 H s       :     0.738057  s :     0.738057
      pz      :     0.120494  p :     0.293683
      px      :     0.081435
      py      :     0.091755
  6 H s       :     0.739315  s :     0.739315
      pz      :     0.081519  p :     0.294405
      px      :     0.127127
      py      :     0.085759


                      *****************************
                      * MAYER POPULATION ANALYSIS *
                      *****************************

  NA   - Mulliken gross atomic population
  ZA   - Total nuclear charge
  QA   - Mulliken gross atomic charge
  VA   - Mayer's total valence
  BVA  - Mayer's bonded valence
  FA   - Mayer's free valence

  ATOM       NA         ZA         QA         VA         BVA        FA
  0 C      5.2943     6.0000     0.7057     3.6114     3.6114     0.0000
  1 C      6.2056     6.0000    -0.2056     5.1106     5.1106     0.0000
  2 O      8.5285     8.0000    -0.5285     1.5905     1.5905     0.0000
  3 O      8.5476     8.0000    -0.5476     1.6638     1.6638    -0.0000
  4 H      1.1495     1.0000    -0.1495     1.2024     1.2024     0.0000
  5 H      1.1385     1.0000    -0.1385     1.0966     1.0966     0.0000
  6 H      1.1360     1.0000    -0.1360     1.0950     1.0950     0.0000

  Mayer bond orders larger than 0.100000
B(  0-C ,  1-C ) :   1.1867 B(  0-C ,  4-H ) :   0.8181 B(  0-C ,  5-H ) :   0.7770 
B(  0-C ,  6-H ) :   0.7665 B(  1-C ,  2-O ) :   1.6237 B(  1-C ,  3-O ) :   1.6348 
B(  1-C ,  4-H ) :   0.2849 B(  1-C ,  5-H ) :   0.1857 B(  1-C ,  6-H ) :   0.1948 


-------
TIMINGS
-------

Total SCF time: 0 days 0 hours 0 min 6 sec 

Total time                  ....       6.124 sec
Sum of individual times     ....       5.992 sec  ( 97.9%)

Fock matrix formation       ....       5.418 sec  ( 88.5%)
  Split-RI-J                ....       0.240 sec  (  4.4% of F)
  Chain of spheres X        ....       4.041 sec  ( 74.6% of F)
  XC integration            ....       1.115 sec  ( 20.6% of F)
    Basis function eval.    ....       0.365 sec  ( 32.8% of XC)
    Density eval.           ....       0.221 sec  ( 19.8% of XC)
    XC-Functional eval.     ....       0.170 sec  ( 15.2% of XC)
    XC-Potential eval.      ....       0.302 sec  ( 27.1% of XC)
Diagonalization             ....       0.019 sec  (  0.3%)
Density matrix formation    ....       0.002 sec  (  0.0%)
Population analysis         ....       0.004 sec  (  0.1%)
Initial guess               ....       0.047 sec  (  0.8%)
Orbital Transformation      ....       0.000 sec  (  0.0%)
Orbital Orthonormalization  ....       0.000 sec  (  0.0%)
DIIS solution               ....       0.015 sec  (  0.2%)
SOSCF solution              ....       0.015 sec  (  0.2%)
Grid generation             ....       0.473 sec  (  7.7%)

Maximum memory used throughout the entire SCF-calculation: 13.8 MB

-------------------------   --------------------
FINAL SINGLE POINT ENERGY      -227.895101342173
-------------------------   --------------------


                            ***************************************
                            *     ORCA property calculations      *
                            ***************************************

                                    ---------------------
                                    Active property flags
                                    ---------------------
   (+) Dipole Moment


------------------------------------------------------------------------------
                       ORCA ELECTRIC PROPERTIES CALCULATION
------------------------------------------------------------------------------

Dipole Moment Calculation                       ... on
Quadrupole Moment Calculation                   ... off
Polarizability Calculation                      ... off
GBWName                                         ... 18Feb_SVPD_LC_BLYP_A_wt_wb97_typm1_neg.gbw
Electron density file                           ... 18Feb_SVPD_LC_BLYP_A_wt_wb97_typm1_neg.scfp
The origin for moment calculation is the CENTER OF MASS  = (-0.766723, -0.278223 -9.845106)

-------------
DIPOLE MOMENT
-------------
                                X             Y             Z
Electronic contribution:      0.74354      -2.42667      -2.46745
Nuclear contribution   :     -1.06347       3.45957       3.47855
                        -----------------------------------------
Total Dipole Moment    :     -0.31993       1.03291       1.01110
                        -----------------------------------------
Magnitude (a.u.)       :      1.48040
Magnitude (Debye)      :      3.76288



--------------------
Rotational spectrum 
--------------------
 
Rotational constants in cm-1:     0.393276     0.333956     0.186777 
Rotational constants in MHz : 11790.103634 10011.747201  5599.422324 

 Dipole components along the rotational axes: 
x,y,z [a.u.] :     1.480031    -0.030702    -0.012180 
x,y,z [Debye]:     3.761939    -0.078039    -0.030959 

 

Timings for individual modules:

Sum of individual times         ...        6.897 sec (=   0.115 min)
GTO integral calculation        ...        0.452 sec (=   0.008 min)   6.6 %
SCF iterations                  ...        6.445 sec (=   0.107 min)  93.4 %
                             ****ORCA TERMINATED NORMALLY****
TOTAL RUN TIME: 0 days 0 hours 0 minutes 7 seconds 356 msec
