
                                        *****************
                                        * O   R   C   A *
                                        *****************

                                            #,                                       
                                            ###                                      
                                            ####                                     
                                            #####                                    
                                            ######                                   
                                           ########,                                 
                                     ,,################,,,,,                         
                               ,,#################################,,                 
                          ,,##########################################,,             
                       ,#########################################, ''#####,          
                    ,#############################################,,   '####,        
                  ,##################################################,,,,####,       
                ,###########''''           ''''###############################       
              ,#####''   ,,,,##########,,,,          '''####'''          '####       
            ,##' ,,,,###########################,,,                        '##       
           ' ,,###''''                  '''############,,,                           
         ,,##''                                '''############,,,,        ,,,,,,###''
      ,#''                                            '''#######################'''  
     '                                                          ''''####''''         
             ,#######,   #######,   ,#######,      ##                                
            ,#'     '#,  ##    ##  ,#'     '#,    #''#        ######   ,####,        
            ##       ##  ##   ,#'  ##            #'  '#       #        #'  '#        
            ##       ##  #######   ##           ,######,      #####,   #    #        
            '#,     ,#'  ##    ##  '#,     ,#' ,#      #,         ##   #,  ,#        
             '#######'   ##     ##  '#######'  #'      '#     #####' # '####'        



                  #######################################################
                  #                        -***-                        #
                  #          Department of theory and spectroscopy      #
                  #    Directorship and core code : Frank Neese         #
                  #        Max Planck Institute fuer Kohlenforschung    #
                  #                Kaiser Wilhelm Platz 1               #
                  #                 D-45470 Muelheim/Ruhr               #
                  #                      Germany                        #
                  #                                                     #
                  #                  All rights reserved                #
                  #                        -***-                        #
                  #######################################################


                         Program Version 5.0.0 -  RELEASE  -
                                (SVN: $Rev: 19529$)
                ($Date: 2021-06-28 11:36:33 +0200 (Mo, 28 Jun 2021) $)


 With contributions from (in alphabetic order):
   Daniel Aravena         : Magnetic Suceptibility
   Michael Atanasov       : Ab Initio Ligand Field Theory (pilot matlab implementation)
   Alexander A. Auer      : GIAO ZORA, VPT2 properties, NMR spectrum
   Ute Becker             : Parallelization
   Giovanni Bistoni       : ED, misc. LED, open-shell LED, HFLD
   Martin Brehm           : Molecular dynamics
   Dmytro Bykov           : SCF Hessian
   Vijay G. Chilkuri      : MRCI spin determinant printing, contributions to CSF-ICE
   Dipayan Datta          : RHF DLPNO-CCSD density
   Achintya Kumar Dutta   : EOM-CC, STEOM-CC
   Dmitry Ganyushin       : Spin-Orbit,Spin-Spin,Magnetic field MRCI
   Miquel Garcia          : C-PCM Hessian, Gaussian charge scheme
   Yang Guo               : DLPNO-NEVPT2, F12-NEVPT2, CIM, IAO-localization
   Andreas Hansen         : Spin unrestricted coupled pair/coupled cluster methods
   Benjamin Helmich-Paris : MC-RPA, TRAH-SCF, COSX integrals
   Lee Huntington         : MR-EOM, pCC
   Robert Izsak           : Overlap fitted RIJCOSX, COSX-SCS-MP3, EOM
   Marcus Kettner         : VPT2
   Christian Kollmar      : KDIIS, OOCD, Brueckner-CCSD(T), CCSD density, CASPT2, CASPT2-K
   Simone Kossmann        : Meta GGA functionals, TD-DFT gradient, OOMP2, MP2 Hessian
   Martin Krupicka        : Initial AUTO-CI
   Lucas Lang             : DCDCAS
   Marvin Lechner         : AUTO-CI (C++ implementation), FIC-MRCC
   Dagmar Lenk            : GEPOL surface, SMD
   Dimitrios Liakos       : Extrapolation schemes; Compound Job, initial MDCI parallelization
   Dimitrios Manganas     : Further ROCIS development; embedding schemes
   Dimitrios Pantazis     : SARC Basis sets
   Anastasios Papadopoulos: AUTO-CI, single reference methods and gradients
   Taras Petrenko         : DFT Hessian,TD-DFT gradient, ASA, ECA, R-Raman, ABS, FL, XAS/XES, NRVS
   Peter Pinski           : DLPNO-MP2, DLPNO-MP2 Gradient
   Christoph Reimann      : Effective Core Potentials
   Marius Retegan         : Local ZFS, SOC
   Christoph Riplinger    : Optimizer, TS searches, QM/MM, DLPNO-CCSD(T), (RO)-DLPNO pert. Triples
   Tobias Risthaus        : Range-separated hybrids, TD-DFT gradient, RPA, STAB
   Michael Roemelt        : Original ROCIS implementation
   Masaaki Saitow         : Open-shell DLPNO-CCSD energy and density
   Barbara Sandhoefer     : DKH picture change effects
   Avijit Sen             : IP-ROCIS
   Kantharuban Sivalingam : CASSCF convergence, NEVPT2, FIC-MRCI
   Bernardo de Souza      : ESD, SOC TD-DFT
   Georgi Stoychev        : AutoAux, RI-MP2 NMR
   Willem Van den Heuvel  : Paramagnetic NMR
   Boris Wezisla          : Elementary symmetry handling
   Frank Wennmohs         : Technical directorship


 We gratefully acknowledge several colleagues who have allowed us to
 interface, adapt or use parts of their codes:
   Stefan Grimme, W. Hujo, H. Kruse, P. Pracht,  : VdW corrections, initial TS optimization,
                  C. Bannwarth, S. Ehlert          DFT functionals, gCP, sTDA/sTD-DF
   Ed Valeev, F. Pavosevic, A. Kumar             : LibInt (2-el integral package), F12 methods
   Garnet Chan, S. Sharma, J. Yang, R. Olivares  : DMRG
   Ulf Ekstrom                                   : XCFun DFT Library
   Mihaly Kallay                                 : mrcc  (arbitrary order and MRCC methods)
   Jiri Pittner, Ondrej Demel                    : Mk-CCSD
   Frank Weinhold                                : gennbo (NPA and NBO analysis)
   Christopher J. Cramer and Donald G. Truhlar   : smd solvation model
   Lars Goerigk                                  : TD-DFT with DH, B97 family of functionals
   V. Asgeirsson, H. Jonsson                     : NEB implementation
   FAccTs GmbH                                   : IRC, NEB, NEB-TS, DLPNO-Multilevel, CI-OPT
                                                   MM, QMMM, 2- and 3-layer-ONIOM, Crystal-QMMM,
                                                   LR-CPCM, SF, NACMEs, symmetry and pop. for TD-DFT,
                                                   nearIR, NL-DFT gradient (VV10), updates on ESD,
                                                   ML-optimized integration grids
   S Lehtola, MJT Oliveira, MAL Marques          : LibXC Library
   Liviu Ungur et al                             : ANISO software


 Your calculation uses the libint2 library for the computation of 2-el integrals
 For citations please refer to: http://libint.valeyev.net

 Your ORCA version has been built with support for libXC version: 5.1.0
 For citations please refer to: https://tddft.org/programs/libxc/

 This ORCA versions uses:
   CBLAS   interface :  Fast vector & matrix operations
   LAPACKE interface :  Fast linear algebra routines
   SCALAPACK package :  Parallel linear algebra routines
   Shared memory     :  Shared parallel matrices
   BLAS/LAPACK       :  OpenBLAS 0.3.15  USE64BITINT DYNAMIC_ARCH NO_AFFINITY Haswell SINGLE_THREADED
        Core in use  :  Haswell
   Copyright (c) 2011-2014, The OpenBLAS Project


Your calculation utilizes the atom-pairwise dispersion correction
with the Becke-Johnson damping scheme (D3BJ)
Cite in your paper:
S.Grimme, S.Ehrlich, L.Goerigk, J Comput Chem, (2011), 32, 1456–1465 
S.Grimme, J.Antony, S.Ehrlich and H.Krieg, J.Chem.Phys., 132, (2010), 154104 
   

================================================================================

----- Orbital basis set information -----
Your calculation utilizes the basis: def2-SVP
   F. Weigend and R. Ahlrichs, Phys. Chem. Chem. Phys. 7, 3297 (2005).

----- AuxJ basis set information -----
Your calculation utilizes the auxiliary basis: def2/J
   F. Weigend, Phys. Chem. Chem. Phys. 8, 1057 (2006).

================================================================================
                                        WARNINGS
                       Please study these warnings very carefully!
================================================================================


INFO   : the flag for use of the SHARK integral package has been found!

================================================================================
                                       INPUT FILE
================================================================================
NAME = SVP_B3LYP_C2_wt_dlpno_neg.com
|  1> !B3LYP D3BJ RIJCOSX def2-SVP def2/J TightSCF
|  2> *xyz 0 1 
|  3> C         -5.57236       -5.80780       -0.81644
|  4> S         -6.90318       -4.61903       -0.52846
|  5> O         -8.11485       -5.25093       -0.95701
|  6> F         -6.53271       -3.42684       -1.31485
|  7> O         -6.86563       -4.29496        0.91412
|  8> C         -4.45780       -5.94187        0.22919
|  9> H         -5.17735       -5.54257       -1.79771
| 10> H         -6.07420       -6.76889       -0.92127
| 11> H         -3.75515       -6.68239       -0.09144
| 12> H         -4.88182       -6.23486        1.16689
| 13> H         -3.95908       -5.00189        0.34143
| 14> *
| 15> %MaxCore 64000
| 16> 
| 17> %pal nprocs 4
| 18> end  
| 19> 
| 20> %scf
| 21>   MaxIter 150
| 22> end
| 23> 
| 24>                          ****END OF INPUT****
================================================================================

                       ****************************
                       * Single Point Calculation *
                       ****************************

---------------------------------
CARTESIAN COORDINATES (ANGSTROEM)
---------------------------------
  C     -5.572360   -5.807800   -0.816440
  S     -6.903180   -4.619030   -0.528460
  O     -8.114850   -5.250930   -0.957010
  F     -6.532710   -3.426840   -1.314850
  O     -6.865630   -4.294960    0.914120
  C     -4.457800   -5.941870    0.229190
  H     -5.177350   -5.542570   -1.797710
  H     -6.074200   -6.768890   -0.921270
  H     -3.755150   -6.682390   -0.091440
  H     -4.881820   -6.234860    1.166890
  H     -3.959080   -5.001890    0.341430

----------------------------
CARTESIAN COORDINATES (A.U.)
----------------------------
  NO LB      ZA    FRAG     MASS         X           Y           Z
   0 C     6.0000    0    12.011  -10.530234  -10.975151   -1.542848
   1 S    16.0000    0    32.060  -13.045120   -8.728702   -0.998645
   2 O     8.0000    0    15.999  -15.334844   -9.922820   -1.808487
   3 F     9.0000    0    18.998  -12.345033   -6.475789   -2.484706
   4 O     8.0000    0    15.999  -12.974160   -8.116298    1.727436
   5 C     6.0000    0    12.011   -8.424021  -11.228507    0.433106
   6 H     1.0000    0     1.008   -9.783774  -10.473939   -3.397180
   7 H     1.0000    0     1.008  -11.478574  -12.791348   -1.740948
   8 H     1.0000    0     1.008   -7.096205  -12.627887   -0.172797
   9 H     1.0000    0     1.008   -9.225303  -11.782178    2.205103
  10 H     1.0000    0     1.008   -7.481577   -9.452202    0.645209

--------------------------------
INTERNAL COORDINATES (ANGSTROEM)
--------------------------------
 C      0   0   0     0.000000000000     0.00000000     0.00000000
 S      1   0   0     1.807536573821     0.00000000     0.00000000
 O      2   1   0     1.432165109685   106.56208582     0.00000000
 F      2   1   3     1.475457301686   105.16666730   238.45210070
 O      2   1   3     1.479009271032   106.30854122   122.18883319
 C      1   2   3     1.534131955016   118.93292281   220.05041070
 H      1   2   3     1.090536870491   104.48290251    94.52506513
 H      1   2   3     1.089278064867   104.85705990   341.96808105
 H      6   1   2     1.069995555972   109.47104647   179.99982600
 H      6   1   2     1.070008126371   109.47102823    60.00051838
 H      6   1   2     1.069991521649   109.47204847   300.00069232

---------------------------
INTERNAL COORDINATES (A.U.)
---------------------------
 C      0   0   0     0.000000000000     0.00000000     0.00000000
 S      1   0   0     3.415749101568     0.00000000     0.00000000
 O      2   1   0     2.706399835863   106.56208582     0.00000000
 F      2   1   3     2.788210222482   105.16666730   238.45210070
 O      2   1   3     2.794922471782   106.30854122   122.18883319
 C      1   2   3     2.899089248277   118.93292281   220.05041070
 H      1   2   3     2.060816024171   104.48290251    94.52506513
 H      1   2   3     2.058437226286   104.85705990   341.96808105
 H      6   1   2     2.021998565300   109.47104647   179.99982600
 H      6   1   2     2.022022319911   109.47102823    60.00051838
 H      6   1   2     2.021990941534   109.47204847   300.00069232

---------------------
BASIS SET INFORMATION
---------------------
There are 5 groups of distinct atoms

 Group   1 Type C   : 7s4p1d contracted to 3s2p1d pattern {511/31/1}
 Group   2 Type S   : 10s7p1d contracted to 4s3p1d pattern {5311/511/1}
 Group   3 Type O   : 7s4p1d contracted to 3s2p1d pattern {511/31/1}
 Group   4 Type F   : 7s4p1d contracted to 3s2p1d pattern {511/31/1}
 Group   5 Type H   : 4s1p contracted to 2s1p pattern {31/1}

Atom   0C    basis set group =>   1
Atom   1S    basis set group =>   2
Atom   2O    basis set group =>   3
Atom   3F    basis set group =>   4
Atom   4O    basis set group =>   3
Atom   5C    basis set group =>   1
Atom   6H    basis set group =>   5
Atom   7H    basis set group =>   5
Atom   8H    basis set group =>   5
Atom   9H    basis set group =>   5
Atom  10H    basis set group =>   5
---------------------------------
AUXILIARY/J BASIS SET INFORMATION
---------------------------------
There are 5 groups of distinct atoms

 Group   1 Type C   : 12s5p4d2f1g contracted to 6s4p3d1f1g pattern {711111/2111/211/2/1}
 Group   2 Type S   : 14s5p5d2f1g contracted to 8s4p3d1f1g pattern {71111111/2111/311/2/1}
 Group   3 Type O   : 12s5p4d2f1g contracted to 6s4p3d1f1g pattern {711111/2111/211/2/1}
 Group   4 Type F   : 12s5p4d2f1g contracted to 6s4p3d1f1g pattern {711111/2111/211/2/1}
 Group   5 Type H   : 5s2p1d contracted to 3s1p1d pattern {311/2/1}

Atom   0C    basis set group =>   1
Atom   1S    basis set group =>   2
Atom   2O    basis set group =>   3
Atom   3F    basis set group =>   4
Atom   4O    basis set group =>   3
Atom   5C    basis set group =>   1
Atom   6H    basis set group =>   5
Atom   7H    basis set group =>   5
Atom   8H    basis set group =>   5
Atom   9H    basis set group =>   5
Atom  10H    basis set group =>   5


           ************************************************************
           *        Program running with 4 parallel MPI-processes     *
           *              working on a common directory               *
           ************************************************************
------------------------------------------------------------------------------
                           ORCA GTO INTEGRAL CALCULATION
                           -- RI-GTO INTEGRALS CHOSEN --
------------------------------------------------------------------------------
------------------------------------------------------------------------------
                   ___                                                        
                  /   \      - P O W E R E D   B Y -                         
                 /     \                                                     
                 |  |  |   _    _      __       _____    __    __             
                 |  |  |  | |  | |    /  \     |  _  \  |  |  /  |          
                  \  \/   | |  | |   /    \    | | | |  |  | /  /          
                 / \  \   | |__| |  /  /\  \   | |_| |  |  |/  /          
                |  |  |   |  __  | /  /__\  \  |    /   |      \           
                |  |  |   | |  | | |   __   |  |    \   |  |\   \          
                \     /   | |  | | |  |  |  |  | |\  \  |  | \   \       
                 \___/    |_|  |_| |__|  |__|  |_| \__\ |__|  \__/        
                                                                              
                      - O R C A' S   B I G   F R I E N D -                    
                                      &                                       
                       - I N T E G R A L  F E E D E R -                       
                                                                              
 v1 FN, 2020, v2 2021                                                         
------------------------------------------------------------------------------


Reading SHARK input file SVP_B3LYP_C2_wt_dlpno_neg.SHARKINP.tmp ... ok
----------------------
SHARK INTEGRAL PACKAGE
----------------------

Number of atoms                             ...     11
Number of basis functions                   ...    113
Number of shells                            ...     53
Maximum angular momentum                    ...      2
Integral batch strategy                     ... SHARK/LIBINT Hybrid
RI-J (if used) integral strategy            ... SPLIT-RIJ (Revised 2003 algorithm where possible)
Printlevel                                  ...      1
Contraction scheme used                     ... SEGMENTED contraction
Coulomb Range Separation                    ... NOT USED
Exchange Range Separation                   ... NOT USED
Finite Nucleus Model                        ... NOT USED
Auxiliary Coulomb fitting basis             ... AVAILABLE
   # of basis functions in Aux-J            ...    351
   # of shells in Aux-J                     ...    117
   Maximum angular momentum in Aux-J        ...      4
Auxiliary J/K fitting basis                 ... NOT available
Auxiliary Correlation fitting basis         ... NOT available
Auxiliary 'external' fitting basis          ... NOT available
Integral threshold                          ...     2.500000e-11
Primitive cut-off                           ...     2.500000e-12
Primitive pair pre-selection threshold      ...     2.500000e-12

Calculating pre-screening integrals         ... done (  0.0 sec) Dimension = 53
Organizing shell pair data                  ... done (  0.0 sec)
Shell pair information
Total number of shell pairs                 ...      1431
Shell pairs after pre-screening             ...      1381
Total number of primitive shell pairs       ...      5459
Primitive shell pairs kept                  ...      3968
          la=0 lb=0:    414 shell pairs
          la=1 lb=0:    505 shell pairs
          la=1 lb=1:    166 shell pairs
          la=2 lb=0:    170 shell pairs
          la=2 lb=1:    105 shell pairs
          la=2 lb=2:     21 shell pairs

Calculating one electron integrals          ... done (  0.0 sec)
Calculating RI/J V-Matrix + Cholesky decomp.... done (  0.0 sec)
Calculating Nuclear repulsion               ... done (  0.0 sec) ENN=    360.185384747893 Eh

SHARK setup successfully completed in   0.1 seconds

Maximum memory used throughout the entire GTOINT-calculation: 8.8 MB


           ************************************************************
           *        Program running with 4 parallel MPI-processes     *
           *              working on a common directory               *
           ************************************************************
-------------------------------------------------------------------------------
                                 ORCA SCF
-------------------------------------------------------------------------------

------------
SCF SETTINGS
------------
Hamiltonian:
 Density Functional     Method          .... DFT(GTOs)
 Exchange Functional    Exchange        .... B88
   X-Alpha parameter    XAlpha          ....  0.666667
   Becke's b parameter  XBeta           ....  0.004200
 Correlation Functional Correlation     .... LYP
 LDA part of GGA corr.  LDAOpt          .... VWN-5
 Gradients option       PostSCFGGA      .... off
 Hybrid DFT is turned on
   Fraction HF Exchange ScalHFX         ....  0.200000
   Scaling of DF-GGA-X  ScalDFX         ....  0.720000
   Scaling of DF-GGA-C  ScalDFC         ....  0.810000
   Scaling of DF-LDA-C  ScalLDAC        ....  1.000000
   Perturbative correction              ....  0.000000
   Density functional embedding theory  .... OFF
   NL short-range parameter             ....  4.800000
 RI-approximation to the Coulomb term is turned on
   Number of AuxJ basis functions       .... 351
   RIJ-COSX (HFX calculated with COS-X)).... on


General Settings:
 Integral files         IntName         .... SVP_B3LYP_C2_wt_dlpno_neg
 Hartree-Fock type      HFTyp           .... RHF
 Total Charge           Charge          ....    0
 Multiplicity           Mult            ....    1
 Number of Electrons    NEL             ....   58
 Basis Dimension        Dim             ....  113
 Nuclear Repulsion      ENuc            ....    360.1853847479 Eh

Convergence Acceleration:
 DIIS                   CNVDIIS         .... on
   Start iteration      DIISMaxIt       ....    12
   Startup error        DIISStart       ....  0.200000
   # of expansion vecs  DIISMaxEq       ....     5
   Bias factor          DIISBfac        ....   1.050
   Max. coefficient     DIISMaxC        ....  10.000
 Trust-Rad. Augm. Hess. CNVTRAH         .... auto
   Auto Start mean grad. ratio tolernc. ....  1.125000
   Auto Start start iteration           ....    20
   Auto Start num. interpolation iter.  ....    10
   Max. Number of Micro iterations      ....    16
   Max. Number of Macro iterations      .... Maxiter - #DIIS iter
   Number of Davidson start vectors     ....     2
   Converg. threshold I  (grad. norm)   ....   1.000e-05
   Converg. threshold II (energy diff.) ....   1.000e-08
   Grad. Scal. Fac. for Micro threshold ....   0.100
   Minimum threshold for Micro iter.    ....   0.010
   NR start threshold (gradient norm)   ....   0.001
   Initial trust radius                 ....   0.400
   Minimum AH scaling param. (alpha)    ....   1.000
   Maximum AH scaling param. (alpha)    .... 1000.000
   Orbital update algorithm             .... Taylor
   White noise on init. David. guess    .... on
   Maximum white noise                  ....   0.010
   Quad. conv. algorithm                .... NR
 SOSCF                  CNVSOSCF        .... on
   Start iteration      SOSCFMaxIt      ....   150
   Startup grad/error   SOSCFStart      ....  0.003300
 Level Shifting         CNVShift        .... on
   Level shift para.    LevelShift      ....    0.2500
   Turn off err/grad.   ShiftErr        ....    0.0010
 Zerner damping         CNVZerner       .... off
 Static damping         CNVDamp         .... on
   Fraction old density DampFac         ....    0.7000
   Max. Damping (<1)    DampMax         ....    0.9800
   Min. Damping (>=0)   DampMin         ....    0.0000
   Turn off err/grad.   DampErr         ....    0.1000
 Fernandez-Rico         CNVRico         .... off

SCF Procedure:
 Maximum # iterations   MaxIter         ....   150
 SCF integral mode      SCFMode         .... Direct
   Integral package                     .... SHARK and LIBINT hybrid scheme
 Reset frequency        DirectResetFreq ....    20
 Integral Threshold     Thresh          ....  2.500e-11 Eh
 Primitive CutOff       TCut            ....  2.500e-12 Eh

Convergence Tolerance:
 Convergence Check Mode ConvCheckMode   .... Total+1el-Energy
 Convergence forced     ConvForced      .... 0
 Energy Change          TolE            ....  1.000e-08 Eh
 1-El. energy change                    ....  1.000e-05 Eh
 Orbital Gradient       TolG            ....  1.000e-05
 Orbital Rotation angle TolX            ....  1.000e-05
 DIIS Error             TolErr          ....  5.000e-07


Diagonalization of the overlap matrix:
Smallest eigenvalue                        ... 3.042e-03
Time for diagonalization                   ...    0.006 sec
Threshold for overlap eigenvalues          ... 1.000e-08
Number of eigenvalues below threshold      ... 0
Time for construction of square roots      ...    0.004 sec
Total time needed                          ...    0.011 sec

Time for model grid setup =    0.064 sec

------------------------------
INITIAL GUESS: MODEL POTENTIAL
------------------------------
Loading Hartree-Fock densities                     ... done
Calculating cut-offs                               ... done
Initializing the effective Hamiltonian             ... done
Setting up the integral package (SHARK)            ... done
Starting the Coulomb interaction                   ... done (   0.0 sec)
Reading the grid                                   ... done
Mapping shells                                     ... done
Starting the XC term evaluation                    ... done (   0.0 sec)
  promolecular density results
     # of electrons  =     57.997078570
     EX              =    -63.380072719
     EC              =     -2.151298938
     EX+EC           =    -65.531371657
Transforming the Hamiltonian                       ... done (   0.0 sec)
Diagonalizing the Hamiltonian                      ... done (   0.0 sec)
Back transforming the eigenvectors                 ... done (   0.0 sec)
Now organizing SCF variables                       ... done
                      ------------------
                      INITIAL GUESS DONE (   0.1 sec)
                      ------------------
-------------------
DFT GRID GENERATION
-------------------

General Integration Accuracy     IntAcc      ... 4.388
Radial Grid Type                 RadialGrid  ... OptM3 with GC (2021)
Angular Grid (max. ang.)         AngularGrid ... 4 (Lebedev-302)
Angular grid pruning method      GridPruning ... 4 (adaptive)
Weight generation scheme         WeightScheme... Becke
Basis function cutoff            BFCut       ... 1.0000e-11
Integration weight cutoff        WCut        ... 1.0000e-14
Angular grids for H and He will be reduced by one unit
Partially contracted basis set               ... off
Rotationally invariant grid construction     ... off

Total number of grid points                  ...    53879
Total number of batches                      ...      847
Average number of points per batch           ...       63
Average number of grid points per atom       ...     4898
Time for grid setup =    0.358 sec

--------------------
COSX GRID GENERATION
--------------------

GRIDX 1
-------
General Integration Accuracy     IntAcc      ... 3.816
Radial Grid Type                 RadialGrid  ... OptM3 with GC (2021)
Angular Grid (max. ang.)         AngularGrid ... 1 (Lebedev-50)
Angular grid pruning method      GridPruning ... 4 (adaptive)
Weight generation scheme         WeightScheme... Becke
Basis function cutoff            BFCut       ... 1.0000e-11
Integration weight cutoff        WCut        ... 1.0000e-14
Angular grids for H and He will be reduced by one unit
Partially contracted basis set               ... on
Rotationally invariant grid construction     ... off

Total number of grid points                  ...     6798
Total number of batches                      ...      111
Average number of points per batch           ...       61
Average number of grid points per atom       ...      618
UseSFitting                                  ... on

GRIDX 2
-------
General Integration Accuracy     IntAcc      ... 4.020
Radial Grid Type                 RadialGrid  ... OptM3 with GC (2021)
Angular Grid (max. ang.)         AngularGrid ... 2 (Lebedev-110)
Angular grid pruning method      GridPruning ... 4 (adaptive)
Weight generation scheme         WeightScheme... Becke
Basis function cutoff            BFCut       ... 1.0000e-11
Integration weight cutoff        WCut        ... 1.0000e-14
Angular grids for H and He will be reduced by one unit
Partially contracted basis set               ... on
Rotationally invariant grid construction     ... off

Total number of grid points                  ...    14994
Total number of batches                      ...      240
Average number of points per batch           ...       62
Average number of grid points per atom       ...     1363
UseSFitting                                  ... on

GRIDX 3
-------
General Integration Accuracy     IntAcc      ... 4.338
Radial Grid Type                 RadialGrid  ... OptM3 with GC (2021)
Angular Grid (max. ang.)         AngularGrid ... 3 (Lebedev-194)
Angular grid pruning method      GridPruning ... 4 (adaptive)
Weight generation scheme         WeightScheme... Becke
Basis function cutoff            BFCut       ... 1.0000e-11
Integration weight cutoff        WCut        ... 1.0000e-14
Angular grids for H and He will be reduced by one unit
Partially contracted basis set               ... on
Rotationally invariant grid construction     ... off

Total number of grid points                  ...    33671
Total number of batches                      ...      530
Average number of points per batch           ...       63
Average number of grid points per atom       ...     3061
UseSFitting                                  ... on

Time for X-Grid setup             =    0.265 sec

--------------
SCF ITERATIONS
--------------
ITER       Energy         Delta-E        Max-DP      RMS-DP      [F,P]     Damp
               ***  Starting incremental Fock matrix formation  ***
  0   -726.6447202754   0.000000000000 0.23517469  0.00538603  0.3088251 0.7000
  1   -726.8361920486  -0.191471773137 0.10536558  0.00295742  0.1074978 0.7000
                               ***Turning on DIIS***
  2   -726.8920470605  -0.055855011930 0.06801055  0.00320200  0.0348695 0.0000
  3   -727.0079653800  -0.115918319462 0.07803481  0.00200075  0.0503734 0.0000
  4   -727.0232334148  -0.015268034822 0.01244275  0.00051738  0.0178419 0.0000
                      *** Initiating the SOSCF procedure ***
                           *** Shutting down DIIS ***
                      *** Re-Reading the Fockian *** 
                      *** Removing any level shift *** 
ITER      Energy       Delta-E        Grad      Rot      Max-DP    RMS-DP
  5   -727.02498680  -0.0017533846  0.000742  0.000742  0.005331  0.000145
               *** Restarting incremental Fock matrix formation ***
  6   -727.02502216  -0.0000353621  0.000578  0.001363  0.003393  0.000137
  7   -727.02499940   0.0000227623  0.001291  0.001100  0.002343  0.000083
  8   -727.02503409  -0.0000346898  0.000087  0.000179  0.000858  0.000020
  9   -727.02503380   0.0000002847  0.000122  0.000119  0.000336  0.000011
 10   -727.02503439  -0.0000005856  0.000020  0.000048  0.000251  0.000006
 11   -727.02503435   0.0000000369  0.000029  0.000029  0.000163  0.000003
                  ***Gradient check signals convergence***
              ***Rediagonalizing the Fockian in SOSCF/NRSCF***

               *****************************************************
               *                     SUCCESS                       *
               *           SCF CONVERGED AFTER  12 CYCLES          *
               *****************************************************

Old exchange energy                            =    -12.758446136 Eh
New exchange energy                            =    -12.758449590 Eh
Exchange energy change after final integration =     -0.000003454 Eh
Total energy after final integration           =   -727.025037865 Eh
Final COS-X integration done in                =     0.875 sec

----------------
TOTAL SCF ENERGY
----------------

Total Energy       :         -727.02503787 Eh          -19783.35705 eV

Components:
Nuclear Repulsion  :          360.18538475 Eh            9801.14260 eV
Electronic Energy  :        -1087.21042261 Eh          -29584.49965 eV
One Electron Energy:        -1715.54735244 Eh          -46682.41675 eV
Two Electron Energy:          628.33692983 Eh           17097.91710 eV
Max COSX asymmetry :            0.00000333 Eh               0.00009 eV

Virial components:
Potential Energy   :        -1451.11522282 Eh          -39486.85269 eV
Kinetic Energy     :          724.09018496 Eh           19703.49564 eV
Virial Ratio       :            2.00405316


DFT components:
N(Alpha)           :       29.000037935292 electrons
N(Beta)            :       29.000037935292 electrons
N(Total)           :       58.000075870583 electrons
E(X)               :      -50.735340782008 Eh       
E(C)               :       -2.524558338327 Eh       
E(XC)              :      -53.259899120335 Eh       
DFET-embed. en.    :        0.000000000000 Eh       

---------------
SCF CONVERGENCE
---------------

  Last Energy change         ...   -5.7915e-08  Tolerance :   1.0000e-08
  Last MAX-Density change    ...    4.4409e-15  Tolerance :   1.0000e-07
  Last RMS-Density change    ...    8.6523e-17  Tolerance :   5.0000e-09
  Last Orbital Gradient      ...    2.3813e-06  Tolerance :   1.0000e-05
  Last Orbital Rotation      ...    2.6465e-06  Tolerance :   1.0000e-05

             **** THE GBW FILE WAS UPDATED (SVP_B3LYP_C2_wt_dlpno_neg.gbw) ****
             **** DENSITY SVP_B3LYP_C2_wt_dlpno_neg.scfp WAS UPDATED ****
             **** ENERGY FILE WAS UPDATED (SVP_B3LYP_C2_wt_dlpno_neg.en.tmp) ****
             **** THE GBW FILE WAS UPDATED (SVP_B3LYP_C2_wt_dlpno_neg.gbw) ****
             **** DENSITY SVP_B3LYP_C2_wt_dlpno_neg.scfp WAS UPDATED ****
----------------
ORBITAL ENERGIES
----------------

  NO   OCC          E(Eh)            E(eV) 
   0   2.0000     -89.111120     -2424.8369 
   1   2.0000     -24.779614      -674.2876 
   2   2.0000     -19.136240      -520.7236 
   3   2.0000     -19.121475      -520.3218 
   4   2.0000     -10.240427      -278.6562 
   5   2.0000     -10.204313      -277.6735 
   6   2.0000      -8.174055      -222.4273 
   7   2.0000      -6.146278      -167.2487 
   8   2.0000      -6.140056      -167.0794 
   9   2.0000      -6.139002      -167.0507 
  10   2.0000      -1.336968       -36.3807 
  11   2.0000      -1.099584       -29.9212 
  12   2.0000      -0.995255       -27.0823 
  13   2.0000      -0.812657       -22.1135 
  14   2.0000      -0.717275       -19.5181 
  15   2.0000      -0.664502       -18.0820 
  16   2.0000      -0.571630       -15.5548 
  17   2.0000      -0.556731       -15.1494 
  18   2.0000      -0.539283       -14.6746 
  19   2.0000      -0.487875       -13.2758 
  20   2.0000      -0.472716       -12.8633 
  21   2.0000      -0.444828       -12.1044 
  22   2.0000      -0.425049       -11.5662 
  23   2.0000      -0.400942       -10.9102 
  24   2.0000      -0.394919       -10.7463 
  25   2.0000      -0.373180       -10.1547 
  26   2.0000      -0.325887        -8.8678 
  27   2.0000      -0.312709        -8.5092 
  28   2.0000      -0.298116        -8.1121 
  29   0.0000       0.034032         0.9261 
  30   0.0000       0.041459         1.1282 
  31   0.0000       0.075475         2.0538 
  32   0.0000       0.087025         2.3681 
  33   0.0000       0.100697         2.7401 
  34   0.0000       0.117154         3.1879 
  35   0.0000       0.118411         3.2221 
  36   0.0000       0.128248         3.4898 
  37   0.0000       0.174721         4.7544 
  38   0.0000       0.217383         5.9153 
  39   0.0000       0.355809         9.6821 
  40   0.0000       0.394861        10.7447 
  41   0.0000       0.420231        11.4351 
  42   0.0000       0.437067        11.8932 
  43   0.0000       0.457580        12.4514 
  44   0.0000       0.497630        13.5412 
  45   0.0000       0.589558        16.0427 
  46   0.0000       0.615062        16.7367 
  47   0.0000       0.621407        16.9093 
  48   0.0000       0.634460        17.2645 
  49   0.0000       0.642578        17.4854 
  50   0.0000       0.659294        17.9403 
  51   0.0000       0.683125        18.5888 
  52   0.0000       0.687500        18.7078 
  53   0.0000       0.703990        19.1565 
  54   0.0000       0.725944        19.7539 
  55   0.0000       0.736310        20.0360 
  56   0.0000       0.759086        20.6558 
  57   0.0000       0.835158        22.7258 
  58   0.0000       0.853197        23.2167 
  59   0.0000       0.910276        24.7699 
  60   0.0000       0.972170        26.4541 
  61   0.0000       0.993486        27.0341 
  62   0.0000       1.031818        28.0772 
  63   0.0000       1.045825        28.4583 
  64   0.0000       1.078841        29.3567 
  65   0.0000       1.094703        29.7884 
  66   0.0000       1.151291        31.3282 
  67   0.0000       1.175914        31.9983 
  68   0.0000       1.179262        32.0893 
  69   0.0000       1.274983        34.6941 
  70   0.0000       1.295228        35.2449 
  71   0.0000       1.314890        35.7800 
  72   0.0000       1.359290        36.9882 
  73   0.0000       1.402143        38.1542 
  74   0.0000       1.515346        41.2347 
  75   0.0000       1.531605        41.6771 
  76   0.0000       1.596838        43.4522 
  77   0.0000       1.706601        46.4390 
  78   0.0000       1.725207        46.9453 
  79   0.0000       1.768195        48.1150 
  80   0.0000       1.786974        48.6260 
  81   0.0000       1.822617        49.5959 
  82   0.0000       1.833806        49.9004 
  83   0.0000       1.860961        50.6393 
  84   0.0000       1.872585        50.9556 
  85   0.0000       1.941781        52.8385 
  86   0.0000       2.075182        56.4686 
  87   0.0000       2.173426        59.1419 
  88   0.0000       2.226222        60.5786 
  89   0.0000       2.359945        64.2174 
  90   0.0000       2.400504        65.3210 
  91   0.0000       2.516038        68.4649 
  92   0.0000       2.566530        69.8388 
  93   0.0000       2.617086        71.2145 
  94   0.0000       2.621052        71.3224 
  95   0.0000       2.639170        71.8155 
  96   0.0000       2.640587        71.8540 
  97   0.0000       2.654131        72.2226 
  98   0.0000       2.734492        74.4093 
  99   0.0000       2.768336        75.3303 
 100   0.0000       2.806862        76.3786 
 101   0.0000       2.858961        77.7963 
 102   0.0000       2.907810        79.1255 
 103   0.0000       2.931128        79.7600 
 104   0.0000       2.969401        80.8015 
 105   0.0000       2.974003        80.9267 
 106   0.0000       3.001624        81.6784 
 107   0.0000       3.023403        82.2710 
 108   0.0000       3.135276        85.3152 
 109   0.0000       3.203369        87.1681 
 110   0.0000       3.251714        88.4836 
 111   0.0000       3.421645        93.1077 
 112   0.0000       3.627644        98.7132 

                    ********************************
                    * MULLIKEN POPULATION ANALYSIS *
                    ********************************

-----------------------
MULLIKEN ATOMIC CHARGES
-----------------------
   0 C :   -0.131627
   1 S :    0.964454
   2 O :   -0.427257
   3 F :   -0.207296
   4 O :   -0.473524
   5 C :    0.058563
   6 H :    0.049217
   7 H :    0.074267
   8 H :    0.024682
   9 H :    0.043077
  10 H :    0.025445
Sum of atomic charges:   -0.0000000

--------------------------------
MULLIKEN REDUCED ORBITAL CHARGES
--------------------------------
  0 C s       :     3.079490  s :     3.079490
      pz      :     1.058302  p :     3.016942
      px      :     0.970672
      py      :     0.987969
      dz2     :     0.010049  d :     0.035195
      dxz     :     0.005771
      dyz     :     0.003608
      dx2y2   :     0.003393
      dxy     :     0.012373
  1 S s       :     5.307403  s :     5.307403
      pz      :     2.923892  p :     8.928776
      px      :     3.040178
      py      :     2.964706
      dz2     :     0.171957  d :     0.799368
      dxz     :     0.159604
      dyz     :     0.172797
      dx2y2   :     0.127175
      dxy     :     0.167835
  2 O s       :     3.835668  s :     3.835668
      pz      :     1.645267  p :     4.572198
      px      :     1.382263
      py      :     1.544669
      dz2     :     0.002378  d :     0.019391
      dxz     :     0.004633
      dyz     :     0.001539
      dx2y2   :     0.005229
      dxy     :     0.005612
  3 F s       :     3.910109  s :     3.910109
      pz      :     1.783721  p :     5.286181
      px      :     1.856277
      py      :     1.646183
      dz2     :     0.001629  d :     0.011006
      dxz     :     0.001028
      dyz     :     0.003637
      dx2y2   :     0.002479
      dxy     :     0.002234
  4 O s       :     3.859056  s :     3.859056
      pz      :     1.230139  p :     4.597263
      px      :     1.699626
      py      :     1.667498
      dz2     :     0.007481  d :     0.017205
      dxz     :     0.004380
      dyz     :     0.004817
      dx2y2   :     0.000293
      dxy     :     0.000234
  5 C s       :     2.955101  s :     2.955101
      pz      :     0.987400  p :     2.957061
      px      :     0.955131
      py      :     1.014530
      dz2     :     0.006830  d :     0.029275
      dxz     :     0.007583
      dyz     :     0.003366
      dx2y2   :     0.003178
      dxy     :     0.008319
  6 H s       :     0.927383  s :     0.927383
      pz      :     0.012459  p :     0.023400
      px      :     0.005945
      py      :     0.004996
  7 H s       :     0.902558  s :     0.902558
      pz      :     0.004714  p :     0.023175
      px      :     0.005991
      py      :     0.012470
  8 H s       :     0.950441  s :     0.950441
      pz      :     0.005621  p :     0.024876
      px      :     0.009256
      py      :     0.009999
  9 H s       :     0.932272  s :     0.932272
      pz      :     0.012634  p :     0.024651
      px      :     0.006198
      py      :     0.005819
 10 H s       :     0.949811  s :     0.949811
      pz      :     0.005109  p :     0.024744
      px      :     0.007013
      py      :     0.012621


                     *******************************
                     * LOEWDIN POPULATION ANALYSIS *
                     *******************************

----------------------
LOEWDIN ATOMIC CHARGES
----------------------
   0 C :   -0.150223
   1 S :    1.169687
   2 O :   -0.471275
   3 F :   -0.154920
   4 O :   -0.519110
   5 C :   -0.041563
   6 H :    0.028731
   7 H :    0.044856
   8 H :    0.032769
   9 H :    0.033567
  10 H :    0.027481

-------------------------------
LOEWDIN REDUCED ORBITAL CHARGES
-------------------------------
  0 C s       :     2.903771  s :     2.903771
      pz      :     1.081562  p :     3.165227
      px      :     1.037883
      py      :     1.045782
      dz2     :     0.022013  d :     0.081225
      dxz     :     0.015893
      dyz     :     0.007193
      dx2y2   :     0.008507
      dxy     :     0.027619
  1 S s       :     5.042623  s :     5.042623
      pz      :     2.891293  p :     8.739100
      px      :     2.961922
      py      :     2.885886
      dz2     :     0.235178  d :     1.048589
      dxz     :     0.193064
      dyz     :     0.228925
      dx2y2   :     0.161150
      dxy     :     0.230271
  2 O s       :     3.674603  s :     3.674603
      pz      :     1.672685  p :     4.765600
      px      :     1.499218
      py      :     1.593697
      dz2     :     0.004044  d :     0.031073
      dxz     :     0.006844
      dyz     :     0.002310
      dx2y2   :     0.007736
      dxy     :     0.010139
  3 F s       :     3.780192  s :     3.780192
      pz      :     1.807315  p :     5.358126
      px      :     1.860929
      py      :     1.689881
      dz2     :     0.002079  d :     0.016602
      dxz     :     0.001435
      dyz     :     0.006228
      dx2y2   :     0.003782
      dxy     :     0.003077
  4 O s       :     3.705310  s :     3.705310
      pz      :     1.378710  p :     4.786159
      px      :     1.719206
      py      :     1.688243
      dz2     :     0.015189  d :     0.027641
      dxz     :     0.005287
      dyz     :     0.006533
      dx2y2   :     0.000354
      dxy     :     0.000278
  5 C s       :     2.820571  s :     2.820571
      pz      :     1.042789  p :     3.146849
      px      :     1.028593
      py      :     1.075467
      dz2     :     0.016325  d :     0.074143
      dxz     :     0.020946
      dyz     :     0.007807
      dx2y2   :     0.008342
      dxy     :     0.020723
  6 H s       :     0.898677  s :     0.898677
      pz      :     0.038770  p :     0.072592
      px      :     0.019234
      py      :     0.014588
  7 H s       :     0.883301  s :     0.883301
      pz      :     0.014137  p :     0.071843
      px      :     0.018283
      py      :     0.039423
  8 H s       :     0.897665  s :     0.897665
      pz      :     0.016178  p :     0.069566
      px      :     0.026136
      py      :     0.027253
  9 H s       :     0.896218  s :     0.896218
      pz      :     0.036920  p :     0.070215
      px      :     0.017977
      py      :     0.015319
 10 H s       :     0.903133  s :     0.903133
      pz      :     0.014251  p :     0.069386
      px      :     0.019538
      py      :     0.035597


                      *****************************
                      * MAYER POPULATION ANALYSIS *
                      *****************************

  NA   - Mulliken gross atomic population
  ZA   - Total nuclear charge
  QA   - Mulliken gross atomic charge
  VA   - Mayer's total valence
  BVA  - Mayer's bonded valence
  FA   - Mayer's free valence

  ATOM       NA         ZA         QA         VA         BVA        FA
  0 C      6.1316     6.0000    -0.1316     4.0048     4.0048    -0.0000
  1 S     15.0355    16.0000     0.9645     5.4782     5.4782    -0.0000
  2 O      8.4273     8.0000    -0.4273     1.9954     1.9954    -0.0000
  3 F      9.2073     9.0000    -0.2073     1.1111     1.1111    -0.0000
  4 O      8.4735     8.0000    -0.4735     1.9569     1.9569    -0.0000
  5 C      5.9414     6.0000     0.0586     4.0108     4.0108    -0.0000
  6 H      0.9508     1.0000     0.0492     0.9852     0.9852    -0.0000
  7 H      0.9257     1.0000     0.0743     0.9966     0.9966    -0.0000
  8 H      0.9753     1.0000     0.0247     0.9903     0.9903    -0.0000
  9 H      0.9569     1.0000     0.0431     1.0041     1.0041    -0.0000
 10 H      0.9746     1.0000     0.0254     0.9959     0.9959    -0.0000

  Mayer bond orders larger than 0.100000
B(  0-C ,  1-S ) :   0.9021 B(  0-C ,  5-C ) :   1.0793 B(  0-C ,  6-H ) :   0.9328 
B(  0-C ,  7-H ) :   0.9386 B(  1-S ,  2-O ) :   1.7976 B(  1-S ,  3-F ) :   0.9809 
B(  1-S ,  4-O ) :   1.7552 B(  5-C ,  8-H ) :   0.9565 B(  5-C ,  9-H ) :   0.9684 
B(  5-C , 10-H ) :   0.9712 

-------
TIMINGS
-------

Total SCF time: 0 days 0 hours 0 min 8 sec 

Total time                  ....       8.167 sec
Sum of individual times     ....       8.030 sec  ( 98.3%)

Fock matrix formation       ....       7.214 sec  ( 88.3%)
  Split-RI-J                ....       0.685 sec  (  9.5% of F)
  Chain of spheres X        ....       4.945 sec  ( 68.6% of F)
  XC integration            ....       1.560 sec  ( 21.6% of F)
    Basis function eval.    ....       0.657 sec  ( 42.1% of XC)
    Density eval.           ....       0.316 sec  ( 20.3% of XC)
    XC-Functional eval.     ....       0.192 sec  ( 12.3% of XC)
    XC-Potential eval.      ....       0.293 sec  ( 18.8% of XC)
Diagonalization             ....       0.025 sec  (  0.3%)
Density matrix formation    ....       0.003 sec  (  0.0%)
Population analysis         ....       0.005 sec  (  0.1%)
Initial guess               ....       0.061 sec  (  0.8%)
Orbital Transformation      ....       0.000 sec  (  0.0%)
Orbital Orthonormalization  ....       0.000 sec  (  0.0%)
DIIS solution               ....       0.017 sec  (  0.2%)
SOSCF solution              ....       0.019 sec  (  0.2%)
Grid generation             ....       0.687 sec  (  8.4%)

Maximum memory used throughout the entire SCF-calculation: 48.3 MB


-------------------------------------------------------------------------------
                          DFT DISPERSION CORRECTION                            
                                                                               
                              DFTD3 V3.1  Rev 1                                
                          USING Becke-Johnson damping                          
-------------------------------------------------------------------------------
The B3LYP functional is recognized
Active option DFTDOPT                   ...         4   

molecular C6(AA) [au] = 1445.771281 


            DFT-D V3
 parameters
 s6 scaling factor         :     1.0000 
 a1 scaling factor         :     0.3981 
 s8 scaling factor         :     1.9889 
 a2 scaling factor         :     4.4211 
 ad hoc parameters k1-k3   :    16.0000     1.3333    -4.0000 

 Edisp/kcal,au: -9.843749147444  -0.015687011120 
 E6   /kcal   :  -4.532168958 
 E8   /kcal   :  -5.311580190 
 % E8         :  53.958914538 

-------------------------   ----------------
Dispersion correction           -0.015687011
-------------------------   ----------------


-------------------------   --------------------
FINAL SINGLE POINT ENERGY      -727.040724876322
-------------------------   --------------------


                            ***************************************
                            *     ORCA property calculations      *
                            ***************************************

                                    ---------------------
                                    Active property flags
                                    ---------------------
   (+) Dipole Moment


------------------------------------------------------------------------------
                       ORCA ELECTRIC PROPERTIES CALCULATION
------------------------------------------------------------------------------

Dipole Moment Calculation                       ... on
Quadrupole Moment Calculation                   ... off
Polarizability Calculation                      ... off
GBWName                                         ... SVP_B3LYP_C2_wt_dlpno_neg.gbw
Electron density file                           ... SVP_B3LYP_C2_wt_dlpno_neg.scfp
The origin for moment calculation is the CENTER OF MASS  = (-12.297390, -9.059649 -0.859158)

-------------
DIPOLE MOMENT
-------------
                                X             Y             Z
Electronic contribution:     -6.77729       6.71409      -2.48420
Nuclear contribution   :      8.15840      -7.14411       1.72305
                        -----------------------------------------
Total Dipole Moment    :      1.38111      -0.43002      -0.76114
                        -----------------------------------------
Magnitude (a.u.)       :      1.63454
Magnitude (Debye)      :      4.15467



--------------------
Rotational spectrum 
--------------------
 
Rotational constants in cm-1:     0.153926     0.078297     0.077402 
Rotational constants in MHz :  4614.585804  2347.272644  2320.438903 

 Dipole components along the rotational axes: 
x,y,z [a.u.] :     1.158979     0.574784    -0.999057 
x,y,z [Debye]:     2.945891     1.460986    -2.539400 

 

Timings for individual modules:

Sum of individual times         ...       12.528 sec (=   0.209 min)
GTO integral calculation        ...        2.337 sec (=   0.039 min)  18.6 %
SCF iterations                  ...       10.192 sec (=   0.170 min)  81.4 %
                             ****ORCA TERMINATED NORMALLY****
TOTAL RUN TIME: 0 days 0 hours 0 minutes 13 seconds 40 msec
