
                                        *****************
                                        * O   R   C   A *
                                        *****************

                                            #,                                       
                                            ###                                      
                                            ####                                     
                                            #####                                    
                                            ######                                   
                                           ########,                                 
                                     ,,################,,,,,                         
                               ,,#################################,,                 
                          ,,##########################################,,             
                       ,#########################################, ''#####,          
                    ,#############################################,,   '####,        
                  ,##################################################,,,,####,       
                ,###########''''           ''''###############################       
              ,#####''   ,,,,##########,,,,          '''####'''          '####       
            ,##' ,,,,###########################,,,                        '##       
           ' ,,###''''                  '''############,,,                           
         ,,##''                                '''############,,,,        ,,,,,,###''
      ,#''                                            '''#######################'''  
     '                                                          ''''####''''         
             ,#######,   #######,   ,#######,      ##                                
            ,#'     '#,  ##    ##  ,#'     '#,    #''#        ######   ,####,        
            ##       ##  ##   ,#'  ##            #'  '#       #        #'  '#        
            ##       ##  #######   ##           ,######,      #####,   #    #        
            '#,     ,#'  ##    ##  '#,     ,#' ,#      #,         ##   #,  ,#        
             '#######'   ##     ##  '#######'  #'      '#     #####' # '####'        



                  #######################################################
                  #                        -***-                        #
                  #          Department of theory and spectroscopy      #
                  #    Directorship and core code : Frank Neese         #
                  #        Max Planck Institute fuer Kohlenforschung    #
                  #                Kaiser Wilhelm Platz 1               #
                  #                 D-45470 Muelheim/Ruhr               #
                  #                      Germany                        #
                  #                                                     #
                  #                  All rights reserved                #
                  #                        -***-                        #
                  #######################################################


                         Program Version 5.0.0 -  RELEASE  -
                                (SVN: $Rev: 19529$)
                ($Date: 2021-06-28 11:36:33 +0200 (Mo, 28 Jun 2021) $)


 With contributions from (in alphabetic order):
   Daniel Aravena         : Magnetic Suceptibility
   Michael Atanasov       : Ab Initio Ligand Field Theory (pilot matlab implementation)
   Alexander A. Auer      : GIAO ZORA, VPT2 properties, NMR spectrum
   Ute Becker             : Parallelization
   Giovanni Bistoni       : ED, misc. LED, open-shell LED, HFLD
   Martin Brehm           : Molecular dynamics
   Dmytro Bykov           : SCF Hessian
   Vijay G. Chilkuri      : MRCI spin determinant printing, contributions to CSF-ICE
   Dipayan Datta          : RHF DLPNO-CCSD density
   Achintya Kumar Dutta   : EOM-CC, STEOM-CC
   Dmitry Ganyushin       : Spin-Orbit,Spin-Spin,Magnetic field MRCI
   Miquel Garcia          : C-PCM Hessian, Gaussian charge scheme
   Yang Guo               : DLPNO-NEVPT2, F12-NEVPT2, CIM, IAO-localization
   Andreas Hansen         : Spin unrestricted coupled pair/coupled cluster methods
   Benjamin Helmich-Paris : MC-RPA, TRAH-SCF, COSX integrals
   Lee Huntington         : MR-EOM, pCC
   Robert Izsak           : Overlap fitted RIJCOSX, COSX-SCS-MP3, EOM
   Marcus Kettner         : VPT2
   Christian Kollmar      : KDIIS, OOCD, Brueckner-CCSD(T), CCSD density, CASPT2, CASPT2-K
   Simone Kossmann        : Meta GGA functionals, TD-DFT gradient, OOMP2, MP2 Hessian
   Martin Krupicka        : Initial AUTO-CI
   Lucas Lang             : DCDCAS
   Marvin Lechner         : AUTO-CI (C++ implementation), FIC-MRCC
   Dagmar Lenk            : GEPOL surface, SMD
   Dimitrios Liakos       : Extrapolation schemes; Compound Job, initial MDCI parallelization
   Dimitrios Manganas     : Further ROCIS development; embedding schemes
   Dimitrios Pantazis     : SARC Basis sets
   Anastasios Papadopoulos: AUTO-CI, single reference methods and gradients
   Taras Petrenko         : DFT Hessian,TD-DFT gradient, ASA, ECA, R-Raman, ABS, FL, XAS/XES, NRVS
   Peter Pinski           : DLPNO-MP2, DLPNO-MP2 Gradient
   Christoph Reimann      : Effective Core Potentials
   Marius Retegan         : Local ZFS, SOC
   Christoph Riplinger    : Optimizer, TS searches, QM/MM, DLPNO-CCSD(T), (RO)-DLPNO pert. Triples
   Tobias Risthaus        : Range-separated hybrids, TD-DFT gradient, RPA, STAB
   Michael Roemelt        : Original ROCIS implementation
   Masaaki Saitow         : Open-shell DLPNO-CCSD energy and density
   Barbara Sandhoefer     : DKH picture change effects
   Avijit Sen             : IP-ROCIS
   Kantharuban Sivalingam : CASSCF convergence, NEVPT2, FIC-MRCI
   Bernardo de Souza      : ESD, SOC TD-DFT
   Georgi Stoychev        : AutoAux, RI-MP2 NMR
   Willem Van den Heuvel  : Paramagnetic NMR
   Boris Wezisla          : Elementary symmetry handling
   Frank Wennmohs         : Technical directorship


 We gratefully acknowledge several colleagues who have allowed us to
 interface, adapt or use parts of their codes:
   Stefan Grimme, W. Hujo, H. Kruse, P. Pracht,  : VdW corrections, initial TS optimization,
                  C. Bannwarth, S. Ehlert          DFT functionals, gCP, sTDA/sTD-DF
   Ed Valeev, F. Pavosevic, A. Kumar             : LibInt (2-el integral package), F12 methods
   Garnet Chan, S. Sharma, J. Yang, R. Olivares  : DMRG
   Ulf Ekstrom                                   : XCFun DFT Library
   Mihaly Kallay                                 : mrcc  (arbitrary order and MRCC methods)
   Jiri Pittner, Ondrej Demel                    : Mk-CCSD
   Frank Weinhold                                : gennbo (NPA and NBO analysis)
   Christopher J. Cramer and Donald G. Truhlar   : smd solvation model
   Lars Goerigk                                  : TD-DFT with DH, B97 family of functionals
   V. Asgeirsson, H. Jonsson                     : NEB implementation
   FAccTs GmbH                                   : IRC, NEB, NEB-TS, DLPNO-Multilevel, CI-OPT
                                                   MM, QMMM, 2- and 3-layer-ONIOM, Crystal-QMMM,
                                                   LR-CPCM, SF, NACMEs, symmetry and pop. for TD-DFT,
                                                   nearIR, NL-DFT gradient (VV10), updates on ESD,
                                                   ML-optimized integration grids
   S Lehtola, MJT Oliveira, MAL Marques          : LibXC Library
   Liviu Ungur et al                             : ANISO software


 Your calculation uses the libint2 library for the computation of 2-el integrals
 For citations please refer to: http://libint.valeyev.net

 Your ORCA version has been built with support for libXC version: 5.1.0
 For citations please refer to: https://tddft.org/programs/libxc/

 This ORCA versions uses:
   CBLAS   interface :  Fast vector & matrix operations
   LAPACKE interface :  Fast linear algebra routines
   SCALAPACK package :  Parallel linear algebra routines
   Shared memory     :  Shared parallel matrices
   BLAS/LAPACK       :  OpenBLAS 0.3.15  USE64BITINT DYNAMIC_ARCH NO_AFFINITY Haswell SINGLE_THREADED
        Core in use  :  Haswell
   Copyright (c) 2011-2014, The OpenBLAS Project


Your calculation utilizes the atom-pairwise dispersion correction
with the Becke-Johnson damping scheme (D3BJ)
Cite in your paper:
S.Grimme, S.Ehrlich, L.Goerigk, J Comput Chem, (2011), 32, 1456–1465 
S.Grimme, J.Antony, S.Ehrlich and H.Krieg, J.Chem.Phys., 132, (2010), 154104 
   

================================================================================

----- Orbital basis set information -----
Your calculation utilizes the basis: def2-SVPD
   F. Weigend and R. Ahlrichs, Phys. Chem. Chem. Phys. 7, 3297 (2005).
   D. Rappoport and F. Furche, J. Chem. Phys. 133 134105 (2010).

----- AuxJ basis set information -----
Your calculation utilizes the auxiliary basis: def2/J
   F. Weigend, Phys. Chem. Chem. Phys. 8, 1057 (2006).

================================================================================
                                        WARNINGS
                       Please study these warnings very carefully!
================================================================================


INFO   : the flag for use of the SHARK integral package has been found!

================================================================================
                                       INPUT FILE
================================================================================
NAME = 14Feb_SVPD_B3LYP_C3_wt_wb97_typ1_pos.com
|  1> !B3LYP D3BJ RIJCOSX def2-SVPD def2/J TightSCF 
|  2> *xyz 0 1
|  3> C          1.96337       -1.74915       -1.89689
|  4> N          2.73849       -2.01517       -3.09711
|  5> C          4.04974       -2.15472       -3.15204
|  6> N          4.65821       -1.98629       -4.31866
|  7> C          4.76423       -2.45444       -2.05049
|  8> H          4.28736       -2.77626       -1.21750
|  9> H          5.75082       -2.65835       -2.12599
| 10> H          2.34518       -1.69027       -3.97145
| 11> H          4.10900       -1.59268       -5.07176
| 12> H          5.64910       -2.15646       -4.42724
| 13> C          2.08852       -0.30091       -1.41520
| 14> H          2.23127       -2.45162       -1.10264
| 15> H          0.93025       -1.97780       -2.15544
| 16> C          1.96899        0.73358       -2.53565
| 17> H          3.05136       -0.16860       -0.91187
| 18> H          1.31650       -0.13623       -0.65725
| 19> H          2.73046        0.55745       -3.26643
| 20> H          2.08619        1.71595       -2.12808
| 21> H          1.00672        0.65098       -2.99620
| 22> *
| 23> %MaxCore 64000
| 24> 
| 25> %pal nprocs 8
| 26> end  
| 27> 
| 28> %scf
| 29>   MaxIter 150
| 30> end
| 31> 
| 32> 
| 33>                          ****END OF INPUT****
================================================================================

                       ****************************
                       * Single Point Calculation *
                       ****************************

---------------------------------
CARTESIAN COORDINATES (ANGSTROEM)
---------------------------------
  C      1.963370   -1.749150   -1.896890
  N      2.738490   -2.015170   -3.097110
  C      4.049740   -2.154720   -3.152040
  N      4.658210   -1.986290   -4.318660
  C      4.764230   -2.454440   -2.050490
  H      4.287360   -2.776260   -1.217500
  H      5.750820   -2.658350   -2.125990
  H      2.345180   -1.690270   -3.971450
  H      4.109000   -1.592680   -5.071760
  H      5.649100   -2.156460   -4.427240
  C      2.088520   -0.300910   -1.415200
  H      2.231270   -2.451620   -1.102640
  H      0.930250   -1.977800   -2.155440
  C      1.968990    0.733580   -2.535650
  H      3.051360   -0.168600   -0.911870
  H      1.316500   -0.136230   -0.657250
  H      2.730460    0.557450   -3.266430
  H      2.086190    1.715950   -2.128080
  H      1.006720    0.650980   -2.996200

----------------------------
CARTESIAN COORDINATES (A.U.)
----------------------------
  NO LB      ZA    FRAG     MASS         X           Y           Z
   0 C     6.0000    0    12.011    3.710232   -3.305414   -3.584603
   1 N     7.0000    0    14.007    5.174996   -3.808119   -5.852690
   2 C     6.0000    0    12.011    7.652900   -4.071831   -5.956492
   3 N     7.0000    0    14.007    8.802741   -3.753544   -8.161085
   4 C     6.0000    0    12.011    9.003090   -4.638219   -3.874865
   5 H     1.0000    0     1.008    8.101936   -5.246371   -2.300742
   6 H     1.0000    0     1.008   10.867475   -5.023553   -4.017539
   7 H     1.0000    0     1.008    4.431748   -3.194147   -7.504953
   8 H     1.0000    0     1.008    7.764885   -3.009729   -9.584237
   9 H     1.0000    0     1.008   10.675252   -4.075119   -8.366271
  10 C     6.0000    0    12.011    3.946731   -0.568637   -2.674340
  11 H     1.0000    0     1.008    4.216489   -4.632890   -2.083688
  12 H     1.0000    0     1.008    1.757918   -3.737500   -4.073191
  13 C     6.0000    0    12.011    3.720852    1.386265   -4.791684
  14 H     1.0000    0     1.008    5.766235   -0.318608   -1.723185
  15 H     1.0000    0     1.008    2.487824   -0.257437   -1.242023
  16 H     1.0000    0     1.008    5.159822    1.053428   -6.172658
  17 H     1.0000    0     1.008    3.942328    3.242676   -4.021488
  18 H     1.0000    0     1.008    1.902425    1.230174   -5.661997

--------------------------------
INTERNAL COORDINATES (ANGSTROEM)
--------------------------------
 C      0   0   0     0.000000000000     0.00000000     0.00000000
 N      1   0   0     1.453308536822     0.00000000     0.00000000
 C      2   1   0     1.319798495945   125.70558414     0.00000000
 N      3   2   1     1.326501651036   118.61421616   200.38175597
 C      3   2   1     1.346751811211   121.10321023    20.01727886
 H      5   3   2     1.012346506588   119.59453702    13.56866466
 H      5   3   2     1.010266977685   120.12495650   173.22985716
 H      2   1   3     1.012286126399   116.57303880   207.34688220
 H      4   3   2     1.011790524862   117.06612917    10.99918763
 H      4   3   2     1.011242027113   121.50248980   185.08027543
 C      1   2   3     1.531367648933   112.91044782    74.86377029
 H      1   2   3     1.093648743153   110.58185151   309.76306189
 H      1   2   3     1.089250136286   105.74830411   195.84517559
 C     11   1   2     1.529661787292   113.75259684    44.99004915
 H     11   1   2     1.094489785517   109.32177231   283.03708796
 H     11   1   2     1.094359440632   107.60872258   167.76513934
 H     14  11   1     1.069998946822   109.47123491   301.16694694
 H     14  11   1     1.069999982150   109.47128959   181.16744222
 H     14  11   1     1.069996549247   109.47184795    61.16727111

---------------------------
INTERNAL COORDINATES (A.U.)
---------------------------
 C      0   0   0     0.000000000000     0.00000000     0.00000000
 N      1   0   0     2.746355122684     0.00000000     0.00000000
 C      2   1   0     2.494057709298   125.70558414     0.00000000
 N      3   2   1     2.506724836652   118.61421616   200.38175597
 C      3   2   1     2.544992093551   121.10321023    20.01727886
 H      5   3   2     1.913057650082   119.59453702    13.56866466
 H      5   3   2     1.909127909968   120.12495650   173.22985716
 H      2   1   3     1.912943548062   116.57303880   207.34688220
 H      4   3   2     1.912006996885   117.06612917    10.99918763
 H      4   3   2     1.910970486355   121.50248980   185.08027543
 C      1   2   3     2.893865466831   112.91044782    74.86377029
 H      1   2   3     2.066696611266   110.58185151   309.76306189
 H      1   2   3     2.058384448918   105.74830411   195.84517559
 C     11   1   2     2.890641855506   113.75259684    44.99004915
 H     11   1   2     2.068285951000   109.32177231   283.03708796
 H     11   1   2     2.068039634865   107.60872258   167.76513934
 H     14  11   1     2.022004973078   109.47123491   301.16694694
 H     14  11   1     2.022006929563   109.47128959   181.16744222
 H     14  11   1     2.022000442317   109.47184795    61.16727111

---------------------
BASIS SET INFORMATION
---------------------
There are 3 groups of distinct atoms

 Group   1 Type C   : 8s4p2d contracted to 4s2p2d pattern {5111/31/11}
 Group   2 Type N   : 8s4p2d contracted to 4s2p2d pattern {5111/31/11}
 Group   3 Type H   : 4s2p contracted to 2s2p pattern {31/11}

Atom   0C    basis set group =>   1
Atom   1N    basis set group =>   2
Atom   2C    basis set group =>   1
Atom   3N    basis set group =>   2
Atom   4C    basis set group =>   1
Atom   5H    basis set group =>   3
Atom   6H    basis set group =>   3
Atom   7H    basis set group =>   3
Atom   8H    basis set group =>   3
Atom   9H    basis set group =>   3
Atom  10C    basis set group =>   1
Atom  11H    basis set group =>   3
Atom  12H    basis set group =>   3
Atom  13C    basis set group =>   1
Atom  14H    basis set group =>   3
Atom  15H    basis set group =>   3
Atom  16H    basis set group =>   3
Atom  17H    basis set group =>   3
Atom  18H    basis set group =>   3
---------------------------------
AUXILIARY/J BASIS SET INFORMATION
---------------------------------
There are 3 groups of distinct atoms

 Group   1 Type C   : 12s5p4d2f1g contracted to 6s4p3d1f1g pattern {711111/2111/211/2/1}
 Group   2 Type N   : 12s5p4d2f1g contracted to 6s4p3d1f1g pattern {711111/2111/211/2/1}
 Group   3 Type H   : 5s2p1d contracted to 3s1p1d pattern {311/2/1}

Atom   0C    basis set group =>   1
Atom   1N    basis set group =>   2
Atom   2C    basis set group =>   1
Atom   3N    basis set group =>   2
Atom   4C    basis set group =>   1
Atom   5H    basis set group =>   3
Atom   6H    basis set group =>   3
Atom   7H    basis set group =>   3
Atom   8H    basis set group =>   3
Atom   9H    basis set group =>   3
Atom  10C    basis set group =>   1
Atom  11H    basis set group =>   3
Atom  12H    basis set group =>   3
Atom  13C    basis set group =>   1
Atom  14H    basis set group =>   3
Atom  15H    basis set group =>   3
Atom  16H    basis set group =>   3
Atom  17H    basis set group =>   3
Atom  18H    basis set group =>   3


           ************************************************************
           *        Program running with 8 parallel MPI-processes     *
           *              working on a common directory               *
           ************************************************************
------------------------------------------------------------------------------
                           ORCA GTO INTEGRAL CALCULATION
                           -- RI-GTO INTEGRALS CHOSEN --
------------------------------------------------------------------------------
------------------------------------------------------------------------------
                   ___                                                        
                  /   \      - P O W E R E D   B Y -                         
                 /     \                                                     
                 |  |  |   _    _      __       _____    __    __             
                 |  |  |  | |  | |    /  \     |  _  \  |  |  /  |          
                  \  \/   | |  | |   /    \    | | | |  |  | /  /          
                 / \  \   | |__| |  /  /\  \   | |_| |  |  |/  /          
                |  |  |   |  __  | /  /__\  \  |    /   |      \           
                |  |  |   | |  | | |   __   |  |    \   |  |\   \          
                \     /   | |  | | |  |  |  |  | |\  \  |  | \   \       
                 \___/    |_|  |_| |__|  |__|  |_| \__\ |__|  \__/        
                                                                              
                      - O R C A' S   B I G   F R I E N D -                    
                                      &                                       
                       - I N T E G R A L  F E E D E R -                       
                                                                              
 v1 FN, 2020, v2 2021                                                         
------------------------------------------------------------------------------


Reading SHARK input file 14Feb_SVPD_B3LYP_C3_wt_wb97_typ1_pos.SHARKINP.tmp ... ok
----------------------
SHARK INTEGRAL PACKAGE
----------------------

Number of atoms                             ...     19
Number of basis functions                   ...    236
Number of shells                            ...    104
Maximum angular momentum                    ...      2
Integral batch strategy                     ... SHARK/LIBINT Hybrid
RI-J (if used) integral strategy            ... SPLIT-RIJ (Revised 2003 algorithm where possible)
Printlevel                                  ...      1
Contraction scheme used                     ... SEGMENTED contraction
Coulomb Range Separation                    ... NOT USED
Exchange Range Separation                   ... NOT USED
Finite Nucleus Model                        ... NOT USED
Auxiliary Coulomb fitting basis             ... AVAILABLE
   # of basis functions in Aux-J            ...    475
   # of shells in Aux-J                     ...    165
   Maximum angular momentum in Aux-J        ...      4
Auxiliary J/K fitting basis                 ... NOT available
Auxiliary Correlation fitting basis         ... NOT available
Auxiliary 'external' fitting basis          ... NOT available
Integral threshold                          ...     2.500000e-11
Primitive cut-off                           ...     2.500000e-12
Primitive pair pre-selection threshold      ...     2.500000e-12

Calculating pre-screening integrals         ... done (  0.0 sec) Dimension = 104
Organizing shell pair data                  ... done (  0.0 sec)
Shell pair information
Total number of shell pairs                 ...      5460
Shell pairs after pre-screening             ...      5334
Total number of primitive shell pairs       ...     14662
Primitive shell pairs kept                  ...     11738
          la=0 lb=0:   1342 shell pairs
          la=1 lb=0:   1923 shell pairs
          la=1 lb=1:    723 shell pairs
          la=2 lb=0:    717 shell pairs
          la=2 lb=1:    524 shell pairs
          la=2 lb=2:    105 shell pairs

Calculating one electron integrals          ... done (  0.0 sec)
Calculating RI/J V-Matrix + Cholesky decomp.... done (  0.0 sec)
Calculating Nuclear repulsion               ... done (  0.0 sec) ENN=    323.206943662178 Eh

SHARK setup successfully completed in   0.2 seconds

Maximum memory used throughout the entire GTOINT-calculation: 10.5 MB


           ************************************************************
           *        Program running with 8 parallel MPI-processes     *
           *              working on a common directory               *
           ************************************************************
-------------------------------------------------------------------------------
                                 ORCA SCF
-------------------------------------------------------------------------------

------------
SCF SETTINGS
------------
Hamiltonian:
 Density Functional     Method          .... DFT(GTOs)
 Exchange Functional    Exchange        .... B88
   X-Alpha parameter    XAlpha          ....  0.666667
   Becke's b parameter  XBeta           ....  0.004200
 Correlation Functional Correlation     .... LYP
 LDA part of GGA corr.  LDAOpt          .... VWN-5
 Gradients option       PostSCFGGA      .... off
 Hybrid DFT is turned on
   Fraction HF Exchange ScalHFX         ....  0.200000
   Scaling of DF-GGA-X  ScalDFX         ....  0.720000
   Scaling of DF-GGA-C  ScalDFC         ....  0.810000
   Scaling of DF-LDA-C  ScalLDAC        ....  1.000000
   Perturbative correction              ....  0.000000
   Density functional embedding theory  .... OFF
   NL short-range parameter             ....  4.800000
 RI-approximation to the Coulomb term is turned on
   Number of AuxJ basis functions       .... 475
   RIJ-COSX (HFX calculated with COS-X)).... on


General Settings:
 Integral files         IntName         .... 14Feb_SVPD_B3LYP_C3_wt_wb97_typ1_pos
 Hartree-Fock type      HFTyp           .... RHF
 Total Charge           Charge          ....    0
 Multiplicity           Mult            ....    1
 Number of Electrons    NEL             ....   56
 Basis Dimension        Dim             ....  236
 Nuclear Repulsion      ENuc            ....    323.2069436622 Eh

Convergence Acceleration:
 DIIS                   CNVDIIS         .... on
   Start iteration      DIISMaxIt       ....    12
   Startup error        DIISStart       ....  0.200000
   # of expansion vecs  DIISMaxEq       ....     5
   Bias factor          DIISBfac        ....   1.050
   Max. coefficient     DIISMaxC        ....  10.000
 Trust-Rad. Augm. Hess. CNVTRAH         .... auto
   Auto Start mean grad. ratio tolernc. ....  1.125000
   Auto Start start iteration           ....    20
   Auto Start num. interpolation iter.  ....    10
   Max. Number of Micro iterations      ....    16
   Max. Number of Macro iterations      .... Maxiter - #DIIS iter
   Number of Davidson start vectors     ....     2
   Converg. threshold I  (grad. norm)   ....   1.000e-05
   Converg. threshold II (energy diff.) ....   1.000e-08
   Grad. Scal. Fac. for Micro threshold ....   0.100
   Minimum threshold for Micro iter.    ....   0.010
   NR start threshold (gradient norm)   ....   0.001
   Initial trust radius                 ....   0.400
   Minimum AH scaling param. (alpha)    ....   1.000
   Maximum AH scaling param. (alpha)    .... 1000.000
   Orbital update algorithm             .... Taylor
   White noise on init. David. guess    .... on
   Maximum white noise                  ....   0.010
   Quad. conv. algorithm                .... NR
 SOSCF                  CNVSOSCF        .... on
   Start iteration      SOSCFMaxIt      ....   150
   Startup grad/error   SOSCFStart      ....  0.003300
 Level Shifting         CNVShift        .... on
   Level shift para.    LevelShift      ....    0.2500
   Turn off err/grad.   ShiftErr        ....    0.0010
 Zerner damping         CNVZerner       .... off
 Static damping         CNVDamp         .... on
   Fraction old density DampFac         ....    0.7000
   Max. Damping (<1)    DampMax         ....    0.9800
   Min. Damping (>=0)   DampMin         ....    0.0000
   Turn off err/grad.   DampErr         ....    0.1000
 Fernandez-Rico         CNVRico         .... off

SCF Procedure:
 Maximum # iterations   MaxIter         ....   150
 SCF integral mode      SCFMode         .... Direct
   Integral package                     .... SHARK and LIBINT hybrid scheme
 Reset frequency        DirectResetFreq ....    20
 Integral Threshold     Thresh          ....  2.500e-11 Eh
 Primitive CutOff       TCut            ....  2.500e-12 Eh

Convergence Tolerance:
 Convergence Check Mode ConvCheckMode   .... Total+1el-Energy
 Convergence forced     ConvForced      .... 0
 Energy Change          TolE            ....  1.000e-08 Eh
 1-El. energy change                    ....  1.000e-05 Eh
 Orbital Gradient       TolG            ....  1.000e-05
 Orbital Rotation angle TolX            ....  1.000e-05
 DIIS Error             TolErr          ....  5.000e-07


Diagonalization of the overlap matrix:
Smallest eigenvalue                        ... 4.600e-05
Time for diagonalization                   ...    0.013 sec
Threshold for overlap eigenvalues          ... 1.000e-08
Number of eigenvalues below threshold      ... 0
Time for construction of square roots      ...    0.011 sec
Total time needed                          ...    0.025 sec

Time for model grid setup =    0.085 sec

------------------------------
INITIAL GUESS: MODEL POTENTIAL
------------------------------
Loading Hartree-Fock densities                     ... done
Calculating cut-offs                               ... done
Initializing the effective Hamiltonian             ... done
Setting up the integral package (SHARK)            ... done
Starting the Coulomb interaction                   ... done (   0.0 sec)
Reading the grid                                   ... done
Mapping shells                                     ... done
Starting the XC term evaluation                    ... done (   0.1 sec)
  promolecular density results
     # of electrons  =     55.994709231
     EX              =    -42.528532137
     EC              =     -1.836063909
     EX+EC           =    -44.364596045
Transforming the Hamiltonian                       ... done (   0.0 sec)
Diagonalizing the Hamiltonian                      ... done (   0.0 sec)
Back transforming the eigenvectors                 ... done (   0.0 sec)
Now organizing SCF variables                       ... done
                      ------------------
                      INITIAL GUESS DONE (   0.2 sec)
                      ------------------
-------------------
DFT GRID GENERATION
-------------------

General Integration Accuracy     IntAcc      ... 4.388
Radial Grid Type                 RadialGrid  ... OptM3 with GC (2021)
Angular Grid (max. ang.)         AngularGrid ... 4 (Lebedev-302)
Angular grid pruning method      GridPruning ... 4 (adaptive)
Weight generation scheme         WeightScheme... Becke
Basis function cutoff            BFCut       ... 1.0000e-11
Integration weight cutoff        WCut        ... 1.0000e-14
Angular grids for H and He will be reduced by one unit
Partially contracted basis set               ... off
Rotationally invariant grid construction     ... off

Total number of grid points                  ...    82713
Total number of batches                      ...     1299
Average number of points per batch           ...       63
Average number of grid points per atom       ...     4353
Time for grid setup =    0.487 sec

--------------------
COSX GRID GENERATION
--------------------

GRIDX 1
-------
General Integration Accuracy     IntAcc      ... 3.816
Radial Grid Type                 RadialGrid  ... OptM3 with GC (2021)
Angular Grid (max. ang.)         AngularGrid ... 1 (Lebedev-50)
Angular grid pruning method      GridPruning ... 4 (adaptive)
Weight generation scheme         WeightScheme... Becke
Basis function cutoff            BFCut       ... 1.0000e-11
Integration weight cutoff        WCut        ... 1.0000e-14
Angular grids for H and He will be reduced by one unit
Partially contracted basis set               ... on
Rotationally invariant grid construction     ... off

Total number of grid points                  ...    10350
Total number of batches                      ...      174
Average number of points per batch           ...       59
Average number of grid points per atom       ...      545
UseSFitting                                  ... on

GRIDX 2
-------
General Integration Accuracy     IntAcc      ... 4.020
Radial Grid Type                 RadialGrid  ... OptM3 with GC (2021)
Angular Grid (max. ang.)         AngularGrid ... 2 (Lebedev-110)
Angular grid pruning method      GridPruning ... 4 (adaptive)
Weight generation scheme         WeightScheme... Becke
Basis function cutoff            BFCut       ... 1.0000e-11
Integration weight cutoff        WCut        ... 1.0000e-14
Angular grids for H and He will be reduced by one unit
Partially contracted basis set               ... on
Rotationally invariant grid construction     ... off

Total number of grid points                  ...    22508
Total number of batches                      ...      361
Average number of points per batch           ...       62
Average number of grid points per atom       ...     1185
UseSFitting                                  ... on

GRIDX 3
-------
General Integration Accuracy     IntAcc      ... 4.338
Radial Grid Type                 RadialGrid  ... OptM3 with GC (2021)
Angular Grid (max. ang.)         AngularGrid ... 3 (Lebedev-194)
Angular grid pruning method      GridPruning ... 4 (adaptive)
Weight generation scheme         WeightScheme... Becke
Basis function cutoff            BFCut       ... 1.0000e-11
Integration weight cutoff        WCut        ... 1.0000e-14
Angular grids for H and He will be reduced by one unit
Partially contracted basis set               ... on
Rotationally invariant grid construction     ... off

Total number of grid points                  ...    51294
Total number of batches                      ...      811
Average number of points per batch           ...       63
Average number of grid points per atom       ...     2700
UseSFitting                                  ... on

Time for X-Grid setup             =    0.413 sec

--------------
SCF ITERATIONS
--------------
ITER       Energy         Delta-E        Max-DP      RMS-DP      [F,P]     Damp
               ***  Starting incremental Fock matrix formation  ***
  0   -306.4812154030   0.000000000000 0.15720279  0.00366242  0.2429049 0.7000
  1   -306.6382645706  -0.157049167557 0.15060250  0.00271873  0.1269907 0.7000
                               ***Turning on DIIS***
  2   -306.7011679641  -0.062903393491 0.33798801  0.00545669  0.0472521 0.0000
  3   -306.7865128872  -0.085344923073 0.10947937  0.00164236  0.0720393 0.0000
  4   -306.8141505570  -0.027637669805 0.07628338  0.00076717  0.0157063 0.0000
  5   -306.8156139327  -0.001463375755 0.03217517  0.00033437  0.0044272 0.0000
                      *** Initiating the SOSCF procedure ***
                           *** Shutting down DIIS ***
                      *** Re-Reading the Fockian *** 
                      *** Removing any level shift *** 
ITER      Energy       Delta-E        Grad      Rot      Max-DP    RMS-DP
  6   -306.81573862  -0.0001246923  0.000416  0.000416  0.014168  0.000156
               *** Restarting incremental Fock matrix formation ***
  7   -306.81573460   0.0000040210  0.000202  0.000617  0.019771  0.000176
  8   -306.81573599  -0.0000013888  0.000125  0.000277  0.003227  0.000040
  9   -306.81573697  -0.0000009735  0.000068  0.000218  0.003755  0.000037
 10   -306.81573707  -0.0000001040  0.000036  0.000065  0.000184  0.000004
 11   -306.81573714  -0.0000000674  0.000011  0.000021  0.000876  0.000008
 12   -306.81573715  -0.0000000116  0.000004  0.000005  0.000183  0.000002
                  ***Gradient check signals convergence***
              ***Rediagonalizing the Fockian in SOSCF/NRSCF***

               *****************************************************
               *                     SUCCESS                       *
               *           SCF CONVERGED AFTER  13 CYCLES          *
               *****************************************************

Old exchange energy                            =     -8.697984448 Eh
New exchange energy                            =     -8.697951687 Eh
Exchange energy change after final integration =      0.000032761 Eh
Total energy after final integration           =   -306.815704390 Eh
Final COS-X integration done in                =     2.001 sec

----------------
TOTAL SCF ENERGY
----------------

Total Energy       :         -306.81570439 Eh           -8348.87977 eV

Components:
Nuclear Repulsion  :          323.20694366 Eh            8794.90806 eV
Electronic Energy  :         -630.02264805 Eh          -17143.78783 eV
One Electron Energy:        -1053.45342752 Eh          -28665.92511 eV
Two Electron Energy:          423.43077947 Eh           11522.13728 eV
Max COSX asymmetry :            0.00000369 Eh               0.00010 eV

Virial components:
Potential Energy   :         -610.84321375 Eh          -16621.88889 eV
Kinetic Energy     :          304.02750936 Eh            8273.00912 eV
Virial Ratio       :            2.00917086


DFT components:
N(Alpha)           :       27.999993413473 electrons
N(Beta)            :       27.999993413473 electrons
N(Total)           :       55.999986826945 electrons
E(X)               :      -34.502471786285 Eh       
E(C)               :       -2.173538781185 Eh       
E(XC)              :      -36.676010567470 Eh       
DFET-embed. en.    :        0.000000000000 Eh       

---------------
SCF CONVERGENCE
---------------

  Last Energy change         ...   -1.7058e-09  Tolerance :   1.0000e-08
  Last MAX-Density change    ...    2.6645e-15  Tolerance :   1.0000e-07
  Last RMS-Density change    ...    3.7407e-17  Tolerance :   5.0000e-09
  Last Orbital Gradient      ...    1.9858e-06  Tolerance :   1.0000e-05
  Last Orbital Rotation      ...    4.7969e-06  Tolerance :   1.0000e-05

             **** THE GBW FILE WAS UPDATED (14Feb_SVPD_B3LYP_C3_wt_wb97_typ1_pos.gbw) ****
             **** DENSITY 14Feb_SVPD_B3LYP_C3_wt_wb97_typ1_pos.scfp WAS UPDATED ****
             **** ENERGY FILE WAS UPDATED (14Feb_SVPD_B3LYP_C3_wt_wb97_typ1_pos.en.tmp) ****
             **** THE GBW FILE WAS UPDATED (14Feb_SVPD_B3LYP_C3_wt_wb97_typ1_pos.gbw) ****
             **** DENSITY 14Feb_SVPD_B3LYP_C3_wt_wb97_typ1_pos.scfp WAS UPDATED ****
----------------
ORBITAL ENERGIES
----------------

  NO   OCC          E(Eh)            E(eV) 
   0   2.0000     -14.332938      -390.0191 
   1   2.0000     -14.331310      -389.9748 
   2   2.0000     -10.228142      -278.3219 
   3   2.0000     -10.214297      -277.9452 
   4   2.0000     -10.175505      -276.8896 
   5   2.0000     -10.168441      -276.6973 
   6   2.0000     -10.096091      -274.7286 
   7   2.0000      -0.965812       -26.2811 
   8   2.0000      -0.879577       -23.9345 
   9   2.0000      -0.770241       -20.9593 
  10   2.0000      -0.704455       -19.1692 
  11   2.0000      -0.686439       -18.6789 
  12   2.0000      -0.604599       -16.4520 
  13   2.0000      -0.551588       -15.0095 
  14   2.0000      -0.547021       -14.8852 
  15   2.0000      -0.524083       -14.2610 
  16   2.0000      -0.473647       -12.8886 
  17   2.0000      -0.451009       -12.2726 
  18   2.0000      -0.439107       -11.9487 
  19   2.0000      -0.404597       -11.0096 
  20   2.0000      -0.394321       -10.7300 
  21   2.0000      -0.382779       -10.4160 
  22   2.0000      -0.370110       -10.0712 
  23   2.0000      -0.351767        -9.5721 
  24   2.0000      -0.347700        -9.4614 
  25   2.0000      -0.331672        -9.0253 
  26   2.0000      -0.252095        -6.8598 
  27   2.0000      -0.164592        -4.4788 
  28   0.0000       0.006596         0.1795 
  29   0.0000       0.033109         0.9010 
  30   0.0000       0.043320         1.1788 
  31   0.0000       0.048692         1.3250 
  32   0.0000       0.065176         1.7735 
  33   0.0000       0.076892         2.0923 
  34   0.0000       0.081696         2.2231 
  35   0.0000       0.087006         2.3676 
  36   0.0000       0.104091         2.8324 
  37   0.0000       0.107041         2.9127 
  38   0.0000       0.117219         3.1897 
  39   0.0000       0.128508         3.4969 
  40   0.0000       0.132135         3.5956 
  41   0.0000       0.146847         3.9959 
  42   0.0000       0.153230         4.1696 
  43   0.0000       0.162348         4.4177 
  44   0.0000       0.170814         4.6481 
  45   0.0000       0.173800         4.7293 
  46   0.0000       0.180304         4.9063 
  47   0.0000       0.183619         4.9965 
  48   0.0000       0.196703         5.3525 
  49   0.0000       0.200456         5.4547 
  50   0.0000       0.210553         5.7294 
  51   0.0000       0.231647         6.3034 
  52   0.0000       0.237318         6.4578 
  53   0.0000       0.247267         6.7285 
  54   0.0000       0.255457         6.9513 
  55   0.0000       0.261375         7.1124 
  56   0.0000       0.268395         7.3034 
  57   0.0000       0.272818         7.4238 
  58   0.0000       0.288621         7.8538 
  59   0.0000       0.295969         8.0537 
  60   0.0000       0.303929         8.2703 
  61   0.0000       0.311575         8.4784 
  62   0.0000       0.323117         8.7924 
  63   0.0000       0.323750         8.8097 
  64   0.0000       0.332566         9.0496 
  65   0.0000       0.337756         9.1908 
  66   0.0000       0.341444         9.2912 
  67   0.0000       0.353115         9.6088 
  68   0.0000       0.354174         9.6376 
  69   0.0000       0.358090         9.7441 
  70   0.0000       0.364400         9.9158 
  71   0.0000       0.370282        10.0759 
  72   0.0000       0.374348        10.1865 
  73   0.0000       0.379636        10.3304 
  74   0.0000       0.384001        10.4492 
  75   0.0000       0.388195        10.5633 
  76   0.0000       0.392240        10.6734 
  77   0.0000       0.400109        10.8875 
  78   0.0000       0.415355        11.3024 
  79   0.0000       0.418058        11.3759 
  80   0.0000       0.434219        11.8157 
  81   0.0000       0.437802        11.9132 
  82   0.0000       0.442296        12.0355 
  83   0.0000       0.448012        12.1910 
  84   0.0000       0.460540        12.5319 
  85   0.0000       0.467089        12.7101 
  86   0.0000       0.476012        12.9529 
  87   0.0000       0.479385        13.0447 
  88   0.0000       0.484008        13.1705 
  89   0.0000       0.491912        13.3856 
  90   0.0000       0.499590        13.5945 
  91   0.0000       0.505519        13.7559 
  92   0.0000       0.507312        13.8047 
  93   0.0000       0.518909        14.1202 
  94   0.0000       0.522440        14.2163 
  95   0.0000       0.526928        14.3384 
  96   0.0000       0.532977        14.5031 
  97   0.0000       0.539837        14.6897 
  98   0.0000       0.550825        14.9887 
  99   0.0000       0.553121        15.0512 
 100   0.0000       0.562603        15.3092 
 101   0.0000       0.567369        15.4389 
 102   0.0000       0.573780        15.6133 
 103   0.0000       0.588198        16.0057 
 104   0.0000       0.594904        16.1882 
 105   0.0000       0.603216        16.4143 
 106   0.0000       0.608027        16.5453 
 107   0.0000       0.620168        16.8756 
 108   0.0000       0.631194        17.1757 
 109   0.0000       0.637737        17.3537 
 110   0.0000       0.657474        17.8908 
 111   0.0000       0.659171        17.9370 
 112   0.0000       0.675339        18.3769 
 113   0.0000       0.686365        18.6769 
 114   0.0000       0.707109        19.2414 
 115   0.0000       0.721982        19.6461 
 116   0.0000       0.731762        19.9123 
 117   0.0000       0.737956        20.0808 
 118   0.0000       0.750305        20.4168 
 119   0.0000       0.757346        20.6084 
 120   0.0000       0.778092        21.1730 
 121   0.0000       0.781888        21.2763 
 122   0.0000       0.799130        21.7454 
 123   0.0000       0.818405        22.2699 
 124   0.0000       0.831278        22.6202 
 125   0.0000       0.865050        23.5392 
 126   0.0000       0.900315        24.4988 
 127   0.0000       0.939182        25.5564 
 128   0.0000       0.954726        25.9794 
 129   0.0000       0.970557        26.4102 
 130   0.0000       0.990042        26.9404 
 131   0.0000       0.991214        26.9723 
 132   0.0000       1.005928        27.3727 
 133   0.0000       1.017247        27.6807 
 134   0.0000       1.028644        27.9908 
 135   0.0000       1.038780        28.2666 
 136   0.0000       1.057892        28.7867 
 137   0.0000       1.061237        28.8777 
 138   0.0000       1.083076        29.4720 
 139   0.0000       1.088057        29.6075 
 140   0.0000       1.108220        30.1562 
 141   0.0000       1.142894        31.0997 
 142   0.0000       1.155412        31.4404 
 143   0.0000       1.175218        31.9793 
 144   0.0000       1.182959        32.1900 
 145   0.0000       1.198244        32.6059 
 146   0.0000       1.208124        32.8747 
 147   0.0000       1.226171        33.3658 
 148   0.0000       1.239987        33.7418 
 149   0.0000       1.258697        34.2509 
 150   0.0000       1.283033        34.9131 
 151   0.0000       1.296876        35.2898 
 152   0.0000       1.332429        36.2572 
 153   0.0000       1.359097        36.9829 
 154   0.0000       1.376242        37.4494 
 155   0.0000       1.407303        38.2947 
 156   0.0000       1.432514        38.9807 
 157   0.0000       1.497063        40.7372 
 158   0.0000       1.536591        41.8128 
 159   0.0000       1.569064        42.6964 
 160   0.0000       1.588593        43.2278 
 161   0.0000       1.596732        43.4493 
 162   0.0000       1.636790        44.5393 
 163   0.0000       1.649491        44.8849 
 164   0.0000       1.653567        44.9958 
 165   0.0000       1.674829        45.5744 
 166   0.0000       1.692661        46.0596 
 167   0.0000       1.725749        46.9600 
 168   0.0000       1.740874        47.3716 
 169   0.0000       1.772321        48.2273 
 170   0.0000       1.789139        48.6849 
 171   0.0000       1.816819        49.4382 
 172   0.0000       1.824911        49.6584 
 173   0.0000       1.837412        49.9985 
 174   0.0000       1.853979        50.4493 
 175   0.0000       1.874865        51.0177 
 176   0.0000       1.892381        51.4943 
 177   0.0000       1.915473        52.1227 
 178   0.0000       1.946517        52.9674 
 179   0.0000       1.953883        53.1679 
 180   0.0000       1.979433        53.8631 
 181   0.0000       1.994763        54.2803 
 182   0.0000       2.008743        54.6607 
 183   0.0000       2.021537        55.0088 
 184   0.0000       2.031647        55.2839 
 185   0.0000       2.042597        55.5819 
 186   0.0000       2.062289        56.1177 
 187   0.0000       2.086926        56.7882 
 188   0.0000       2.096003        57.0351 
 189   0.0000       2.104622        57.2697 
 190   0.0000       2.115307        57.5604 
 191   0.0000       2.135473        58.1092 
 192   0.0000       2.144737        58.3613 
 193   0.0000       2.180217        59.3267 
 194   0.0000       2.201543        59.9070 
 195   0.0000       2.232207        60.7414 
 196   0.0000       2.250970        61.2520 
 197   0.0000       2.262134        61.5558 
 198   0.0000       2.315263        63.0015 
 199   0.0000       2.336735        63.5858 
 200   0.0000       2.346827        63.8604 
 201   0.0000       2.372584        64.5613 
 202   0.0000       2.400191        65.3125 
 203   0.0000       2.450559        66.6831 
 204   0.0000       2.457031        66.8592 
 205   0.0000       2.476820        67.3977 
 206   0.0000       2.495758        67.9130 
 207   0.0000       2.516656        68.4817 
 208   0.0000       2.525294        68.7167 
 209   0.0000       2.582356        70.2695 
 210   0.0000       2.597706        70.6872 
 211   0.0000       2.639736        71.8309 
 212   0.0000       2.652681        72.1831 
 213   0.0000       2.689163        73.1759 
 214   0.0000       2.717558        73.9485 
 215   0.0000       2.737733        74.4975 
 216   0.0000       2.743134        74.6445 
 217   0.0000       2.747902        74.7742 
 218   0.0000       2.843938        77.3875 
 219   0.0000       2.867046        78.0163 
 220   0.0000       2.907434        79.1153 
 221   0.0000       2.999180        81.6118 
 222   0.0000       3.014268        82.0224 
 223   0.0000       3.088502        84.0424 
 224   0.0000       3.102451        84.4220 
 225   0.0000       3.156719        85.8987 
 226   0.0000       3.205507        87.2263 
 227   0.0000       3.215904        87.5092 
 228   0.0000       3.219483        87.6066 
 229   0.0000       3.228316        87.8469 
 230   0.0000       3.252911        88.5162 
 231   0.0000       3.339934        90.8842 
 232   0.0000       3.370115        91.7055 
 233   0.0000       3.425840        93.2219 
 234   0.0000       3.712410       101.0198 
 235   0.0000       3.756921       102.2310 

                    ********************************
                    * MULLIKEN POPULATION ANALYSIS *
                    ********************************

-----------------------
MULLIKEN ATOMIC CHARGES
-----------------------
   0 C :    0.937639
   1 N :   -0.329160
   2 C :    0.660749
   3 N :    0.138426
   4 C :    0.529708
   5 H :   -0.141589
   6 H :   -0.708612
   7 H :   -0.273070
   8 H :   -0.141385
   9 H :   -0.176189
  10 C :   -0.133207
  11 H :   -0.099264
  12 H :   -0.423878
  13 C :    1.007982
  14 H :   -0.132053
  15 H :   -0.207271
  16 H :   -0.243227
  17 H :   -0.185892
  18 H :   -0.079705
Sum of atomic charges:    0.0000000

--------------------------------
MULLIKEN REDUCED ORBITAL CHARGES
--------------------------------
  0 C s       :     2.568402  s :     2.568402
      pz      :     0.750323  p :     2.362727
      px      :     0.715162
      py      :     0.897242
      dz2     :    -0.027649  d :     0.131232
      dxz     :     0.001390
      dyz     :     0.081889
      dx2y2   :     0.024525
      dxy     :     0.051076
  1 N s       :     3.396830  s :     3.396830
      pz      :     1.060625  p :     3.708369
      px      :     1.037624
      py      :     1.610120
      dz2     :     0.044089  d :     0.223961
      dxz     :     0.034158
      dyz     :     0.034683
      dx2y2   :     0.078347
      dxy     :     0.032684
  2 C s       :     2.681269  s :     2.681269
      pz      :     0.686890  p :     2.354711
      px      :     0.828129
      py      :     0.839692
      dz2     :     0.160712  d :     0.303270
      dxz     :    -0.127196
      dyz     :     0.118449
      dx2y2   :     0.113194
      dxy     :     0.038112
  3 N s       :     3.248790  s :     3.248790
      pz      :     1.019795  p :     3.599718
      px      :     0.995939
      py      :     1.583984
      dz2     :     0.007469  d :     0.013066
      dxz     :    -0.012487
      dyz     :     0.016557
      dx2y2   :    -0.005634
      dxy     :     0.007161
  4 C s       :     2.810804  s :     2.810804
      pz      :     0.875895  p :     2.556846
      px      :     0.596603
      py      :     1.084348
      dz2     :     0.059517  d :     0.102643
      dxz     :    -0.010595
      dyz     :     0.012209
      dx2y2   :     0.038762
      dxy     :     0.002750
  5 H s       :     1.117138  s :     1.117138
      pz      :     0.013586  p :     0.024451
      px      :    -0.058558
      py      :     0.069423
  6 H s       :     1.605809  s :     1.605809
      pz      :     0.019888  p :     0.102803
      px      :     0.027281
      py      :     0.055634
  7 H s       :     1.251091  s :     1.251091
      pz      :     0.008396  p :     0.021979
      px      :    -0.025031
      py      :     0.038613
  8 H s       :     1.096096  s :     1.096096
      pz      :     0.019021  p :     0.045289
      px      :    -0.040739
      py      :     0.067008
  9 H s       :     1.133705  s :     1.133705
      pz      :    -0.017713  p :     0.042484
      px      :    -0.004812
      py      :     0.065009
 10 C s       :     2.838634  s :     2.838634
      pz      :     0.960726  p :     2.795125
      px      :     0.846721
      py      :     0.987679
      dz2     :     0.135834  d :     0.499448
      dxz     :     0.137068
      dyz     :     0.055813
      dx2y2   :     0.089442
      dxy     :     0.081290
 11 H s       :     1.121660  s :     1.121660
      pz      :     0.018402  p :    -0.022396
      px      :    -0.056462
      py      :     0.015664
 12 H s       :     1.407172  s :     1.407172
      pz      :     0.016094  p :     0.016706
      px      :     0.030194
      py      :    -0.029582
 13 C s       :     2.275303  s :     2.275303
      pz      :     0.907443  p :     2.616978
      px      :     0.856530
      py      :     0.853005
      dz2     :     0.060955  d :     0.099737
      dxz     :     0.036028
      dyz     :     0.010660
      dx2y2   :    -0.012381
      dxy     :     0.004475
 14 H s       :     1.087197  s :     1.087197
      pz      :     0.000912  p :     0.044855
      px      :     0.056617
      py      :    -0.012674
 15 H s       :     1.194750  s :     1.194750
      pz      :     0.022259  p :     0.012521
      px      :     0.004760
      py      :    -0.014498
 16 H s       :     1.151682  s :     1.151682
      pz      :     0.006693  p :     0.091546
      px      :     0.073660
      py      :     0.011192
 17 H s       :     1.183487  s :     1.183487
      pz      :     0.019107  p :     0.002404
      px      :    -0.044330
      py      :     0.027627
 18 H s       :     1.071226  s :     1.071226
      pz      :    -0.021047  p :     0.008479
      px      :     0.048224
      py      :    -0.018698


                     *******************************
                     * LOEWDIN POPULATION ANALYSIS *
                     *******************************

----------------------
LOEWDIN ATOMIC CHARGES
----------------------
   0 C :    0.059873
   1 N :   -0.015050
   2 C :   -0.244143
   3 N :    0.192726
   4 C :    0.168325
   5 H :   -0.115954
   6 H :   -0.110140
   7 H :    0.013199
   8 H :   -0.012565
   9 H :    0.009255
  10 C :   -0.051585
  11 H :    0.014772
  12 H :    0.016923
  13 C :    0.127228
  14 H :    0.012055
  15 H :    0.014589
  16 H :   -0.035643
  17 H :   -0.021727
  18 H :   -0.022138

-------------------------------
LOEWDIN REDUCED ORBITAL CHARGES
-------------------------------
  0 C s       :     2.666244  s :     2.666244
      pz      :     0.826695  p :     2.583350
      px      :     0.860684
      py      :     0.895971
      dz2     :     0.125937  d :     0.690532
      dxz     :     0.102053
      dyz     :     0.205038
      dx2y2   :     0.141462
      dxy     :     0.116042
  1 N s       :     2.908003  s :     2.908003
      pz      :     1.044830  p :     3.480104
      px      :     1.077136
      py      :     1.358139
      dz2     :     0.131084  d :     0.626942
      dxz     :     0.186629
      dyz     :     0.083638
      dx2y2   :     0.119693
      dxy     :     0.105898
  2 C s       :     2.630622  s :     2.630622
      pz      :     0.904216  p :     2.516690
      px      :     0.876841
      py      :     0.735634
      dz2     :     0.254148  d :     1.096832
      dxz     :     0.272004
      dyz     :     0.217628
      dx2y2   :     0.153894
      dxy     :     0.199158
  3 N s       :     2.926220  s :     2.926220
      pz      :     1.094429  p :     3.528523
      px      :     1.063384
      py      :     1.370710
      dz2     :     0.107153  d :     0.352530
      dxz     :     0.093009
      dyz     :     0.084629
      dx2y2   :     0.044397
      dxy     :     0.023342
  4 C s       :     2.728034  s :     2.728034
      pz      :     0.919814  p :     2.784339
      px      :     0.914262
      py      :     0.950263
      dz2     :     0.096876  d :     0.319301
      dxz     :     0.086052
      dyz     :     0.052330
      dx2y2   :     0.053401
      dxy     :     0.030642
  5 H s       :     0.760314  s :     0.760314
      pz      :     0.110285  p :     0.355639
      px      :     0.119575
      py      :     0.125779
  6 H s       :     0.777032  s :     0.777032
      pz      :     0.082030  p :     0.333108
      px      :     0.128613
      py      :     0.122464
  7 H s       :     0.648714  s :     0.648714
      pz      :     0.128174  p :     0.338087
      px      :     0.088485
      py      :     0.121429
  8 H s       :     0.662389  s :     0.662389
      pz      :     0.113711  p :     0.350176
      px      :     0.104412
      py      :     0.132054
  9 H s       :     0.653631  s :     0.653631
      pz      :     0.076617  p :     0.337113
      px      :     0.145445
      py      :     0.115051
 10 C s       :     2.699740  s :     2.699740
      pz      :     0.899378  p :     2.696058
      px      :     0.919841
      py      :     0.876840
      dz2     :     0.109361  d :     0.655787
      dxz     :     0.144072
      dyz     :     0.143596
      dx2y2   :     0.153217
      dxy     :     0.105540
 11 H s       :     0.723868  s :     0.723868
      pz      :     0.083198  p :     0.261360
      px      :     0.092883
      py      :     0.085280
 12 H s       :     0.739622  s :     0.739622
      pz      :     0.065577  p :     0.243455
      px      :     0.113810
      py      :     0.064068
 13 C s       :     2.703446  s :     2.703446
      pz      :     0.915870  p :     2.754276
      px      :     0.928785
      py      :     0.909621
      dz2     :     0.076566  d :     0.415050
      dxz     :     0.121166
      dyz     :     0.086404
      dx2y2   :     0.095811
      dxy     :     0.035103
 14 H s       :     0.727527  s :     0.727527
      pz      :     0.073617  p :     0.260417
      px      :     0.123997
      py      :     0.062803
 15 H s       :     0.736346  s :     0.736346
      pz      :     0.089456  p :     0.249065
      px      :     0.099608
      py      :     0.060001
 16 H s       :     0.737902  s :     0.737902
      pz      :     0.097705  p :     0.297741
      px      :     0.110030
      py      :     0.090007
 17 H s       :     0.746053  s :     0.746053
      pz      :     0.081075  p :     0.275675
      px      :     0.075661
      py      :     0.118938
 18 H s       :     0.746273  s :     0.746273
      pz      :     0.079987  p :     0.275864
      px      :     0.122731
      py      :     0.073147


                      *****************************
                      * MAYER POPULATION ANALYSIS *
                      *****************************

  NA   - Mulliken gross atomic population
  ZA   - Total nuclear charge
  QA   - Mulliken gross atomic charge
  VA   - Mayer's total valence
  BVA  - Mayer's bonded valence
  FA   - Mayer's free valence

  ATOM       NA         ZA         QA         VA         BVA        FA
  0 C      5.0624     6.0000     0.9376     3.7144     3.7144    -0.0000
  1 N      7.3292     7.0000    -0.3292     4.1787     4.1787     0.0000
  2 C      5.3393     6.0000     0.6607     3.3828     3.3828     0.0000
  3 N      6.8616     7.0000     0.1384     3.8382     3.8382     0.0000
  4 C      5.4703     6.0000     0.5297     3.5268     3.5268    -0.0000
  5 H      1.1416     1.0000    -0.1416     1.0522     1.0522    -0.0000
  6 H      1.7086     1.0000    -0.7086     0.9492     0.9492    -0.0000
  7 H      1.2731     1.0000    -0.2731     0.8370     0.8370     0.0000
  8 H      1.1414     1.0000    -0.1414     0.9491     0.9491    -0.0000
  9 H      1.1762     1.0000    -0.1762     0.9312     0.9312     0.0000
 10 C      6.1332     6.0000    -0.1332     5.1570     5.1570     0.0000
 11 H      1.0993     1.0000    -0.0993     0.8742     0.8742    -0.0000
 12 H      1.4239     1.0000    -0.4239     0.8827     0.8827    -0.0000
 13 C      4.9920     6.0000     1.0080     3.6364     3.6364     0.0000
 14 H      1.1321     1.0000    -0.1321     1.0338     1.0338     0.0000
 15 H      1.2073     1.0000    -0.2073     1.0753     1.0753     0.0000
 16 H      1.2432     1.0000    -0.2432     1.1687     1.1687     0.0000
 17 H      1.1859     1.0000    -0.1859     0.9252     0.9252     0.0000
 18 H      1.0797     1.0000    -0.0797     0.9567     0.9567     0.0000

  Mayer bond orders larger than 0.100000
B(  0-C ,  1-N ) :   0.9284 B(  0-C ,  4-C ) :   0.1102 B(  0-C ,  7-H ) :  -0.1438 
B(  0-C , 10-C ) :   1.0330 B(  0-C , 11-H ) :   0.8446 B(  0-C , 12-H ) :   0.7008 
B(  0-C , 14-H ) :   0.1105 B(  0-C , 15-H ) :   0.1275 B(  1-N ,  2-C ) :   0.9682 
B(  1-N ,  3-N ) :   0.2058 B(  1-N ,  4-C ) :   0.3812 B(  1-N ,  7-H ) :   1.2071 
B(  1-N , 12-H ) :   0.2410 B(  2-C ,  3-N ) :   0.8725 B(  2-C ,  4-C ) :   1.5447 
B(  2-C ,  5-H ) :   0.2882 B(  2-C ,  6-H ) :   0.1561 B(  2-C ,  7-H ) :  -0.1985 
B(  2-C ,  9-H ) :  -0.1219 B(  3-N ,  4-C ) :   0.2340 B(  3-N ,  8-H ) :   1.1376 
B(  3-N ,  9-H ) :   1.2810 B(  4-C ,  5-H ) :   0.5776 B(  4-C ,  6-H ) :   0.7991 
B(  5-H , 11-H ) :   0.1289 B(  8-H ,  9-H ) :  -0.1725 B( 10-C , 12-H ) :   0.1534 
B( 10-C , 13-C ) :   1.2774 B( 10-C , 14-H ) :   0.9208 B( 10-C , 15-H ) :   0.8985 
B( 10-C , 16-H ) :   0.2496 B( 10-C , 17-H ) :   0.2396 B( 10-C , 18-H ) :   0.2382 
B( 11-H , 12-H ) :  -0.1812 B( 13-C , 16-H ) :   0.7683 B( 13-C , 17-H ) :   0.7199 
B( 13-C , 18-H ) :   0.7027 B( 16-H , 18-H ) :   0.1102 

-------
TIMINGS
-------

Total SCF time: 0 days 0 hours 0 min 17 sec 

Total time                  ....      17.481 sec
Sum of individual times     ....      17.239 sec  ( 98.6%)

Fock matrix formation       ....      15.899 sec  ( 91.0%)
  Split-RI-J                ....       1.302 sec  (  8.2% of F)
  Chain of spheres X        ....      11.470 sec  ( 72.1% of F)
  XC integration            ....       3.068 sec  ( 19.3% of F)
    Basis function eval.    ....       0.941 sec  ( 30.7% of XC)
    Density eval.           ....       0.791 sec  ( 25.8% of XC)
    XC-Functional eval.     ....       0.135 sec  (  4.4% of XC)
    XC-Potential eval.      ....       0.968 sec  ( 31.6% of XC)
Diagonalization             ....       0.088 sec  (  0.5%)
Density matrix formation    ....       0.007 sec  (  0.0%)
Population analysis         ....       0.011 sec  (  0.1%)
Initial guess               ....       0.133 sec  (  0.8%)
Orbital Transformation      ....       0.000 sec  (  0.0%)
Orbital Orthonormalization  ....       0.000 sec  (  0.0%)
DIIS solution               ....       0.051 sec  (  0.3%)
SOSCF solution              ....       0.065 sec  (  0.4%)
Grid generation             ....       0.985 sec  (  5.6%)

Maximum memory used throughout the entire SCF-calculation: 58.5 MB


-------------------------------------------------------------------------------
                          DFT DISPERSION CORRECTION                            
                                                                               
                              DFTD3 V3.1  Rev 1                                
                          USING Becke-Johnson damping                          
-------------------------------------------------------------------------------
The B3LYP functional is recognized
Active option DFTDOPT                   ...         4   

molecular C6(AA) [au] = 2680.314525 


            DFT-D V3
 parameters
 s6 scaling factor         :     1.0000 
 a1 scaling factor         :     0.3981 
 s8 scaling factor         :     1.9889 
 a2 scaling factor         :     4.4211 
 ad hoc parameters k1-k3   :    16.0000     1.3333    -4.0000 

 Edisp/kcal,au: -17.096266999767  -0.027244632763 
 E6   /kcal   :  -8.475404512 
 E8   /kcal   :  -8.620862487 
 % E8         :  50.425408585 

-------------------------   ----------------
Dispersion correction           -0.027244633
-------------------------   ----------------


-------------------------   --------------------
FINAL SINGLE POINT ENERGY      -306.842949023105
-------------------------   --------------------


                            ***************************************
                            *     ORCA property calculations      *
                            ***************************************

                                    ---------------------
                                    Active property flags
                                    ---------------------
   (+) Dipole Moment


------------------------------------------------------------------------------
                       ORCA ELECTRIC PROPERTIES CALCULATION
------------------------------------------------------------------------------

Dipole Moment Calculation                       ... on
Quadrupole Moment Calculation                   ... off
Polarizability Calculation                      ... off
GBWName                                         ... 14Feb_SVPD_B3LYP_C3_wt_wb97_typ1_pos.gbw
Electron density file                           ... 14Feb_SVPD_B3LYP_C3_wt_wb97_typ1_pos.scfp
The origin for moment calculation is the CENTER OF MASS  = ( 5.991226, -2.641384 -5.034797)

-------------
DIPOLE MOMENT
-------------
                                X             Y             Z
Electronic contribution:      1.87206      -3.42102      -2.61189
Nuclear contribution   :     -2.38731       3.82978       1.80833
                        -----------------------------------------
Total Dipole Moment    :     -0.51525       0.40877      -0.80356
                        -----------------------------------------
Magnitude (a.u.)       :      1.03840
Magnitude (Debye)      :      2.63941



--------------------
Rotational spectrum 
--------------------
 
Rotational constants in cm-1:     0.144922     0.055791     0.049560 
Rotational constants in MHz :  4344.653038  1672.561873  1485.775629 

 Dipole components along the rotational axes: 
x,y,z [a.u.] :     0.293228    -0.874412     0.477185 
x,y,z [Debye]:     0.745326    -2.222578     1.212907 

 

Timings for individual modules:

Sum of individual times         ...       18.099 sec (=   0.302 min)
GTO integral calculation        ...        0.401 sec (=   0.007 min)   2.2 %
SCF iterations                  ...       17.698 sec (=   0.295 min)  97.8 %
                             ****ORCA TERMINATED NORMALLY****
TOTAL RUN TIME: 0 days 0 hours 0 minutes 18 seconds 498 msec
