
                                        *****************
                                        * O   R   C   A *
                                        *****************

                                            #,                                       
                                            ###                                      
                                            ####                                     
                                            #####                                    
                                            ######                                   
                                           ########,                                 
                                     ,,################,,,,,                         
                               ,,#################################,,                 
                          ,,##########################################,,             
                       ,#########################################, ''#####,          
                    ,#############################################,,   '####,        
                  ,##################################################,,,,####,       
                ,###########''''           ''''###############################       
              ,#####''   ,,,,##########,,,,          '''####'''          '####       
            ,##' ,,,,###########################,,,                        '##       
           ' ,,###''''                  '''############,,,                           
         ,,##''                                '''############,,,,        ,,,,,,###''
      ,#''                                            '''#######################'''  
     '                                                          ''''####''''         
             ,#######,   #######,   ,#######,      ##                                
            ,#'     '#,  ##    ##  ,#'     '#,    #''#        ######   ,####,        
            ##       ##  ##   ,#'  ##            #'  '#       #        #'  '#        
            ##       ##  #######   ##           ,######,      #####,   #    #        
            '#,     ,#'  ##    ##  '#,     ,#' ,#      #,         ##   #,  ,#        
             '#######'   ##     ##  '#######'  #'      '#     #####' # '####'        



                  #######################################################
                  #                        -***-                        #
                  #          Department of theory and spectroscopy      #
                  #    Directorship and core code : Frank Neese         #
                  #        Max Planck Institute fuer Kohlenforschung    #
                  #                Kaiser Wilhelm Platz 1               #
                  #                 D-45470 Muelheim/Ruhr               #
                  #                      Germany                        #
                  #                                                     #
                  #                  All rights reserved                #
                  #                        -***-                        #
                  #######################################################


                         Program Version 5.0.0 -  RELEASE  -
                                (SVN: $Rev: 19529$)
                ($Date: 2021-06-28 11:36:33 +0200 (Mo, 28 Jun 2021) $)


 With contributions from (in alphabetic order):
   Daniel Aravena         : Magnetic Suceptibility
   Michael Atanasov       : Ab Initio Ligand Field Theory (pilot matlab implementation)
   Alexander A. Auer      : GIAO ZORA, VPT2 properties, NMR spectrum
   Ute Becker             : Parallelization
   Giovanni Bistoni       : ED, misc. LED, open-shell LED, HFLD
   Martin Brehm           : Molecular dynamics
   Dmytro Bykov           : SCF Hessian
   Vijay G. Chilkuri      : MRCI spin determinant printing, contributions to CSF-ICE
   Dipayan Datta          : RHF DLPNO-CCSD density
   Achintya Kumar Dutta   : EOM-CC, STEOM-CC
   Dmitry Ganyushin       : Spin-Orbit,Spin-Spin,Magnetic field MRCI
   Miquel Garcia          : C-PCM Hessian, Gaussian charge scheme
   Yang Guo               : DLPNO-NEVPT2, F12-NEVPT2, CIM, IAO-localization
   Andreas Hansen         : Spin unrestricted coupled pair/coupled cluster methods
   Benjamin Helmich-Paris : MC-RPA, TRAH-SCF, COSX integrals
   Lee Huntington         : MR-EOM, pCC
   Robert Izsak           : Overlap fitted RIJCOSX, COSX-SCS-MP3, EOM
   Marcus Kettner         : VPT2
   Christian Kollmar      : KDIIS, OOCD, Brueckner-CCSD(T), CCSD density, CASPT2, CASPT2-K
   Simone Kossmann        : Meta GGA functionals, TD-DFT gradient, OOMP2, MP2 Hessian
   Martin Krupicka        : Initial AUTO-CI
   Lucas Lang             : DCDCAS
   Marvin Lechner         : AUTO-CI (C++ implementation), FIC-MRCC
   Dagmar Lenk            : GEPOL surface, SMD
   Dimitrios Liakos       : Extrapolation schemes; Compound Job, initial MDCI parallelization
   Dimitrios Manganas     : Further ROCIS development; embedding schemes
   Dimitrios Pantazis     : SARC Basis sets
   Anastasios Papadopoulos: AUTO-CI, single reference methods and gradients
   Taras Petrenko         : DFT Hessian,TD-DFT gradient, ASA, ECA, R-Raman, ABS, FL, XAS/XES, NRVS
   Peter Pinski           : DLPNO-MP2, DLPNO-MP2 Gradient
   Christoph Reimann      : Effective Core Potentials
   Marius Retegan         : Local ZFS, SOC
   Christoph Riplinger    : Optimizer, TS searches, QM/MM, DLPNO-CCSD(T), (RO)-DLPNO pert. Triples
   Tobias Risthaus        : Range-separated hybrids, TD-DFT gradient, RPA, STAB
   Michael Roemelt        : Original ROCIS implementation
   Masaaki Saitow         : Open-shell DLPNO-CCSD energy and density
   Barbara Sandhoefer     : DKH picture change effects
   Avijit Sen             : IP-ROCIS
   Kantharuban Sivalingam : CASSCF convergence, NEVPT2, FIC-MRCI
   Bernardo de Souza      : ESD, SOC TD-DFT
   Georgi Stoychev        : AutoAux, RI-MP2 NMR
   Willem Van den Heuvel  : Paramagnetic NMR
   Boris Wezisla          : Elementary symmetry handling
   Frank Wennmohs         : Technical directorship


 We gratefully acknowledge several colleagues who have allowed us to
 interface, adapt or use parts of their codes:
   Stefan Grimme, W. Hujo, H. Kruse, P. Pracht,  : VdW corrections, initial TS optimization,
                  C. Bannwarth, S. Ehlert          DFT functionals, gCP, sTDA/sTD-DF
   Ed Valeev, F. Pavosevic, A. Kumar             : LibInt (2-el integral package), F12 methods
   Garnet Chan, S. Sharma, J. Yang, R. Olivares  : DMRG
   Ulf Ekstrom                                   : XCFun DFT Library
   Mihaly Kallay                                 : mrcc  (arbitrary order and MRCC methods)
   Jiri Pittner, Ondrej Demel                    : Mk-CCSD
   Frank Weinhold                                : gennbo (NPA and NBO analysis)
   Christopher J. Cramer and Donald G. Truhlar   : smd solvation model
   Lars Goerigk                                  : TD-DFT with DH, B97 family of functionals
   V. Asgeirsson, H. Jonsson                     : NEB implementation
   FAccTs GmbH                                   : IRC, NEB, NEB-TS, DLPNO-Multilevel, CI-OPT
                                                   MM, QMMM, 2- and 3-layer-ONIOM, Crystal-QMMM,
                                                   LR-CPCM, SF, NACMEs, symmetry and pop. for TD-DFT,
                                                   nearIR, NL-DFT gradient (VV10), updates on ESD,
                                                   ML-optimized integration grids
   S Lehtola, MJT Oliveira, MAL Marques          : LibXC Library
   Liviu Ungur et al                             : ANISO software


 Your calculation uses the libint2 library for the computation of 2-el integrals
 For citations please refer to: http://libint.valeyev.net

 Your ORCA version has been built with support for libXC version: 5.1.0
 For citations please refer to: https://tddft.org/programs/libxc/

 This ORCA versions uses:
   CBLAS   interface :  Fast vector & matrix operations
   LAPACKE interface :  Fast linear algebra routines
   SCALAPACK package :  Parallel linear algebra routines
   Shared memory     :  Shared parallel matrices
   BLAS/LAPACK       :  OpenBLAS 0.3.15  USE64BITINT DYNAMIC_ARCH NO_AFFINITY Haswell SINGLE_THREADED
        Core in use  :  Haswell
   Copyright (c) 2011-2014, The OpenBLAS Project


XCFun DFT library Copyright 2009-2010 Ulf Ekstrom and contributors.
See http://admol.org/xcfun for more information.
This is free software; see the source code for copying conditions.
There is ABSOLUTELY NO WARRANTY; not even for MERCHANTABILITY or FITNESS FOR A PARTICULAR PURPOSE.
For details see the documentation.
Scientific users of this library should cite U. Ekstrom, L. Visscher, R. Bast, A. J. Thorvaldsen and K. Ruud;
J.Chem.Theor.Comp. 2010, DOI: 10.1021/ct100117s
XCFun Version 0.99 

================================================================================

----- Orbital basis set information -----
Your calculation utilizes the basis: def2-TZVPD
   F. Weigend and R. Ahlrichs, Phys. Chem. Chem. Phys. 7, 3297 (2005).
   D. Rappoport and F. Furche, J. Chem. Phys. 133 134105 (2010).

----- AuxJ basis set information -----
Your calculation utilizes the auxiliary basis: def2/J
   F. Weigend, Phys. Chem. Chem. Phys. 8, 1057 (2006).

================================================================================
                                        WARNINGS
                       Please study these warnings very carefully!
================================================================================


INFO   : the flag for use of the SHARK integral package has been found!

================================================================================
                                       INPUT FILE
================================================================================
NAME = TZVPD_CAMB3LYP_C1_wt_dlpno_pos.com
|  1> !CAM-B3LYP RIJCOSX def2-TZVPD def2/J TightSCF
|  2> *xyz 0 1
|  3> C          2.91632       -1.24259       -1.54313
|  4> C          3.46659       -1.59097       -2.88908
|  5> C          4.65227       -1.14316       -3.25969
|  6> N          2.75226       -2.29204       -3.72803
|  7> H          1.77836       -2.48960       -3.51274
|  8> H          2.94861       -2.20854       -4.71681
|  9> H          5.14672       -0.51251       -2.63385
| 10> H          4.78303       -1.00720       -4.25350
| 11> C          2.80408        0.29070       -1.35924
| 12> H          1.94047       -1.71653       -1.44116
| 13> H          3.55857       -1.66343       -0.76637
| 14> H          2.17393        0.69633       -2.12297
| 15> H          3.77707        0.73043       -1.42880
| 16> H          2.38369        0.50492       -0.39889
| 17> *
| 18> 
| 19> %MaxCore 64000
| 20> 
| 21> %pal nprocs 4
| 22> end  
| 23> 
| 24> %scf
| 25>   MaxIter 150
| 26> end
| 27> 
| 28> 
| 29>                          ****END OF INPUT****
================================================================================

                       ****************************
                       * Single Point Calculation *
                       ****************************

---------------------------------
CARTESIAN COORDINATES (ANGSTROEM)
---------------------------------
  C      2.916320   -1.242590   -1.543130
  C      3.466590   -1.590970   -2.889080
  C      4.652270   -1.143160   -3.259690
  N      2.752260   -2.292040   -3.728030
  H      1.778360   -2.489600   -3.512740
  H      2.948610   -2.208540   -4.716810
  H      5.146720   -0.512510   -2.633850
  H      4.783030   -1.007200   -4.253500
  C      2.804080    0.290700   -1.359240
  H      1.940470   -1.716530   -1.441160
  H      3.558570   -1.663430   -0.766370
  H      2.173930    0.696330   -2.122970
  H      3.777070    0.730430   -1.428800
  H      2.383690    0.504920   -0.398890

----------------------------
CARTESIAN COORDINATES (A.U.)
----------------------------
  NO LB      ZA    FRAG     MASS         X           Y           Z
   0 C     6.0000    0    12.011    5.511046   -2.348155   -2.916093
   1 C     6.0000    0    12.011    6.550906   -3.006498   -5.459570
   2 C     6.0000    0    12.011    8.791516   -2.160259   -6.159921
   3 N     7.0000    0    14.007    5.201018   -4.331328   -7.044956
   4 H     1.0000    0     1.008    3.360613   -4.704662   -6.638117
   5 H     1.0000    0     1.008    5.572065   -4.173536   -8.913479
   6 H     1.0000    0     1.008    9.725891   -0.968504   -4.977255
   7 H     1.0000    0     1.008    9.038617   -1.903332   -8.037950
   8 C     6.0000    0    12.011    5.298943    0.549343   -2.568591
   9 H     1.0000    0     1.008    3.666957   -3.243772   -2.723398
  10 H     1.0000    0     1.008    6.724723   -3.143427   -1.448229
  11 H     1.0000    0     1.008    4.108132    1.315873   -4.011832
  12 H     1.0000    0     1.008    7.137628    1.380313   -2.700041
  13 H     1.0000    0     1.008    4.504521    0.954161   -0.753793

--------------------------------
INTERNAL COORDINATES (ANGSTROEM)
--------------------------------
 C      0   0   0     0.000000000000     0.00000000     0.00000000
 C      1   0   0     1.495241485446     0.00000000     0.00000000
 C      2   1   0     1.320500901401   120.26925555     0.00000000
 N      2   1   3     1.305987594237   120.13444974   182.98233451
 H      4   2   1     1.016789529696   119.48391144     8.32972123
 H      4   2   1     1.011539154408   118.51898930   155.66844410
 H      3   2   1     1.016796897419   118.30867349   356.12254348
 H      3   2   1     1.011554059504   115.93711220   208.86913344
 C      1   2   3     1.548351243678   111.36515274    58.43441063
 H      1   2   3     1.089633069891   108.20888718   180.41452918
 H      1   2   3     1.092221344646   109.51136762   296.72363539
 H      9   1   2     1.070003846862   109.47073962    58.49151665
 H      9   1   2     1.070004956344   109.47070676   298.49209750
 H      9   1   2     1.069995365878   109.47128790   178.49205873

---------------------------
INTERNAL COORDINATES (A.U.)
---------------------------
 C      0   0   0     0.000000000000     0.00000000     0.00000000
 C      1   0   0     2.825596911571     0.00000000     0.00000000
 C      2   1   0     2.495385063243   120.26925555     0.00000000
 N      2   1   3     2.467958887406   120.13444974   182.98233451
 H      4   2   1     1.921453746965   119.48391144     8.32972123
 H      4   2   1     1.911531975569   118.51898930   155.66844410
 H      3   2   1     1.921467669942   118.30867349   356.12254348
 H      3   2   1     1.911560142120   115.93711220   208.86913344
 C      1   2   3     2.925959809668   111.36515274    58.43441063
 H      1   2   3     2.059108088558   108.20888718   180.41452918
 H      1   2   3     2.063999219004   109.51136762   296.72363539
 H      9   1   2     2.022014232812   109.47073962    58.49151665
 H      9   1   2     2.022016329428   109.47070676   298.49209750
 H      9   1   2     2.021998206074   109.47128790   178.49205873

---------------------
BASIS SET INFORMATION
---------------------
There are 3 groups of distinct atoms

 Group   1 Type C   : 12s6p3d1f contracted to 6s3p3d1f pattern {621111/411/111/1}
 Group   2 Type N   : 12s6p3d1f contracted to 6s3p3d1f pattern {621111/411/111/1}
 Group   3 Type H   : 5s2p contracted to 3s2p pattern {311/11}

Atom   0C    basis set group =>   1
Atom   1C    basis set group =>   1
Atom   2C    basis set group =>   1
Atom   3N    basis set group =>   2
Atom   4H    basis set group =>   3
Atom   5H    basis set group =>   3
Atom   6H    basis set group =>   3
Atom   7H    basis set group =>   3
Atom   8C    basis set group =>   1
Atom   9H    basis set group =>   3
Atom  10H    basis set group =>   3
Atom  11H    basis set group =>   3
Atom  12H    basis set group =>   3
Atom  13H    basis set group =>   3
---------------------------------
AUXILIARY/J BASIS SET INFORMATION
---------------------------------
There are 3 groups of distinct atoms

 Group   1 Type C   : 12s5p4d2f1g contracted to 6s4p3d1f1g pattern {711111/2111/211/2/1}
 Group   2 Type N   : 12s5p4d2f1g contracted to 6s4p3d1f1g pattern {711111/2111/211/2/1}
 Group   3 Type H   : 5s2p1d contracted to 3s1p1d pattern {311/2/1}

Atom   0C    basis set group =>   1
Atom   1C    basis set group =>   1
Atom   2C    basis set group =>   1
Atom   3N    basis set group =>   2
Atom   4H    basis set group =>   3
Atom   5H    basis set group =>   3
Atom   6H    basis set group =>   3
Atom   7H    basis set group =>   3
Atom   8C    basis set group =>   1
Atom   9H    basis set group =>   3
Atom  10H    basis set group =>   3
Atom  11H    basis set group =>   3
Atom  12H    basis set group =>   3
Atom  13H    basis set group =>   3


           ************************************************************
           *        Program running with 4 parallel MPI-processes     *
           *              working on a common directory               *
           ************************************************************
------------------------------------------------------------------------------
                           ORCA GTO INTEGRAL CALCULATION
                           -- RI-GTO INTEGRALS CHOSEN --
------------------------------------------------------------------------------
------------------------------------------------------------------------------
                   ___                                                        
                  /   \      - P O W E R E D   B Y -                         
                 /     \                                                     
                 |  |  |   _    _      __       _____    __    __             
                 |  |  |  | |  | |    /  \     |  _  \  |  |  /  |          
                  \  \/   | |  | |   /    \    | | | |  |  | /  /          
                 / \  \   | |__| |  /  /\  \   | |_| |  |  |/  /          
                |  |  |   |  __  | /  /__\  \  |    /   |      \           
                |  |  |   | |  | | |   __   |  |    \   |  |\   \          
                \     /   | |  | | |  |  |  |  | |\  \  |  | \   \       
                 \___/    |_|  |_| |__|  |__|  |_| \__\ |__|  \__/        
                                                                              
                      - O R C A' S   B I G   F R I E N D -                    
                                      &                                       
                       - I N T E G R A L  F E E D E R -                       
                                                                              
 v1 FN, 2020, v2 2021                                                         
------------------------------------------------------------------------------


Reading SHARK input file TZVPD_CAMB3LYP_C1_wt_dlpno_pos.SHARKINP.tmp ... ok
----------------------
SHARK INTEGRAL PACKAGE
----------------------

Number of atoms                             ...     14
Number of basis functions                   ...    266
Number of shells                            ...    110
Maximum angular momentum                    ...      3
Integral batch strategy                     ... SHARK/LIBINT Hybrid
RI-J (if used) integral strategy            ... SPLIT-RIJ (Revised 2003 algorithm where possible)
Printlevel                                  ...      1
Contraction scheme used                     ... SEGMENTED contraction
Coulomb Range Separation                    ... NOT USED
Exchange Range Separation                   ... Long Range
   Mu parameter                             ...  0.330000
   Scaling (regular/separated)              ...  0.190000  0.460000
Finite Nucleus Model                        ... NOT USED
Auxiliary Coulomb fitting basis             ... AVAILABLE
   # of basis functions in Aux-J            ...    344
   # of shells in Aux-J                     ...    120
   Maximum angular momentum in Aux-J        ...      4
Auxiliary J/K fitting basis                 ... NOT available
Auxiliary Correlation fitting basis         ... NOT available
Auxiliary 'external' fitting basis          ... NOT available
Integral threshold                          ...     2.500000e-11
Primitive cut-off                           ...     2.500000e-12
Primitive pair pre-selection threshold      ...     2.500000e-12

Calculating pre-screening integrals         ... done (  0.1 sec) Dimension = 110
Organizing shell pair data                  ... done (  0.1 sec)
Shell pair information
Total number of shell pairs                 ...      6105
Shell pairs after pre-screening             ...      5966
Total number of primitive shell pairs       ...     15188
Primitive shell pairs kept                  ...     12453
          la=0 lb=0:   1571 shell pairs
          la=1 lb=0:   1844 shell pairs
          la=1 lb=1:    558 shell pairs
          la=2 lb=0:    844 shell pairs
          la=2 lb=1:    494 shell pairs
          la=2 lb=2:    120 shell pairs
          la=3 lb=0:    280 shell pairs
          la=3 lb=1:    165 shell pairs
          la=3 lb=2:     75 shell pairs
          la=3 lb=3:     15 shell pairs

Calculating one electron integrals          ... done (  0.0 sec)
Calculating RI/J V-Matrix + Cholesky decomp.... done (  0.0 sec)
Calculating Nuclear repulsion               ... done (  0.0 sec) ENN=    181.832039033926 Eh

SHARK setup successfully completed in   0.3 seconds

Maximum memory used throughout the entire GTOINT-calculation: 13.9 MB


           ************************************************************
           *        Program running with 4 parallel MPI-processes     *
           *              working on a common directory               *
           ************************************************************
-------------------------------------------------------------------------------
                                 ORCA SCF
-------------------------------------------------------------------------------

------------
SCF SETTINGS
------------
Hamiltonian:
 Density Functional     Method          .... DFT(GTOs)
 Exchange Functional    Exchange        .... WB88
 Correlation Functional Correlation     .... LYP
 LDA part of GGA corr.  LDAOpt          .... VWN-5
 Gradients option       PostSCFGGA      .... off
 Hybrid DFT is turned on
   Fraction HF Exchange ScalHFX         ....  0.190000
   Scaling of DF-GGA-X  ScalDFX         ....  0.350000
   Scaling of DF-GGA-C  ScalDFC         ....  0.810000
   Scaling of DF-LDA-C  ScalLDAC        ....  1.000000
   Perturbative correction              ....  0.000000
   Density functional embedding theory  .... OFF
 Long-range corrected/Screened/Range-Separated Hybrid DFT is turned on
   Amount of maximum screened exact exchange              ....  0.460000
   Range separation parameter mu (erf(mu*r12)/r12)        ....  0.330000
 RI-approximation to the Coulomb term is turned on
   Number of AuxJ basis functions       .... 344
   RIJ-COSX (HFX calculated with COS-X)).... on


General Settings:
 Integral files         IntName         .... TZVPD_CAMB3LYP_C1_wt_dlpno_pos
 Hartree-Fock type      HFTyp           .... RHF
 Total Charge           Charge          ....    0
 Multiplicity           Mult            ....    1
 Number of Electrons    NEL             ....   40
 Basis Dimension        Dim             ....  266
 Nuclear Repulsion      ENuc            ....    181.8320390339 Eh

Convergence Acceleration:
 DIIS                   CNVDIIS         .... on
   Start iteration      DIISMaxIt       ....    12
   Startup error        DIISStart       ....  0.200000
   # of expansion vecs  DIISMaxEq       ....     5
   Bias factor          DIISBfac        ....   1.050
   Max. coefficient     DIISMaxC        ....  10.000
 Trust-Rad. Augm. Hess. CNVTRAH         .... auto
   Auto Start mean grad. ratio tolernc. ....  1.125000
   Auto Start start iteration           ....    20
   Auto Start num. interpolation iter.  ....    10
   Max. Number of Micro iterations      ....    16
   Max. Number of Macro iterations      .... Maxiter - #DIIS iter
   Number of Davidson start vectors     ....     2
   Converg. threshold I  (grad. norm)   ....   1.000e-05
   Converg. threshold II (energy diff.) ....   1.000e-08
   Grad. Scal. Fac. for Micro threshold ....   0.100
   Minimum threshold for Micro iter.    ....   0.010
   NR start threshold (gradient norm)   ....   0.001
   Initial trust radius                 ....   0.400
   Minimum AH scaling param. (alpha)    ....   1.000
   Maximum AH scaling param. (alpha)    .... 1000.000
   Orbital update algorithm             .... Taylor
   White noise on init. David. guess    .... on
   Maximum white noise                  ....   0.010
   Quad. conv. algorithm                .... NR
 SOSCF                  CNVSOSCF        .... on
   Start iteration      SOSCFMaxIt      ....   150
   Startup grad/error   SOSCFStart      ....  0.003300
 Level Shifting         CNVShift        .... on
   Level shift para.    LevelShift      ....    0.2500
   Turn off err/grad.   ShiftErr        ....    0.0010
 Zerner damping         CNVZerner       .... off
 Static damping         CNVDamp         .... on
   Fraction old density DampFac         ....    0.7000
   Max. Damping (<1)    DampMax         ....    0.9800
   Min. Damping (>=0)   DampMin         ....    0.0000
   Turn off err/grad.   DampErr         ....    0.1000
 Fernandez-Rico         CNVRico         .... off

SCF Procedure:
 Maximum # iterations   MaxIter         ....   150
 SCF integral mode      SCFMode         .... Direct
   Integral package                     .... SHARK and LIBINT hybrid scheme
 Reset frequency        DirectResetFreq ....    20
 Integral Threshold     Thresh          ....  2.500e-11 Eh
 Primitive CutOff       TCut            ....  2.500e-12 Eh

Convergence Tolerance:
 Convergence Check Mode ConvCheckMode   .... Total+1el-Energy
 Convergence forced     ConvForced      .... 0
 Energy Change          TolE            ....  1.000e-08 Eh
 1-El. energy change                    ....  1.000e-05 Eh
 Orbital Gradient       TolG            ....  1.000e-05
 Orbital Rotation angle TolX            ....  1.000e-05
 DIIS Error             TolErr          ....  5.000e-07


Diagonalization of the overlap matrix:
Smallest eigenvalue                        ... 4.240e-06
Time for diagonalization                   ...    0.017 sec
Threshold for overlap eigenvalues          ... 1.000e-08
Number of eigenvalues below threshold      ... 0
Time for construction of square roots      ...    0.016 sec
Total time needed                          ...    0.034 sec

Time for model grid setup =    0.108 sec

------------------------------
INITIAL GUESS: MODEL POTENTIAL
------------------------------
Loading Hartree-Fock densities                     ... done
Calculating cut-offs                               ... done
Initializing the effective Hamiltonian             ... done
Setting up the integral package (SHARK)            ... done
Starting the Coulomb interaction                   ... done (   0.1 sec)
Reading the grid                                   ... done
Mapping shells                                     ... done
Starting the XC term evaluation                    ... done (   0.2 sec)
  promolecular density results
     # of electrons  =     39.996690582
     EX              =    -29.713484282
     EC              =     -1.300148424
     EX+EC           =    -31.013632705
Transforming the Hamiltonian                       ... done (   0.0 sec)
Diagonalizing the Hamiltonian                      ... done (   0.0 sec)
Back transforming the eigenvectors                 ... done (   0.0 sec)
Now organizing SCF variables                       ... done
                      ------------------
                      INITIAL GUESS DONE (   0.4 sec)
                      ------------------
-------------------
DFT GRID GENERATION
-------------------

General Integration Accuracy     IntAcc      ... 4.388
Radial Grid Type                 RadialGrid  ... OptM3 with GC (2021)
Angular Grid (max. ang.)         AngularGrid ... 4 (Lebedev-302)
Angular grid pruning method      GridPruning ... 4 (adaptive)
Weight generation scheme         WeightScheme... Becke
Basis function cutoff            BFCut       ... 1.0000e-11
Integration weight cutoff        WCut        ... 1.0000e-14
Angular grids for H and He will be reduced by one unit
Partially contracted basis set               ... off
Rotationally invariant grid construction     ... off

Total number of grid points                  ...    62230
Total number of batches                      ...      978
Average number of points per batch           ...       63
Average number of grid points per atom       ...     4445
Time for grid setup =    0.425 sec

--------------------
COSX GRID GENERATION
--------------------

GRIDX 1
-------
General Integration Accuracy     IntAcc      ... 3.816
Radial Grid Type                 RadialGrid  ... OptM3 with GC (2021)
Angular Grid (max. ang.)         AngularGrid ... 1 (Lebedev-50)
Angular grid pruning method      GridPruning ... 4 (adaptive)
Weight generation scheme         WeightScheme... Becke
Basis function cutoff            BFCut       ... 1.0000e-11
Integration weight cutoff        WCut        ... 1.0000e-14
Angular grids for H and He will be reduced by one unit
Partially contracted basis set               ... on
Rotationally invariant grid construction     ... off

Total number of grid points                  ...     7801
Total number of batches                      ...      129
Average number of points per batch           ...       60
Average number of grid points per atom       ...      557
UseSFitting                                  ... on

GRIDX 2
-------
General Integration Accuracy     IntAcc      ... 4.020
Radial Grid Type                 RadialGrid  ... OptM3 with GC (2021)
Angular Grid (max. ang.)         AngularGrid ... 2 (Lebedev-110)
Angular grid pruning method      GridPruning ... 4 (adaptive)
Weight generation scheme         WeightScheme... Becke
Basis function cutoff            BFCut       ... 1.0000e-11
Integration weight cutoff        WCut        ... 1.0000e-14
Angular grids for H and He will be reduced by one unit
Partially contracted basis set               ... on
Rotationally invariant grid construction     ... off

Total number of grid points                  ...    18276
Total number of batches                      ...      293
Average number of points per batch           ...       62
Average number of grid points per atom       ...     1305
UseSFitting                                  ... on

GRIDX 3
-------
General Integration Accuracy     IntAcc      ... 4.338
Radial Grid Type                 RadialGrid  ... OptM3 with GC (2021)
Angular Grid (max. ang.)         AngularGrid ... 3 (Lebedev-194)
Angular grid pruning method      GridPruning ... 4 (adaptive)
Weight generation scheme         WeightScheme... Becke
Basis function cutoff            BFCut       ... 1.0000e-11
Integration weight cutoff        WCut        ... 1.0000e-14
Angular grids for H and He will be reduced by one unit
Partially contracted basis set               ... on
Rotationally invariant grid construction     ... off

Total number of grid points                  ...    41212
Total number of batches                      ...      650
Average number of points per batch           ...       63
Average number of grid points per atom       ...     2944
UseSFitting                                  ... on

Time for X-Grid setup             =    0.512 sec

--------------
SCF ITERATIONS
--------------
ITER       Energy         Delta-E        Max-DP      RMS-DP      [F,P]     Damp
               ***  Starting incremental Fock matrix formation  ***
  0   -212.2660865046   0.000000000000 0.14297340  0.00261822  0.2286895 0.7000
  1   -212.3732005527  -0.107114048118 0.10923005  0.00206492  0.1285305 0.7000
                               ***Turning on DIIS***
  2   -212.4240815767  -0.050881024028 0.24711644  0.00442642  0.0566756 0.0000
  3   -212.4980882199  -0.074006643222 0.17614195  0.00148124  0.0666651 0.0000
  4   -212.5147709353  -0.016682715373 0.03847260  0.00035309  0.0121723 0.0000
  5   -212.5153083482  -0.000537412927 0.01050862  0.00012455  0.0040015 0.0000
                      *** Initiating the SOSCF procedure ***
                           *** Shutting down DIIS ***
                      *** Re-Reading the Fockian *** 
                      *** Removing any level shift *** 
ITER      Energy       Delta-E        Grad      Rot      Max-DP    RMS-DP
  6   -212.51534713  -0.0000387867  0.000259  0.000259  0.006159  0.000068
               *** Restarting incremental Fock matrix formation ***
  7   -212.51534464   0.0000024907  0.000189  0.000569  0.005615  0.000093
  8   -212.51534616  -0.0000015150  0.000065  0.000351  0.005773  0.000046
  9   -212.51534631  -0.0000001501  0.000029  0.000039  0.000968  0.000014
 10   -212.51534638  -0.0000000680  0.000004  0.000011  0.000986  0.000006
 11   -212.51534638  -0.0000000002  0.000003  0.000007  0.000273  0.000004
                  ***Gradient check signals convergence***
              ***Rediagonalizing the Fockian in SOSCF/NRSCF***

               *****************************************************
               *                     SUCCESS                       *
               *           SCF CONVERGED AFTER  12 CYCLES          *
               *****************************************************

Old exchange energy                            =     -8.940413703 Eh
New exchange energy                            =     -8.940409092 Eh
Exchange energy change after final integration =      0.000004611 Eh
Total energy after final integration           =   -212.515341767 Eh
Final COS-X integration done in                =     8.804 sec

----------------
TOTAL SCF ENERGY
----------------

Total Energy       :         -212.51534177 Eh           -5782.83644 eV

Components:
Nuclear Repulsion  :          181.83203903 Eh            4947.90133 eV
Electronic Energy  :         -394.34738080 Eh          -10730.73777 eV
One Electron Energy:         -645.21993310 Eh          -17557.32698 eV
Two Electron Energy:          250.87255230 Eh            6826.58921 eV
Max COSX asymmetry :            0.00000117 Eh               0.00003 eV

Virial components:
Potential Energy   :         -424.57073243 Eh          -11553.15698 eV
Kinetic Energy     :          212.05539066 Eh            5770.32054 eV
Virial Ratio       :            2.00216901


DFT components:
N(Alpha)           :       19.999909704742 electrons
N(Beta)            :       19.999909704742 electrons
N(Total)           :       39.999819409485 electrons
E(XC)              :      -23.095544560164 Eh       
DFET-embed. en.    :        0.000000000000 Eh       

---------------
SCF CONVERGENCE
---------------

  Last Energy change         ...   -4.3201e-10  Tolerance :   1.0000e-08
  Last MAX-Density change    ...    1.7764e-15  Tolerance :   1.0000e-07
  Last RMS-Density change    ...    2.1780e-17  Tolerance :   5.0000e-09
  Last Orbital Gradient      ...    4.4885e-07  Tolerance :   1.0000e-05
  Last Orbital Rotation      ...    1.6804e-06  Tolerance :   1.0000e-05

             **** THE GBW FILE WAS UPDATED (TZVPD_CAMB3LYP_C1_wt_dlpno_pos.gbw) ****
             **** DENSITY TZVPD_CAMB3LYP_C1_wt_dlpno_pos.scfp WAS UPDATED ****
             **** ENERGY FILE WAS UPDATED (TZVPD_CAMB3LYP_C1_wt_dlpno_pos.en.tmp) ****
             **** THE GBW FILE WAS UPDATED (TZVPD_CAMB3LYP_C1_wt_dlpno_pos.gbw) ****
             **** DENSITY TZVPD_CAMB3LYP_C1_wt_dlpno_pos.scfp WAS UPDATED ****
----------------
ORBITAL ENERGIES
----------------

  NO   OCC          E(Eh)            E(eV) 
   0   2.0000     -14.392844      -391.6492 
   1   2.0000     -10.266155      -279.3563 
   2   2.0000     -10.246730      -278.8277 
   3   2.0000     -10.229529      -278.3596 
   4   2.0000     -10.170622      -276.7567 
   5   2.0000      -1.021898       -27.8073 
   6   2.0000      -0.865337       -23.5470 
   7   2.0000      -0.793960       -21.6047 
   8   2.0000      -0.723754       -19.6943 
   9   2.0000      -0.639964       -17.4143 
  10   2.0000      -0.594614       -16.1803 
  11   2.0000      -0.551902       -15.0180 
  12   2.0000      -0.520891       -14.1742 
  13   2.0000      -0.480181       -13.0664 
  14   2.0000      -0.458849       -12.4859 
  15   2.0000      -0.445211       -12.1148 
  16   2.0000      -0.423066       -11.5122 
  17   2.0000      -0.410185       -11.1617 
  18   2.0000      -0.394097       -10.7239 
  19   2.0000      -0.249498        -6.7892 
  20   0.0000       0.030451         0.8286 
  21   0.0000       0.052192         1.4202 
  22   0.0000       0.058697         1.5972 
  23   0.0000       0.067557         1.8383 
  24   0.0000       0.082071         2.2333 
  25   0.0000       0.095244         2.5917 
  26   0.0000       0.103629         2.8199 
  27   0.0000       0.108027         2.9396 
  28   0.0000       0.125498         3.4150 
  29   0.0000       0.138735         3.7752 
  30   0.0000       0.149505         4.0682 
  31   0.0000       0.153325         4.1722 
  32   0.0000       0.163700         4.4545 
  33   0.0000       0.178043         4.8448 
  34   0.0000       0.180370         4.9081 
  35   0.0000       0.193433         5.2636 
  36   0.0000       0.195812         5.3283 
  37   0.0000       0.203394         5.5346 
  38   0.0000       0.215480         5.8635 
  39   0.0000       0.237119         6.4523 
  40   0.0000       0.245799         6.6885 
  41   0.0000       0.254292         6.9196 
  42   0.0000       0.258721         7.0401 
  43   0.0000       0.259705         7.0669 
  44   0.0000       0.271071         7.3762 
  45   0.0000       0.278656         7.5826 
  46   0.0000       0.284495         7.7415 
  47   0.0000       0.290561         7.9066 
  48   0.0000       0.301242         8.1972 
  49   0.0000       0.307100         8.3566 
  50   0.0000       0.310152         8.4397 
  51   0.0000       0.314770         8.5653 
  52   0.0000       0.319254         8.6873 
  53   0.0000       0.331445         9.0191 
  54   0.0000       0.333163         9.0658 
  55   0.0000       0.335960         9.1419 
  56   0.0000       0.349169         9.5014 
  57   0.0000       0.354103         9.6356 
  58   0.0000       0.357600         9.7308 
  59   0.0000       0.367443         9.9986 
  60   0.0000       0.389109        10.5882 
  61   0.0000       0.395822        10.7709 
  62   0.0000       0.396348        10.7852 
  63   0.0000       0.402761        10.9597 
  64   0.0000       0.406839        11.0707 
  65   0.0000       0.411588        11.1999 
  66   0.0000       0.423595        11.5266 
  67   0.0000       0.432064        11.7571 
  68   0.0000       0.440859        11.9964 
  69   0.0000       0.452306        12.3079 
  70   0.0000       0.454107        12.3569 
  71   0.0000       0.465442        12.6653 
  72   0.0000       0.468334        12.7440 
  73   0.0000       0.479804        13.0561 
  74   0.0000       0.481463        13.1013 
  75   0.0000       0.490203        13.3391 
  76   0.0000       0.493621        13.4321 
  77   0.0000       0.509667        13.8687 
  78   0.0000       0.514382        13.9971 
  79   0.0000       0.520226        14.1561 
  80   0.0000       0.530566        14.4374 
  81   0.0000       0.543554        14.7908 
  82   0.0000       0.545709        14.8495 
  83   0.0000       0.557970        15.1831 
  84   0.0000       0.564940        15.3728 
  85   0.0000       0.580271        15.7900 
  86   0.0000       0.595136        16.1945 
  87   0.0000       0.600175        16.3316 
  88   0.0000       0.601699        16.3731 
  89   0.0000       0.612869        16.6770 
  90   0.0000       0.638499        17.3744 
  91   0.0000       0.640049        17.4166 
  92   0.0000       0.665090        18.0980 
  93   0.0000       0.672359        18.2958 
  94   0.0000       0.690777        18.7970 
  95   0.0000       0.695848        18.9350 
  96   0.0000       0.709161        19.2973 
  97   0.0000       0.721366        19.6294 
  98   0.0000       0.728204        19.8154 
  99   0.0000       0.735291        20.0083 
 100   0.0000       0.744458        20.2577 
 101   0.0000       0.750997        20.4357 
 102   0.0000       0.754472        20.5302 
 103   0.0000       0.769092        20.9281 
 104   0.0000       0.777540        21.1579 
 105   0.0000       0.783918        21.3315 
 106   0.0000       0.801552        21.8113 
 107   0.0000       0.814755        22.1706 
 108   0.0000       0.823684        22.4136 
 109   0.0000       0.828536        22.5456 
 110   0.0000       0.844375        22.9766 
 111   0.0000       0.859390        23.3852 
 112   0.0000       0.874863        23.8062 
 113   0.0000       0.883143        24.0316 
 114   0.0000       0.894631        24.3442 
 115   0.0000       0.916954        24.9516 
 116   0.0000       0.957760        26.0620 
 117   0.0000       0.972292        26.4574 
 118   0.0000       1.004072        27.3222 
 119   0.0000       1.016148        27.6508 
 120   0.0000       1.043982        28.4082 
 121   0.0000       1.070341        29.1255 
 122   0.0000       1.082399        29.4536 
 123   0.0000       1.122449        30.5434 
 124   0.0000       1.135594        30.9011 
 125   0.0000       1.162573        31.6352 
 126   0.0000       1.201564        32.6962 
 127   0.0000       1.233454        33.5640 
 128   0.0000       1.260228        34.2926 
 129   0.0000       1.286400        35.0047 
 130   0.0000       1.311894        35.6985 
 131   0.0000       1.317780        35.8586 
 132   0.0000       1.349299        36.7163 
 133   0.0000       1.371358        37.3165 
 134   0.0000       1.401371        38.1332 
 135   0.0000       1.418795        38.6074 
 136   0.0000       1.427165        38.8351 
 137   0.0000       1.462135        39.7867 
 138   0.0000       1.543078        41.9893 
 139   0.0000       1.568479        42.6805 
 140   0.0000       1.596282        43.4370 
 141   0.0000       1.671144        45.4742 
 142   0.0000       1.713286        46.6209 
 143   0.0000       1.736579        47.2547 
 144   0.0000       1.745025        47.4846 
 145   0.0000       1.818252        49.4772 
 146   0.0000       1.828696        49.7614 
 147   0.0000       1.845039        50.2061 
 148   0.0000       1.864778        50.7432 
 149   0.0000       1.874387        51.0047 
 150   0.0000       1.891536        51.4713 
 151   0.0000       1.908582        51.9352 
 152   0.0000       1.924640        52.3721 
 153   0.0000       1.943479        52.8848 
 154   0.0000       1.947839        53.0034 
 155   0.0000       1.962843        53.4117 
 156   0.0000       1.977367        53.8069 
 157   0.0000       1.980870        53.9022 
 158   0.0000       2.000864        54.4463 
 159   0.0000       2.049939        55.7817 
 160   0.0000       2.103734        57.2455 
 161   0.0000       2.109107        57.3917 
 162   0.0000       2.135260        58.1034 
 163   0.0000       2.174596        59.1738 
 164   0.0000       2.192074        59.6494 
 165   0.0000       2.220971        60.4357 
 166   0.0000       2.252684        61.2986 
 167   0.0000       2.305100        62.7250 
 168   0.0000       2.341298        63.7100 
 169   0.0000       2.372236        64.5518 
 170   0.0000       2.387857        64.9769 
 171   0.0000       2.410575        65.5951 
 172   0.0000       2.455204        66.8095 
 173   0.0000       2.473564        67.3091 
 174   0.0000       2.490692        67.7752 
 175   0.0000       2.537414        69.0465 
 176   0.0000       2.545618        69.2698 
 177   0.0000       2.582568        70.2753 
 178   0.0000       2.605001        70.8857 
 179   0.0000       2.620118        71.2970 
 180   0.0000       2.627668        71.5025 
 181   0.0000       2.649532        72.0974 
 182   0.0000       2.690503        73.2123 
 183   0.0000       2.713135        73.8282 
 184   0.0000       2.755995        74.9944 
 185   0.0000       2.766812        75.2888 
 186   0.0000       2.775688        75.5303 
 187   0.0000       2.806170        76.3598 
 188   0.0000       2.837252        77.2056 
 189   0.0000       2.859871        77.8211 
 190   0.0000       2.904515        79.0359 
 191   0.0000       2.919174        79.4348 
 192   0.0000       2.943683        80.1017 
 193   0.0000       2.968291        80.7713 
 194   0.0000       2.979529        81.0771 
 195   0.0000       3.025343        82.3238 
 196   0.0000       3.036846        82.6368 
 197   0.0000       3.056073        83.1600 
 198   0.0000       3.095898        84.2437 
 199   0.0000       3.143432        85.5371 
 200   0.0000       3.175678        86.4146 
 201   0.0000       3.207880        87.2908 
 202   0.0000       3.225773        87.7778 
 203   0.0000       3.272218        89.0416 
 204   0.0000       3.283597        89.3512 
 205   0.0000       3.306512        89.9748 
 206   0.0000       3.325167        90.4824 
 207   0.0000       3.352740        91.2327 
 208   0.0000       3.386812        92.1598 
 209   0.0000       3.394589        92.3715 
 210   0.0000       3.400543        92.5335 
 211   0.0000       3.423937        93.1701 
 212   0.0000       3.448713        93.8443 
 213   0.0000       3.494645        95.0941 
 214   0.0000       3.506597        95.4194 
 215   0.0000       3.542025        96.3834 
 216   0.0000       3.570055        97.1461 
 217   0.0000       3.594824        97.8201 
 218   0.0000       3.602903        98.0400 
 219   0.0000       3.616045        98.3976 
 220   0.0000       3.644612        99.1749 
 221   0.0000       3.667866        99.8077 
 222   0.0000       3.670753        99.8863 
 223   0.0000       3.772005       102.6415 
 224   0.0000       3.782585       102.9294 
 225   0.0000       3.855567       104.9153 
 226   0.0000       3.863136       105.1213 
 227   0.0000       3.941431       107.2518 
 228   0.0000       3.999693       108.8372 
 229   0.0000       4.022062       109.4459 
 230   0.0000       4.060533       110.4927 
 231   0.0000       4.072999       110.8319 
 232   0.0000       4.151825       112.9769 
 233   0.0000       4.170073       113.4735 
 234   0.0000       4.195156       114.1560 
 235   0.0000       4.339704       118.0894 
 236   0.0000       4.386499       119.3627 
 237   0.0000       4.441168       120.8503 
 238   0.0000       4.496295       122.3504 
 239   0.0000       4.515030       122.8602 
 240   0.0000       4.582173       124.6873 
 241   0.0000       4.613802       125.5479 
 242   0.0000       4.644766       126.3905 
 243   0.0000       4.713599       128.2635 
 244   0.0000       4.733747       128.8118 
 245   0.0000       4.787712       130.2803 
 246   0.0000       4.835272       131.5744 
 247   0.0000       4.884211       132.9061 
 248   0.0000       4.946377       134.5978 
 249   0.0000       4.981688       135.5586 
 250   0.0000       5.020594       136.6173 
 251   0.0000       5.073473       138.0562 
 252   0.0000       5.122301       139.3849 
 253   0.0000       5.219285       142.0240 
 254   0.0000       5.407301       147.1401 
 255   0.0000       5.483353       149.2096 
 256   0.0000       5.509514       149.9215 
 257   0.0000       5.561899       151.3470 
 258   0.0000       5.649254       153.7240 
 259   0.0000       5.884954       160.1377 
 260   0.0000       6.132027       166.8609 
 261   0.0000      22.644329       616.1835 
 262   0.0000      22.742511       618.8552 
 263   0.0000      22.852959       621.8606 
 264   0.0000      23.475602       638.8036 
 265   0.0000      32.478965       883.7976 

                    ********************************
                    * MULLIKEN POPULATION ANALYSIS *
                    ********************************

-----------------------
MULLIKEN ATOMIC CHARGES
-----------------------
   0 C :   -0.387875
   1 C :    0.453877
   2 C :   -1.003980
   3 N :   -0.362659
   4 H :    0.195645
   5 H :    0.173597
   6 H :    0.306908
   7 H :    0.253523
   8 C :   -1.072646
   9 H :    0.274944
  10 H :    0.253826
  11 H :    0.301654
  12 H :    0.311584
  13 H :    0.301602
Sum of atomic charges:    0.0000000

--------------------------------
MULLIKEN REDUCED ORBITAL CHARGES
--------------------------------
  0 C s       :     3.259500  s :     3.259500
      pz      :     0.963793  p :     3.171115
      px      :     1.193821
      py      :     1.013501
      dz2     :    -0.000199  d :    -0.048321
      dxz     :    -0.002108
      dyz     :    -0.003622
      dx2y2   :    -0.001021
      dxy     :    -0.041371
      f0      :     0.000979  f :     0.005580
      f+1     :     0.001013
      f-1     :     0.000877
      f+2     :     0.000742
      f-2     :     0.000244
      f+3     :     0.000798
      f-3     :     0.000927
  1 C s       :     3.365140  s :     3.365140
      pz      :     0.641784  p :     2.002381
      px      :     0.679246
      py      :     0.681351
      dz2     :     0.061497  d :     0.163697
      dxz     :    -0.031548
      dyz     :     0.006508
      dx2y2   :     0.123311
      dxy     :     0.003929
      f0      :     0.001971  f :     0.014905
      f+1     :     0.002740
      f-1     :     0.001760
      f+2     :     0.003042
      f-2     :     0.002132
      f+3     :     0.001984
      f-3     :     0.001276
  2 C s       :     3.521041  s :     3.521041
      pz      :     1.236323  p :     3.429680
      px      :     1.050511
      py      :     1.142846
      dz2     :     0.005128  d :     0.048619
      dxz     :    -0.000311
      dyz     :     0.011094
      dx2y2   :     0.011641
      dxy     :     0.021067
      f0      :     0.000881  f :     0.004640
      f+1     :     0.000469
      f-1     :     0.000295
      f+2     :     0.000265
      f-2     :     0.000759
      f+3     :     0.001371
      f-3     :     0.000600
  3 N s       :     3.464710  s :     3.464710
      pz      :     1.101028  p :     3.842762
      px      :     1.180268
      py      :     1.561467
      dz2     :     0.011910  d :     0.051988
      dxz     :     0.002568
      dyz     :     0.005664
      dx2y2   :     0.018299
      dxy     :     0.013546
      f0      :     0.000663  f :     0.003198
      f+1     :     0.000398
      f-1     :     0.000408
      f+2     :     0.000439
      f-2     :     0.000248
      f+3     :     0.000608
      f-3     :     0.000434
  4 H s       :     0.753940  s :     0.753940
      pz      :     0.000370  p :     0.050415
      px      :     0.023163
      py      :     0.026883
  5 H s       :     0.773430  s :     0.773430
      pz      :     0.022951  p :     0.052972
      px      :     0.005242
      py      :     0.024779
  6 H s       :     0.650106  s :     0.650106
      pz      :     0.015822  p :     0.042986
      px      :    -0.003615
      py      :     0.030778
  7 H s       :     0.660395  s :     0.660395
      pz      :     0.033970  p :     0.086082
      px      :     0.021621
      py      :     0.030491
  8 C s       :     3.448489  s :     3.448489
      pz      :     1.310206  p :     3.579894
      px      :     1.329148
      py      :     0.940540
      dz2     :     0.019117  d :     0.040815
      dxz     :     0.028887
      dyz     :    -0.010211
      dx2y2   :     0.006699
      dxy     :    -0.003676
      f0      :     0.000428  f :     0.003449
      f+1     :     0.000753
      f-1     :     0.000319
      f+2     :     0.000459
      f-2     :    -0.000056
      f+3     :     0.000713
      f-3     :     0.000832
  9 H s       :     0.671619  s :     0.671619
      pz      :     0.006692  p :     0.053437
      px      :     0.031874
      py      :     0.014872
 10 H s       :     0.686605  s :     0.686605
      pz      :     0.016731  p :     0.059569
      px      :     0.016629
      py      :     0.026209
 11 H s       :     0.609998  s :     0.609998
      pz      :     0.029833  p :     0.088348
      px      :     0.038378
      py      :     0.020137
 12 H s       :     0.615669  s :     0.615669
      pz      :     0.028875  p :     0.072747
      px      :     0.029869
      py      :     0.014003
 13 H s       :     0.628256  s :     0.628256
      pz      :     0.030354  p :     0.070142
      px      :     0.026926
      py      :     0.012862


                     *******************************
                     * LOEWDIN POPULATION ANALYSIS *
                     *******************************

----------------------
LOEWDIN ATOMIC CHARGES
----------------------
   0 C :   -0.189621
   1 C :   -0.504565
   2 C :    0.008718
   3 N :    0.101753
   4 H :    0.105883
   5 H :    0.111292
   6 H :    0.020679
   7 H :    0.023323
   8 C :   -0.088177
   9 H :    0.100837
  10 H :    0.116285
  11 H :    0.072075
  12 H :    0.059573
  13 H :    0.061946

-------------------------------
LOEWDIN REDUCED ORBITAL CHARGES
-------------------------------
  0 C s       :     2.671954  s :     2.671954
      pz      :     0.912920  p :     2.756267
      px      :     0.921896
      py      :     0.921452
      dz2     :     0.138631  d :     0.721671
      dxz     :     0.114375
      dyz     :     0.184098
      dx2y2   :     0.123265
      dxy     :     0.161302
      f0      :     0.006104  f :     0.039729
      f+1     :     0.005995
      f-1     :     0.007087
      f+2     :     0.005505
      f-2     :     0.004550
      f+3     :     0.004783
      f-3     :     0.005705
  1 C s       :     2.615823  s :     2.615823
      pz      :     0.878705  p :     2.580823
      px      :     0.940780
      py      :     0.761338
      dz2     :     0.251843  d :     1.211409
      dxz     :     0.294283
      dyz     :     0.178757
      dx2y2   :     0.270734
      dxy     :     0.215791
      f0      :     0.013262  f :     0.096511
      f+1     :     0.018293
      f-1     :     0.012119
      f+2     :     0.020880
      f-2     :     0.012335
      f+3     :     0.008648
      f-3     :     0.010975
  2 C s       :     2.718617  s :     2.718617
      pz      :     0.937782  p :     2.840192
      px      :     0.979883
      py      :     0.922527
      dz2     :     0.083484  d :     0.399653
      dxz     :     0.116479
      dyz     :     0.049593
      dx2y2   :     0.067057
      dxy     :     0.083038
      f0      :     0.006022  f :     0.032821
      f+1     :     0.005223
      f-1     :     0.001632
      f+2     :     0.004439
      f-2     :     0.004349
      f+3     :     0.005663
      f-3     :     0.005493
  3 N s       :     2.902591  s :     2.902591
      pz      :     1.098224  p :     3.565531
      px      :     1.123350
      py      :     1.343957
      dz2     :     0.140574  d :     0.416856
      dxz     :     0.061531
      dyz     :     0.053255
      dx2y2   :     0.097627
      dxy     :     0.063869
      f0      :     0.001958  f :     0.013268
      f+1     :     0.001871
      f-1     :     0.001932
      f+2     :     0.002370
      f-2     :     0.002077
      f+3     :     0.001776
      f-3     :     0.001284
  4 H s       :     0.626884  s :     0.626884
      pz      :     0.066796  p :     0.267233
      px      :     0.116493
      py      :     0.083944
  5 H s       :     0.624850  s :     0.624850
      pz      :     0.113769  p :     0.263858
      px      :     0.068990
      py      :     0.081099
  6 H s       :     0.713344  s :     0.713344
      pz      :     0.088713  p :     0.265978
      px      :     0.077206
      py      :     0.100059
  7 H s       :     0.720829  s :     0.720829
      pz      :     0.105979  p :     0.255848
      px      :     0.069990
      py      :     0.079878
  8 C s       :     2.728522  s :     2.728522
      pz      :     0.970733  p :     2.879871
      px      :     0.977682
      py      :     0.931457
      dz2     :     0.074394  d :     0.453506
      dxz     :     0.058229
      dyz     :     0.103315
      dx2y2   :     0.087014
      dxy     :     0.130554
      f0      :     0.002555  f :     0.026278
      f+1     :     0.003819
      f-1     :     0.003566
      f+2     :     0.003911
      f-2     :     0.002416
      f+3     :     0.004736
      f-3     :     0.005276
  9 H s       :     0.688268  s :     0.688268
      pz      :     0.057921  p :     0.210895
      px      :     0.092344
      py      :     0.060630
 10 H s       :     0.682314  s :     0.682314
      pz      :     0.073390  p :     0.201401
      px      :     0.072261
      py      :     0.055750
 11 H s       :     0.706818  s :     0.706818
      pz      :     0.087203  p :     0.221108
      px      :     0.074468
      py      :     0.059437
 12 H s       :     0.699093  s :     0.699093
      pz      :     0.066099  p :     0.241334
      px      :     0.110462
      py      :     0.064773
 13 H s       :     0.713418  s :     0.713418
      pz      :     0.100036  p :     0.224635
      px      :     0.068157
      py      :     0.056443


                      *****************************
                      * MAYER POPULATION ANALYSIS *
                      *****************************

  NA   - Mulliken gross atomic population
  ZA   - Total nuclear charge
  QA   - Mulliken gross atomic charge
  VA   - Mayer's total valence
  BVA  - Mayer's bonded valence
  FA   - Mayer's free valence

  ATOM       NA         ZA         QA         VA         BVA        FA
  0 C      6.3879     6.0000    -0.3879     3.1610     3.1610    -0.0000
  1 C      5.5461     6.0000     0.4539     2.9023     2.9023     0.0000
  2 C      7.0040     6.0000    -1.0040     3.6285     3.6285     0.0000
  3 N      7.3627     7.0000    -0.3627     3.1719     3.1719     0.0000
  4 H      0.8044     1.0000     0.1956     0.9756     0.9756    -0.0000
  5 H      0.8264     1.0000     0.1736     1.0073     1.0073     0.0000
  6 H      0.6931     1.0000     0.3069     0.9709     0.9709     0.0000
  7 H      0.7465     1.0000     0.2535     1.0750     1.0750     0.0000
  8 C      7.0726     6.0000    -1.0726     3.4868     3.4868    -0.0000
  9 H      0.7251     1.0000     0.2749     0.9733     0.9733     0.0000
 10 H      0.7462     1.0000     0.2538     1.0036     1.0036    -0.0000
 11 H      0.6983     1.0000     0.3017     1.0718     1.0718     0.0000
 12 H      0.6884     1.0000     0.3116     0.9981     0.9981    -0.0000
 13 H      0.6984     1.0000     0.3016     1.0413     1.0413    -0.0000

  Mayer bond orders larger than 0.100000
B(  0-C ,  1-C ) :   0.6572 B(  0-C ,  8-C ) :   0.5774 B(  0-C ,  9-H ) :   1.0380 
B(  0-C , 10-H ) :   0.9697 B(  1-C ,  2-C ) :   1.4316 B(  1-C ,  3-N ) :   1.0612 
B(  1-C ,  7-H ) :  -0.1046 B(  1-C ,  9-H ) :  -0.1319 B(  2-C ,  3-N ) :   0.1059 
B(  2-C ,  6-H ) :   0.9319 B(  2-C ,  7-H ) :   1.0730 B(  3-N ,  4-H ) :   0.9837 
B(  3-N ,  5-H ) :   0.9747 B(  8-C , 11-H ) :   0.9689 B(  8-C , 12-H ) :   0.9700 
B(  8-C , 13-H ) :   0.9710 

-------
TIMINGS
-------

Total SCF time: 0 days 0 hours 1 min 12 sec 

Total time                  ....      72.317 sec
Sum of individual times     ....      59.240 sec  ( 81.9%)

Fock matrix formation       ....      57.585 sec  ( 79.6%)
  Split-RI-J                ....       2.172 sec  (  3.8% of F)
  Chain of spheres X        ....      46.890 sec  ( 81.4% of F)
  XC integration            ....       7.147 sec  ( 12.4% of F)
    Basis function eval.    ....       1.597 sec  ( 22.3% of XC)
    Density eval.           ....       1.572 sec  ( 22.0% of XC)
    XC-Functional eval.     ....       0.588 sec  (  8.2% of XC)
    XC-Potential eval.      ....       2.249 sec  ( 31.5% of XC)
Diagonalization             ....       0.158 sec  (  0.2%)
Density matrix formation    ....       0.010 sec  (  0.0%)
Population analysis         ....       0.014 sec  (  0.0%)
Initial guess               ....       0.282 sec  (  0.4%)
Orbital Transformation      ....       0.000 sec  (  0.0%)
Orbital Orthonormalization  ....       0.000 sec  (  0.0%)
DIIS solution               ....       0.069 sec  (  0.1%)
SOSCF solution              ....       0.076 sec  (  0.1%)
Grid generation             ....       1.045 sec  (  1.4%)

Maximum memory used throughout the entire SCF-calculation: 75.3 MB

-------------------------   --------------------
FINAL SINGLE POINT ENERGY      -212.515341766910
-------------------------   --------------------


                            ***************************************
                            *     ORCA property calculations      *
                            ***************************************

                                    ---------------------
                                    Active property flags
                                    ---------------------
   (+) Dipole Moment


------------------------------------------------------------------------------
                       ORCA ELECTRIC PROPERTIES CALCULATION
------------------------------------------------------------------------------

Dipole Moment Calculation                       ... on
Quadrupole Moment Calculation                   ... off
Polarizability Calculation                      ... off
GBWName                                         ... TZVPD_CAMB3LYP_C1_wt_dlpno_pos.gbw
Electron density file                           ... TZVPD_CAMB3LYP_C1_wt_dlpno_pos.scfp
The origin for moment calculation is the CENTER OF MASS  = ( 6.203860, -2.234652 -4.845727)

-------------
DIPOLE MOMENT
-------------
                                X             Y             Z
Electronic contribution:      0.09440      -2.71736      -1.80076
Nuclear contribution   :     -0.99366       2.78648       1.68526
                        -----------------------------------------
Total Dipole Moment    :     -0.89925       0.06912      -0.11550
                        -----------------------------------------
Magnitude (a.u.)       :      0.90927
Magnitude (Debye)      :      2.31119



--------------------
Rotational spectrum 
--------------------
 
Rotational constants in cm-1:     0.282898     0.128664     0.101801 
Rotational constants in MHz :  8481.061354  3857.240210  3051.924245 

 Dipole components along the rotational axes: 
x,y,z [a.u.] :     0.111603     0.762540    -0.482548 
x,y,z [Debye]:     0.283672     1.938224    -1.226540 

 

Timings for individual modules:

Sum of individual times         ...       76.636 sec (=   1.277 min)
GTO integral calculation        ...        2.433 sec (=   0.041 min)   3.2 %
SCF iterations                  ...       74.203 sec (=   1.237 min)  96.8 %
                             ****ORCA TERMINATED NORMALLY****
TOTAL RUN TIME: 0 days 0 hours 1 minutes 17 seconds 158 msec
