
                                        *****************
                                        * O   R   C   A *
                                        *****************

                                            #,                                       
                                            ###                                      
                                            ####                                     
                                            #####                                    
                                            ######                                   
                                           ########,                                 
                                     ,,################,,,,,                         
                               ,,#################################,,                 
                          ,,##########################################,,             
                       ,#########################################, ''#####,          
                    ,#############################################,,   '####,        
                  ,##################################################,,,,####,       
                ,###########''''           ''''###############################       
              ,#####''   ,,,,##########,,,,          '''####'''          '####       
            ,##' ,,,,###########################,,,                        '##       
           ' ,,###''''                  '''############,,,                           
         ,,##''                                '''############,,,,        ,,,,,,###''
      ,#''                                            '''#######################'''  
     '                                                          ''''####''''         
             ,#######,   #######,   ,#######,      ##                                
            ,#'     '#,  ##    ##  ,#'     '#,    #''#        ######   ,####,        
            ##       ##  ##   ,#'  ##            #'  '#       #        #'  '#        
            ##       ##  #######   ##           ,######,      #####,   #    #        
            '#,     ,#'  ##    ##  '#,     ,#' ,#      #,         ##   #,  ,#        
             '#######'   ##     ##  '#######'  #'      '#     #####' # '####'        



                  #######################################################
                  #                        -***-                        #
                  #          Department of theory and spectroscopy      #
                  #    Directorship and core code : Frank Neese         #
                  #        Max Planck Institute fuer Kohlenforschung    #
                  #                Kaiser Wilhelm Platz 1               #
                  #                 D-45470 Muelheim/Ruhr               #
                  #                      Germany                        #
                  #                                                     #
                  #                  All rights reserved                #
                  #                        -***-                        #
                  #######################################################


                         Program Version 5.0.0 -  RELEASE  -
                                (SVN: $Rev: 19529$)
                ($Date: 2021-06-28 11:36:33 +0200 (Mo, 28 Jun 2021) $)


 With contributions from (in alphabetic order):
   Daniel Aravena         : Magnetic Suceptibility
   Michael Atanasov       : Ab Initio Ligand Field Theory (pilot matlab implementation)
   Alexander A. Auer      : GIAO ZORA, VPT2 properties, NMR spectrum
   Ute Becker             : Parallelization
   Giovanni Bistoni       : ED, misc. LED, open-shell LED, HFLD
   Martin Brehm           : Molecular dynamics
   Dmytro Bykov           : SCF Hessian
   Vijay G. Chilkuri      : MRCI spin determinant printing, contributions to CSF-ICE
   Dipayan Datta          : RHF DLPNO-CCSD density
   Achintya Kumar Dutta   : EOM-CC, STEOM-CC
   Dmitry Ganyushin       : Spin-Orbit,Spin-Spin,Magnetic field MRCI
   Miquel Garcia          : C-PCM Hessian, Gaussian charge scheme
   Yang Guo               : DLPNO-NEVPT2, F12-NEVPT2, CIM, IAO-localization
   Andreas Hansen         : Spin unrestricted coupled pair/coupled cluster methods
   Benjamin Helmich-Paris : MC-RPA, TRAH-SCF, COSX integrals
   Lee Huntington         : MR-EOM, pCC
   Robert Izsak           : Overlap fitted RIJCOSX, COSX-SCS-MP3, EOM
   Marcus Kettner         : VPT2
   Christian Kollmar      : KDIIS, OOCD, Brueckner-CCSD(T), CCSD density, CASPT2, CASPT2-K
   Simone Kossmann        : Meta GGA functionals, TD-DFT gradient, OOMP2, MP2 Hessian
   Martin Krupicka        : Initial AUTO-CI
   Lucas Lang             : DCDCAS
   Marvin Lechner         : AUTO-CI (C++ implementation), FIC-MRCC
   Dagmar Lenk            : GEPOL surface, SMD
   Dimitrios Liakos       : Extrapolation schemes; Compound Job, initial MDCI parallelization
   Dimitrios Manganas     : Further ROCIS development; embedding schemes
   Dimitrios Pantazis     : SARC Basis sets
   Anastasios Papadopoulos: AUTO-CI, single reference methods and gradients
   Taras Petrenko         : DFT Hessian,TD-DFT gradient, ASA, ECA, R-Raman, ABS, FL, XAS/XES, NRVS
   Peter Pinski           : DLPNO-MP2, DLPNO-MP2 Gradient
   Christoph Reimann      : Effective Core Potentials
   Marius Retegan         : Local ZFS, SOC
   Christoph Riplinger    : Optimizer, TS searches, QM/MM, DLPNO-CCSD(T), (RO)-DLPNO pert. Triples
   Tobias Risthaus        : Range-separated hybrids, TD-DFT gradient, RPA, STAB
   Michael Roemelt        : Original ROCIS implementation
   Masaaki Saitow         : Open-shell DLPNO-CCSD energy and density
   Barbara Sandhoefer     : DKH picture change effects
   Avijit Sen             : IP-ROCIS
   Kantharuban Sivalingam : CASSCF convergence, NEVPT2, FIC-MRCI
   Bernardo de Souza      : ESD, SOC TD-DFT
   Georgi Stoychev        : AutoAux, RI-MP2 NMR
   Willem Van den Heuvel  : Paramagnetic NMR
   Boris Wezisla          : Elementary symmetry handling
   Frank Wennmohs         : Technical directorship


 We gratefully acknowledge several colleagues who have allowed us to
 interface, adapt or use parts of their codes:
   Stefan Grimme, W. Hujo, H. Kruse, P. Pracht,  : VdW corrections, initial TS optimization,
                  C. Bannwarth, S. Ehlert          DFT functionals, gCP, sTDA/sTD-DF
   Ed Valeev, F. Pavosevic, A. Kumar             : LibInt (2-el integral package), F12 methods
   Garnet Chan, S. Sharma, J. Yang, R. Olivares  : DMRG
   Ulf Ekstrom                                   : XCFun DFT Library
   Mihaly Kallay                                 : mrcc  (arbitrary order and MRCC methods)
   Jiri Pittner, Ondrej Demel                    : Mk-CCSD
   Frank Weinhold                                : gennbo (NPA and NBO analysis)
   Christopher J. Cramer and Donald G. Truhlar   : smd solvation model
   Lars Goerigk                                  : TD-DFT with DH, B97 family of functionals
   V. Asgeirsson, H. Jonsson                     : NEB implementation
   FAccTs GmbH                                   : IRC, NEB, NEB-TS, DLPNO-Multilevel, CI-OPT
                                                   MM, QMMM, 2- and 3-layer-ONIOM, Crystal-QMMM,
                                                   LR-CPCM, SF, NACMEs, symmetry and pop. for TD-DFT,
                                                   nearIR, NL-DFT gradient (VV10), updates on ESD,
                                                   ML-optimized integration grids
   S Lehtola, MJT Oliveira, MAL Marques          : LibXC Library
   Liviu Ungur et al                             : ANISO software


 Your calculation uses the libint2 library for the computation of 2-el integrals
 For citations please refer to: http://libint.valeyev.net

 Your ORCA version has been built with support for libXC version: 5.1.0
 For citations please refer to: https://tddft.org/programs/libxc/

 This ORCA versions uses:
   CBLAS   interface :  Fast vector & matrix operations
   LAPACKE interface :  Fast linear algebra routines
   SCALAPACK package :  Parallel linear algebra routines
   Shared memory     :  Shared parallel matrices
   BLAS/LAPACK       :  OpenBLAS 0.3.15  USE64BITINT DYNAMIC_ARCH NO_AFFINITY Haswell SINGLE_THREADED
        Core in use  :  Haswell
   Copyright (c) 2011-2014, The OpenBLAS Project




***************************************
The coordinates will be read from file: B.xyz
***************************************


XCFun DFT library Copyright 2009-2010 Ulf Ekstrom and contributors.
See http://admol.org/xcfun for more information.
This is free software; see the source code for copying conditions.
There is ABSOLUTELY NO WARRANTY; not even for MERCHANTABILITY or FITNESS FOR A PARTICULAR PURPOSE.
For details see the documentation.
Scientific users of this library should cite U. Ekstrom, L. Visscher, R. Bast, A. J. Thorvaldsen and K. Ruud;
J.Chem.Theor.Comp. 2010, DOI: 10.1021/ct100117s
XCFun Version 0.99 

================================================================================

----- Orbital basis set information -----
Your calculation utilizes the basis: def2-TZVP
   F. Weigend and R. Ahlrichs, Phys. Chem. Chem. Phys. 7, 3297 (2005).

----- AuxJ basis set information -----
Your calculation utilizes the auxiliary basis: def2/J
   F. Weigend, Phys. Chem. Chem. Phys. 8, 1057 (2006).

================================================================================
                                        WARNINGS
                       Please study these warnings very carefully!
================================================================================


INFO   : the flag for use of the SHARK integral package has been found!

================================================================================
                                       INPUT FILE
================================================================================
NAME = LC_BLYP_B_wt_wb97.com
|  1> !LC-BLYP RIJCOSX def2-TZVP def2/J TightSCF xyzfile                                                                                         
|  2> 
|  3> *xyzfile 0 1 B.xyz
|  4> 
|  5> %MaxCore 64000
|  6> 
|  7> %pal nprocs 18                                                                                                                                                  
|  8> end  
|  9> 
| 10> %scf
| 11>   MaxIter 150
| 12> end
| 13> 
| 14> 
| 15>                          ****END OF INPUT****
================================================================================

                       ****************************
                       * Single Point Calculation *
                       ****************************

---------------------------------
CARTESIAN COORDINATES (ANGSTROEM)
---------------------------------
  C      3.343500    3.354571   -3.591998
  C      2.952633    1.863077   -3.574849
  C      4.129209    0.898394   -3.418950
  H      3.733687   -0.100605   -3.237633
  H      4.719095    0.862556   -4.339005
  C      5.017344    1.315212   -2.221305
  C      4.255868    3.703851   -4.726054
  N      3.734032    4.293783   -5.800770
  N      5.515039    3.407255   -4.637185
  H      6.149187    3.601203   -5.399053
  H      5.813584    2.899504   -3.808785
  H      2.741380    4.513109   -5.824701
  H      4.287548    4.521260   -6.614341
  H      2.278938    1.735250   -2.725496
  H      2.377466    1.625787   -4.475869
  O      4.737055    0.854112   -1.122825
  O      5.928146    2.168108   -2.491365
  H      3.861246    3.597252   -2.662979
  H      2.446493    3.973461   -3.656556

----------------------------
CARTESIAN COORDINATES (A.U.)
----------------------------
  NO LB      ZA    FRAG     MASS         X           Y           Z
   0 C     6.0000    0    12.011    6.318299    6.339220   -6.787892
   1 C     6.0000    0    12.011    5.579668    3.520705   -6.755485
   2 C     6.0000    0    12.011    7.803074    1.697719   -6.460880
   3 H     1.0000    0     1.008    7.055645   -0.190115   -6.118240
   4 H     1.0000    0     1.008    8.917798    1.629994   -8.199532
   5 C     6.0000    0    12.011    9.481405    2.485390   -4.197658
   6 C     6.0000    0    12.011    8.042425    6.999265   -8.930948
   7 N     7.0000    0    14.007    7.056298    8.114075  -10.961867
   8 N     7.0000    0    14.007   10.421913    6.438778   -8.763009
   9 H     1.0000    0     1.008   11.620279    6.805287  -10.202732
  10 H     1.0000    0     1.008   10.986082    5.479268   -7.197561
  11 H     1.0000    0     1.008    5.180457    8.528540  -11.007090
  12 H     1.0000    0     1.008    8.102292    8.543944  -12.499293
  13 H     1.0000    0     1.008    4.306568    3.279147   -5.150441
  14 H     1.0000    0     1.008    4.492760    3.072291   -8.458167
  15 O     8.0000    0    15.999    8.951737    1.614038   -2.121832
  16 O     8.0000    0    15.999   11.202573    4.097131   -4.707997
  17 H     1.0000    0     1.008    7.296698    6.797822   -5.032300
  18 H     1.0000    0     1.008    4.623202    7.508754   -6.909890

--------------------------------
INTERNAL COORDINATES (ANGSTROEM)
--------------------------------
 C      0   0   0     0.000000000000     0.00000000     0.00000000
 C      1   0   0     1.541955024880     0.00000000     0.00000000
 C      2   1   0     1.529459731877   114.59647875     0.00000000
 H      3   2   1     1.089638404615   108.42080280   169.84269645
 H      3   2   1     1.093504202718   110.48067446   287.77495084
 C      3   2   1     1.548184316806   110.50829043    50.38237693
 C      1   2   3     1.496828833341   112.87029798    60.99277320
 N      7   1   2     1.332421496251   118.40475339   100.88730349
 N      7   1   2     1.296679672360   119.11744996   281.82651921
 H      9   7   1     1.010051189819   120.93457194   177.85654102
 H      9   7   1     1.016457414395   117.08628344     3.23408230
 H      8   7   1     1.016874596539   119.78805900     1.33715241
 H      8   7   1     1.009962060502   122.33188892   182.52589138
 H      2   1   3     1.091606836098   106.16254242   120.06039675
 H      2   1   3     1.094970931493   109.48850295   235.12365012
 O      6   3   2     1.223859674100   117.48492925    89.39693928
 O      6   3   2     1.276685429462   115.18110245   272.92014429
 H      1   2   3     1.090885930422   109.02734392   301.35657719
 H      1   2   3     1.091702678778   109.92131780   182.76836174

---------------------------
INTERNAL COORDINATES (A.U.)
---------------------------
 C      0   0   0     0.000000000000     0.00000000     0.00000000
 C      1   0   0     2.913872707847     0.00000000     0.00000000
 C      2   1   0     2.890260026108   114.59647875     0.00000000
 H      3   2   1     2.059118169725   108.42080280   169.84269645
 H      3   2   1     2.066423469429   110.48067446   287.77495084
 C      3   2   1     2.925644363596   110.50829043    50.38237693
 C      1   2   3     2.828596564372   112.87029798    60.99277320
 N      7   1   2     2.517911722863   118.40475339   100.88730349
 N      7   1   2     2.450369464184   119.11744996   281.82651921
 H      9   7   1     1.908720130000   120.93457194   177.85654102
 H      9   7   1     1.920826140000   117.08628344     3.23408230
 H      8   7   1     1.921614500000   119.78805900     1.33715241
 H      8   7   1     1.908551700000   122.33188892   182.52589138
 H      2   1   3     2.062837966141   106.16254242   120.06039675
 H      2   1   3     2.069195185126   109.48850295   235.12365012
 O      6   3   2     2.312759610399   117.48492925    89.39693928
 O      6   3   2     2.412585820850   115.18110245   272.92014429
 H      1   2   3     2.061475651846   109.02734392   301.35657719
 H      1   2   3     2.063019082559   109.92131780   182.76836174

---------------------
BASIS SET INFORMATION
---------------------
There are 4 groups of distinct atoms

 Group   1 Type C   : 11s6p2d1f contracted to 5s3p2d1f pattern {62111/411/11/1}
 Group   2 Type H   : 5s1p contracted to 3s1p pattern {311/1}
 Group   3 Type N   : 11s6p2d1f contracted to 5s3p2d1f pattern {62111/411/11/1}
 Group   4 Type O   : 11s6p2d1f contracted to 5s3p2d1f pattern {62111/411/11/1}

Atom   0C    basis set group =>   1
Atom   1C    basis set group =>   1
Atom   2C    basis set group =>   1
Atom   3H    basis set group =>   2
Atom   4H    basis set group =>   2
Atom   5C    basis set group =>   1
Atom   6C    basis set group =>   1
Atom   7N    basis set group =>   3
Atom   8N    basis set group =>   3
Atom   9H    basis set group =>   2
Atom  10H    basis set group =>   2
Atom  11H    basis set group =>   2
Atom  12H    basis set group =>   2
Atom  13H    basis set group =>   2
Atom  14H    basis set group =>   2
Atom  15O    basis set group =>   4
Atom  16O    basis set group =>   4
Atom  17H    basis set group =>   2
Atom  18H    basis set group =>   2
---------------------------------
AUXILIARY/J BASIS SET INFORMATION
---------------------------------
There are 4 groups of distinct atoms

 Group   1 Type C   : 12s5p4d2f1g contracted to 6s4p3d1f1g pattern {711111/2111/211/2/1}
 Group   2 Type H   : 5s2p1d contracted to 3s1p1d pattern {311/2/1}
 Group   3 Type N   : 12s5p4d2f1g contracted to 6s4p3d1f1g pattern {711111/2111/211/2/1}
 Group   4 Type O   : 12s5p4d2f1g contracted to 6s4p3d1f1g pattern {711111/2111/211/2/1}

Atom   0C    basis set group =>   1
Atom   1C    basis set group =>   1
Atom   2C    basis set group =>   1
Atom   3H    basis set group =>   2
Atom   4H    basis set group =>   2
Atom   5C    basis set group =>   1
Atom   6C    basis set group =>   1
Atom   7N    basis set group =>   3
Atom   8N    basis set group =>   3
Atom   9H    basis set group =>   2
Atom  10H    basis set group =>   2
Atom  11H    basis set group =>   2
Atom  12H    basis set group =>   2
Atom  13H    basis set group =>   2
Atom  14H    basis set group =>   2
Atom  15O    basis set group =>   4
Atom  16O    basis set group =>   4
Atom  17H    basis set group =>   2
Atom  18H    basis set group =>   2


           ************************************************************
           *        Program running with 18 parallel MPI-processes    *
           *              working on a common directory               *
           ************************************************************
------------------------------------------------------------------------------
                           ORCA GTO INTEGRAL CALCULATION
                           -- RI-GTO INTEGRALS CHOSEN --
------------------------------------------------------------------------------
------------------------------------------------------------------------------
                   ___                                                        
                  /   \      - P O W E R E D   B Y -                         
                 /     \                                                     
                 |  |  |   _    _      __       _____    __    __             
                 |  |  |  | |  | |    /  \     |  _  \  |  |  /  |          
                  \  \/   | |  | |   /    \    | | | |  |  | /  /          
                 / \  \   | |__| |  /  /\  \   | |_| |  |  |/  /          
                |  |  |   |  __  | /  /__\  \  |    /   |      \           
                |  |  |   | |  | | |   __   |  |    \   |  |\   \          
                \     /   | |  | | |  |  |  |  | |\  \  |  | \   \       
                 \___/    |_|  |_| |__|  |__|  |_| \__\ |__|  \__/        
                                                                              
                      - O R C A' S   B I G   F R I E N D -                    
                                      &                                       
                       - I N T E G R A L  F E E D E R -                       
                                                                              
 v1 FN, 2020, v2 2021                                                         
------------------------------------------------------------------------------


Reading SHARK input file LC_BLYP_B_wt_wb97.SHARKINP.tmp ... ok
----------------------
SHARK INTEGRAL PACKAGE
----------------------

Number of atoms                             ...     19
Number of basis functions                   ...    339
Number of shells                            ...    139
Maximum angular momentum                    ...      3
Integral batch strategy                     ... SHARK/LIBINT Hybrid
RI-J (if used) integral strategy            ... SPLIT-RIJ (Revised 2003 algorithm where possible)
Printlevel                                  ...      1
Contraction scheme used                     ... SEGMENTED contraction
Coulomb Range Separation                    ... NOT USED
Exchange Range Separation                   ... Long Range
   Mu parameter                             ...  0.330000
   Scaling (regular/separated)              ...  0.000000  1.000000
Finite Nucleus Model                        ... NOT USED
Auxiliary Coulomb fitting basis             ... AVAILABLE
   # of basis functions in Aux-J            ...    551
   # of shells in Aux-J                     ...    185
   Maximum angular momentum in Aux-J        ...      4
Auxiliary J/K fitting basis                 ... NOT available
Auxiliary Correlation fitting basis         ... NOT available
Auxiliary 'external' fitting basis          ... NOT available
Integral threshold                          ...     2.500000e-11
Primitive cut-off                           ...     2.500000e-12
Primitive pair pre-selection threshold      ...     2.500000e-12

Calculating pre-screening integrals         ... done (  0.1 sec) Dimension = 139
Organizing shell pair data                  ... done (  0.1 sec)
Shell pair information
Total number of shell pairs                 ...      9730
Shell pairs after pre-screening             ...      8814
Total number of primitive shell pairs       ...     29148
Primitive shell pairs kept                  ...     19574
          la=0 lb=0:   2500 shell pairs
          la=1 lb=0:   2549 shell pairs
          la=1 lb=1:    672 shell pairs
          la=2 lb=0:   1202 shell pairs
          la=2 lb=1:    627 shell pairs
          la=2 lb=2:    160 shell pairs
          la=3 lb=0:    602 shell pairs
          la=3 lb=1:    312 shell pairs
          la=3 lb=2:    150 shell pairs
          la=3 lb=3:     40 shell pairs

Calculating one electron integrals          ... done (  0.0 sec)
Calculating RI/J V-Matrix + Cholesky decomp.... done (  0.1 sec)
Calculating Nuclear repulsion               ... done (  0.0 sec) ENN=    475.934600022799 Eh

SHARK setup successfully completed in   0.4 seconds

Maximum memory used throughout the entire GTOINT-calculation: 15.8 MB


           ************************************************************
           *        Program running with 18 parallel MPI-processes    *
           *              working on a common directory               *
           ************************************************************
-------------------------------------------------------------------------------
                                 ORCA SCF
-------------------------------------------------------------------------------

------------
SCF SETTINGS
------------
Hamiltonian:
 Density Functional     Method          .... DFT(GTOs)
 Exchange Functional    Exchange        .... WB88
 Correlation Functional Correlation     .... LYP
 Gradients option       PostSCFGGA      .... off
   Density functional embedding theory  .... OFF
 Long-range corrected/Screened/Range-Separated Hybrid DFT is turned on
   Amount of maximum screened exact exchange              ....  1.000000
   Range separation parameter mu (erf(mu*r12)/r12)        ....  0.330000
 RI-approximation to the Coulomb term is turned on
   Number of AuxJ basis functions       .... 551
   RIJ-COSX (HFX calculated with COS-X)).... on


General Settings:
 Integral files         IntName         .... LC_BLYP_B_wt_wb97
 Hartree-Fock type      HFTyp           .... RHF
 Total Charge           Charge          ....    0
 Multiplicity           Mult            ....    1
 Number of Electrons    NEL             ....   70
 Basis Dimension        Dim             ....  339
 Nuclear Repulsion      ENuc            ....    475.9346000228 Eh

Convergence Acceleration:
 DIIS                   CNVDIIS         .... on
   Start iteration      DIISMaxIt       ....    12
   Startup error        DIISStart       ....  0.200000
   # of expansion vecs  DIISMaxEq       ....     5
   Bias factor          DIISBfac        ....   1.050
   Max. coefficient     DIISMaxC        ....  10.000
 Trust-Rad. Augm. Hess. CNVTRAH         .... auto
   Auto Start mean grad. ratio tolernc. ....  1.125000
   Auto Start start iteration           ....    20
   Auto Start num. interpolation iter.  ....    10
   Max. Number of Micro iterations      ....    16
   Max. Number of Macro iterations      .... Maxiter - #DIIS iter
   Number of Davidson start vectors     ....     2
   Converg. threshold I  (grad. norm)   ....   1.000e-05
   Converg. threshold II (energy diff.) ....   1.000e-08
   Grad. Scal. Fac. for Micro threshold ....   0.100
   Minimum threshold for Micro iter.    ....   0.010
   NR start threshold (gradient norm)   ....   0.001
   Initial trust radius                 ....   0.400
   Minimum AH scaling param. (alpha)    ....   1.000
   Maximum AH scaling param. (alpha)    .... 1000.000
   Orbital update algorithm             .... Taylor
   White noise on init. David. guess    .... on
   Maximum white noise                  ....   0.010
   Quad. conv. algorithm                .... NR
 SOSCF                  CNVSOSCF        .... on
   Start iteration      SOSCFMaxIt      ....   150
   Startup grad/error   SOSCFStart      ....  0.003300
 Level Shifting         CNVShift        .... on
   Level shift para.    LevelShift      ....    0.2500
   Turn off err/grad.   ShiftErr        ....    0.0010
 Zerner damping         CNVZerner       .... off
 Static damping         CNVDamp         .... on
   Fraction old density DampFac         ....    0.7000
   Max. Damping (<1)    DampMax         ....    0.9800
   Min. Damping (>=0)   DampMin         ....    0.0000
   Turn off err/grad.   DampErr         ....    0.1000
 Fernandez-Rico         CNVRico         .... off

SCF Procedure:
 Maximum # iterations   MaxIter         ....   150
 SCF integral mode      SCFMode         .... Direct
   Integral package                     .... SHARK and LIBINT hybrid scheme
 Reset frequency        DirectResetFreq ....    20
 Integral Threshold     Thresh          ....  2.500e-11 Eh
 Primitive CutOff       TCut            ....  2.500e-12 Eh

Convergence Tolerance:
 Convergence Check Mode ConvCheckMode   .... Total+1el-Energy
 Convergence forced     ConvForced      .... 0
 Energy Change          TolE            ....  1.000e-08 Eh
 1-El. energy change                    ....  1.000e-05 Eh
 Orbital Gradient       TolG            ....  1.000e-05
 Orbital Rotation angle TolX            ....  1.000e-05
 DIIS Error             TolErr          ....  5.000e-07


Diagonalization of the overlap matrix:
Smallest eigenvalue                        ... 1.160e-04
Time for diagonalization                   ...    0.037 sec
Threshold for overlap eigenvalues          ... 1.000e-08
Number of eigenvalues below threshold      ... 0
Time for construction of square roots      ...    0.049 sec
Total time needed                          ...    0.089 sec

Time for model grid setup =    0.124 sec

------------------------------
INITIAL GUESS: MODEL POTENTIAL
------------------------------
Loading Hartree-Fock densities                     ... done
Calculating cut-offs                               ... done
Initializing the effective Hamiltonian             ... done
Setting up the integral package (SHARK)            ... done
Starting the Coulomb interaction                   ... done (   0.1 sec)
Reading the grid                                   ... done
Mapping shells                                     ... done
Starting the XC term evaluation                    ... done (   0.1 sec)
  promolecular density results
     # of electrons  =     69.990105384
     EX              =    -57.956581715
     EC              =     -2.344152305
     EX+EC           =    -60.300734020
Transforming the Hamiltonian                       ... done (   0.0 sec)
Diagonalizing the Hamiltonian                      ... done (   0.0 sec)
Back transforming the eigenvectors                 ... done (   0.0 sec)
Now organizing SCF variables                       ... done
                      ------------------
                      INITIAL GUESS DONE (   0.3 sec)
                      ------------------
-------------------
DFT GRID GENERATION
-------------------

General Integration Accuracy     IntAcc      ... 4.388
Radial Grid Type                 RadialGrid  ... OptM3 with GC (2021)
Angular Grid (max. ang.)         AngularGrid ... 4 (Lebedev-302)
Angular grid pruning method      GridPruning ... 4 (adaptive)
Weight generation scheme         WeightScheme... Becke
Basis function cutoff            BFCut       ... 1.0000e-11
Integration weight cutoff        WCut        ... 1.0000e-14
Angular grids for H and He will be reduced by one unit
Partially contracted basis set               ... off
Rotationally invariant grid construction     ... off

Total number of grid points                  ...    86121
Total number of batches                      ...     1356
Average number of points per batch           ...       63
Average number of grid points per atom       ...     4533
Time for grid setup =    0.628 sec

--------------------
COSX GRID GENERATION
--------------------

GRIDX 1
-------
General Integration Accuracy     IntAcc      ... 3.816
Radial Grid Type                 RadialGrid  ... OptM3 with GC (2021)
Angular Grid (max. ang.)         AngularGrid ... 1 (Lebedev-50)
Angular grid pruning method      GridPruning ... 4 (adaptive)
Weight generation scheme         WeightScheme... Becke
Basis function cutoff            BFCut       ... 1.0000e-11
Integration weight cutoff        WCut        ... 1.0000e-14
Angular grids for H and He will be reduced by one unit
Partially contracted basis set               ... on
Rotationally invariant grid construction     ... off

Total number of grid points                  ...    11010
Total number of batches                      ...      184
Average number of points per batch           ...       59
Average number of grid points per atom       ...      579
UseSFitting                                  ... on

GRIDX 2
-------
General Integration Accuracy     IntAcc      ... 4.020
Radial Grid Type                 RadialGrid  ... OptM3 with GC (2021)
Angular Grid (max. ang.)         AngularGrid ... 2 (Lebedev-110)
Angular grid pruning method      GridPruning ... 4 (adaptive)
Weight generation scheme         WeightScheme... Becke
Basis function cutoff            BFCut       ... 1.0000e-11
Integration weight cutoff        WCut        ... 1.0000e-14
Angular grids for H and He will be reduced by one unit
Partially contracted basis set               ... on
Rotationally invariant grid construction     ... off

Total number of grid points                  ...    23654
Total number of batches                      ...      377
Average number of points per batch           ...       62
Average number of grid points per atom       ...     1245
UseSFitting                                  ... on

GRIDX 3
-------
General Integration Accuracy     IntAcc      ... 4.338
Radial Grid Type                 RadialGrid  ... OptM3 with GC (2021)
Angular Grid (max. ang.)         AngularGrid ... 3 (Lebedev-194)
Angular grid pruning method      GridPruning ... 4 (adaptive)
Weight generation scheme         WeightScheme... Becke
Basis function cutoff            BFCut       ... 1.0000e-11
Integration weight cutoff        WCut        ... 1.0000e-14
Angular grids for H and He will be reduced by one unit
Partially contracted basis set               ... on
Rotationally invariant grid construction     ... off

Total number of grid points                  ...    51782
Total number of batches                      ...      820
Average number of points per batch           ...       63
Average number of grid points per atom       ...     2725
UseSFitting                                  ... on

Time for X-Grid setup             =    0.568 sec

--------------
SCF ITERATIONS
--------------
ITER       Energy         Delta-E        Max-DP      RMS-DP      [F,P]     Damp
               ***  Starting incremental Fock matrix formation  ***
  0   -455.2640938018   0.000000000000 0.10416003  0.00135912  0.2999846 0.7000
  1   -455.4241201681  -0.160026366251 0.11953983  0.00121459  0.1397312 0.7000
                               ***Turning on DIIS***
  2   -455.4975925277  -0.073472359594 0.22238768  0.00246107  0.0492510 0.0000
  3   -455.6196693790  -0.122076851365 0.09608293  0.00070428  0.0774349 0.0000
  4   -455.6391607696  -0.019491390603 0.03635158  0.00023571  0.0085036 0.0000
  5   -455.6396715753  -0.000510805663 0.01542748  0.00009627  0.0051606 0.0000
                      *** Initiating the SOSCF procedure ***
                           *** Shutting down DIIS ***
                      *** Re-Reading the Fockian *** 
                      *** Removing any level shift *** 
ITER      Energy       Delta-E        Grad      Rot      Max-DP    RMS-DP
  6   -455.63976801  -0.0000964360  0.000645  0.000645  0.008319  0.000053
               *** Restarting incremental Fock matrix formation ***
  7   -455.63976779   0.0000002187  0.000338  0.000721  0.006621  0.000041
  8   -455.63977124  -0.0000034478  0.000403  0.000679  0.003523  0.000024
  9   -455.63977329  -0.0000020503  0.000096  0.000127  0.001017  0.000008
 10   -455.63977338  -0.0000000885  0.000054  0.000053  0.000434  0.000003
 11   -455.63977346  -0.0000000828  0.000008  0.000020  0.000135  0.000001
 12   -455.63977346  -0.0000000005  0.000004  0.000007  0.000017  0.000000
                  ***Gradient check signals convergence***
              ***Rediagonalizing the Fockian in SOSCF/NRSCF***

               *****************************************************
               *                     SUCCESS                       *
               *           SCF CONVERGED AFTER  13 CYCLES          *
               *****************************************************


----------------
TOTAL SCF ENERGY
----------------

Total Energy       :         -455.63977347 Eh          -12398.58857 eV

Components:
Nuclear Repulsion  :          475.93460002 Eh           12950.83887 eV
Electronic Energy  :         -931.57437349 Eh          -25349.42744 eV
One Electron Energy:        -1564.96676000 Eh          -42584.91051 eV
Two Electron Energy:          633.39238650 Eh           17235.48307 eV
Max COSX asymmetry :            0.00000522 Eh               0.00014 eV

Virial components:
Potential Energy   :         -909.90127763 Eh          -24759.67252 eV
Kinetic Energy     :          454.26150416 Eh           12361.08395 eV
Virial Ratio       :            2.00303409


DFT components:
N(Alpha)           :       34.999880682685 electrons
N(Beta)            :       34.999880682685 electrons
N(Total)           :       69.999761365370 electrons
E(XC)              :      -48.975257845652 Eh       
DFET-embed. en.    :        0.000000000000 Eh       

---------------
SCF CONVERGENCE
---------------

  Last Energy change         ...   -6.3440e-09  Tolerance :   1.0000e-08
  Last MAX-Density change    ...    4.3817e-05  Tolerance :   1.0000e-07
  Last RMS-Density change    ...    3.0126e-07  Tolerance :   5.0000e-09
  Last Orbital Gradient      ...    2.1494e-06  Tolerance :   1.0000e-05
  Last Orbital Rotation      ...    3.1235e-06  Tolerance :   1.0000e-05

             **** THE GBW FILE WAS UPDATED (LC_BLYP_B_wt_wb97.gbw) ****
             **** DENSITY LC_BLYP_B_wt_wb97.scfp WAS UPDATED ****
             **** ENERGY FILE WAS UPDATED (LC_BLYP_B_wt_wb97.en.tmp) ****
             **** THE GBW FILE WAS UPDATED (LC_BLYP_B_wt_wb97.gbw) ****
             **** DENSITY LC_BLYP_B_wt_wb97.scfp WAS UPDATED ****
----------------
ORBITAL ENERGIES
----------------

  NO   OCC          E(Eh)            E(eV) 
   0   2.0000     -18.842831      -512.7395 
   1   2.0000     -18.830182      -512.3953 
   2   2.0000     -14.267646      -388.2424 
   3   2.0000     -14.228059      -387.1652 
   4   2.0000     -10.233116      -278.4572 
   5   2.0000     -10.115411      -275.2543 
   6   2.0000     -10.112333      -275.1706 
   7   2.0000     -10.087503      -274.4949 
   8   2.0000     -10.046560      -273.3808 
   9   2.0000      -1.147241       -31.2180 
  10   2.0000      -1.083490       -29.4833 
  11   2.0000      -1.050331       -28.5810 
  12   2.0000      -0.992788       -27.0151 
  13   2.0000      -0.933276       -25.3957 
  14   2.0000      -0.846636       -23.0381 
  15   2.0000      -0.783335       -21.3156 
  16   2.0000      -0.740482       -20.1495 
  17   2.0000      -0.724463       -19.7137 
  18   2.0000      -0.692797       -18.8520 
  19   2.0000      -0.646539       -17.5932 
  20   2.0000      -0.611726       -16.6459 
  21   2.0000      -0.591356       -16.0916 
  22   2.0000      -0.567093       -15.4314 
  23   2.0000      -0.549974       -14.9655 
  24   2.0000      -0.527669       -14.3586 
  25   2.0000      -0.498344       -13.5606 
  26   2.0000      -0.481697       -13.1076 
  27   2.0000      -0.470800       -12.8111 
  28   2.0000      -0.466661       -12.6985 
  29   2.0000      -0.438238       -11.9251 
  30   2.0000      -0.429573       -11.6893 
  31   2.0000      -0.426985       -11.6188 
  32   2.0000      -0.315682        -8.5901 
  33   2.0000      -0.309682        -8.4269 
  34   2.0000      -0.288200        -7.8423 
  35   0.0000       0.030366         0.8263 
  36   0.0000       0.034400         0.9361 
  37   0.0000       0.073009         1.9867 
  38   0.0000       0.100920         2.7462 
  39   0.0000       0.119461         3.2507 
  40   0.0000       0.135054         3.6750 
  41   0.0000       0.140168         3.8142 
  42   0.0000       0.170713         4.6453 
  43   0.0000       0.174295         4.7428 
  44   0.0000       0.185523         5.0483 
  45   0.0000       0.192089         5.2270 
  46   0.0000       0.198134         5.3915 
  47   0.0000       0.214201         5.8287 
  48   0.0000       0.230679         6.2771 
  49   0.0000       0.259660         7.0657 
  50   0.0000       0.262470         7.1422 
  51   0.0000       0.276763         7.5311 
  52   0.0000       0.291948         7.9443 
  53   0.0000       0.299795         8.1578 
  54   0.0000       0.313888         8.5413 
  55   0.0000       0.323142         8.7931 
  56   0.0000       0.334450         9.1008 
  57   0.0000       0.336259         9.1501 
  58   0.0000       0.353992         9.6326 
  59   0.0000       0.374941        10.2027 
  60   0.0000       0.392185        10.6719 
  61   0.0000       0.399465        10.8700 
  62   0.0000       0.410153        11.1608 
  63   0.0000       0.413999        11.2655 
  64   0.0000       0.423429        11.5221 
  65   0.0000       0.439930        11.9711 
  66   0.0000       0.447224        12.1696 
  67   0.0000       0.471803        12.8384 
  68   0.0000       0.478400        13.0179 
  69   0.0000       0.486639        13.2421 
  70   0.0000       0.490492        13.3470 
  71   0.0000       0.498177        13.5561 
  72   0.0000       0.504469        13.7273 
  73   0.0000       0.508742        13.8436 
  74   0.0000       0.513989        13.9863 
  75   0.0000       0.523354        14.2412 
  76   0.0000       0.530235        14.4284 
  77   0.0000       0.536094        14.5879 
  78   0.0000       0.545652        14.8480 
  79   0.0000       0.549508        14.9529 
  80   0.0000       0.563186        15.3251 
  81   0.0000       0.564902        15.3718 
  82   0.0000       0.592640        16.1266 
  83   0.0000       0.604137        16.4394 
  84   0.0000       0.609895        16.5961 
  85   0.0000       0.646484        17.5917 
  86   0.0000       0.659364        17.9422 
  87   0.0000       0.682388        18.5687 
  88   0.0000       0.684007        18.6128 
  89   0.0000       0.719502        19.5786 
  90   0.0000       0.725439        19.7402 
  91   0.0000       0.738114        20.0851 
  92   0.0000       0.761046        20.7091 
  93   0.0000       0.769372        20.9357 
  94   0.0000       0.780590        21.2409 
  95   0.0000       0.784419        21.3451 
  96   0.0000       0.803867        21.8743 
  97   0.0000       0.826450        22.4888 
  98   0.0000       0.828144        22.5349 
  99   0.0000       0.875166        23.8145 
 100   0.0000       0.902421        24.5561 
 101   0.0000       0.938588        25.5403 
 102   0.0000       0.950184        25.8558 
 103   0.0000       0.962712        26.1967 
 104   0.0000       0.977514        26.5995 
 105   0.0000       0.997001        27.1298 
 106   0.0000       1.026505        27.9326 
 107   0.0000       1.030456        28.0401 
 108   0.0000       1.049217        28.5507 
 109   0.0000       1.073369        29.2079 
 110   0.0000       1.087914        29.6036 
 111   0.0000       1.104332        30.0504 
 112   0.0000       1.116088        30.3703 
 113   0.0000       1.140513        31.0349 
 114   0.0000       1.158050        31.5121 
 115   0.0000       1.190780        32.4028 
 116   0.0000       1.205981        32.8164 
 117   0.0000       1.227384        33.3988 
 118   0.0000       1.238347        33.6971 
 119   0.0000       1.257948        34.2305 
 120   0.0000       1.277315        34.7575 
 121   0.0000       1.295247        35.2455 
 122   0.0000       1.315891        35.8072 
 123   0.0000       1.328178        36.1416 
 124   0.0000       1.336725        36.3741 
 125   0.0000       1.351548        36.7775 
 126   0.0000       1.391773        37.8721 
 127   0.0000       1.429081        38.8873 
 128   0.0000       1.461222        39.7619 
 129   0.0000       1.472438        40.0671 
 130   0.0000       1.494758        40.6744 
 131   0.0000       1.526153        41.5287 
 132   0.0000       1.537694        41.8428 
 133   0.0000       1.551208        42.2105 
 134   0.0000       1.559745        42.4428 
 135   0.0000       1.568130        42.6710 
 136   0.0000       1.595661        43.4202 
 137   0.0000       1.605149        43.6783 
 138   0.0000       1.616287        43.9814 
 139   0.0000       1.625047        44.2198 
 140   0.0000       1.646493        44.8034 
 141   0.0000       1.666870        45.3578 
 142   0.0000       1.677191        45.6387 
 143   0.0000       1.712671        46.6042 
 144   0.0000       1.714994        46.6674 
 145   0.0000       1.723456        46.8976 
 146   0.0000       1.740873        47.3716 
 147   0.0000       1.747651        47.5560 
 148   0.0000       1.769012        48.1373 
 149   0.0000       1.790058        48.7099 
 150   0.0000       1.797280        48.9065 
 151   0.0000       1.820333        49.5338 
 152   0.0000       1.860524        50.6274 
 153   0.0000       1.879389        51.1408 
 154   0.0000       1.884768        51.2871 
 155   0.0000       1.897021        51.6206 
 156   0.0000       1.931219        52.5511 
 157   0.0000       1.937248        52.7152 
 158   0.0000       1.964715        53.4626 
 159   0.0000       1.972063        53.6626 
 160   0.0000       2.009791        54.6892 
 161   0.0000       2.028565        55.2001 
 162   0.0000       2.041133        55.5420 
 163   0.0000       2.071592        56.3709 
 164   0.0000       2.086300        56.7711 
 165   0.0000       2.109097        57.3915 
 166   0.0000       2.121962        57.7415 
 167   0.0000       2.144612        58.3579 
 168   0.0000       2.169757        59.0421 
 169   0.0000       2.186298        59.4922 
 170   0.0000       2.198294        59.8186 
 171   0.0000       2.221108        60.4394 
 172   0.0000       2.248044        61.1724 
 173   0.0000       2.260532        61.5122 
 174   0.0000       2.281867        62.0928 
 175   0.0000       2.306691        62.7683 
 176   0.0000       2.323812        63.2341 
 177   0.0000       2.367383        64.4198 
 178   0.0000       2.392695        65.1085 
 179   0.0000       2.416364        65.7526 
 180   0.0000       2.426029        66.0156 
 181   0.0000       2.440979        66.4224 
 182   0.0000       2.458725        66.9053 
 183   0.0000       2.477816        67.4248 
 184   0.0000       2.497397        67.9576 
 185   0.0000       2.519735        68.5655 
 186   0.0000       2.534756        68.9742 
 187   0.0000       2.549917        69.3868 
 188   0.0000       2.576214        70.1023 
 189   0.0000       2.588354        70.4327 
 190   0.0000       2.597355        70.6776 
 191   0.0000       2.620759        71.3145 
 192   0.0000       2.643701        71.9388 
 193   0.0000       2.671024        72.6823 
 194   0.0000       2.686513        73.1037 
 195   0.0000       2.696713        73.3813 
 196   0.0000       2.707577        73.6769 
 197   0.0000       2.720212        74.0207 
 198   0.0000       2.737037        74.4785 
 199   0.0000       2.752410        74.8969 
 200   0.0000       2.775479        75.5246 
 201   0.0000       2.814968        76.5992 
 202   0.0000       2.821408        76.7744 
 203   0.0000       2.841188        77.3127 
 204   0.0000       2.871996        78.1510 
 205   0.0000       2.885611        78.5215 
 206   0.0000       2.906367        79.0863 
 207   0.0000       2.916257        79.3554 
 208   0.0000       2.936715        79.9121 
 209   0.0000       2.956409        80.4480 
 210   0.0000       2.994608        81.4874 
 211   0.0000       3.027502        82.3825 
 212   0.0000       3.038666        82.6863 
 213   0.0000       3.045076        82.8607 
 214   0.0000       3.083448        83.9049 
 215   0.0000       3.092523        84.1518 
 216   0.0000       3.115655        84.7813 
 217   0.0000       3.130332        85.1807 
 218   0.0000       3.142193        85.5034 
 219   0.0000       3.161800        86.0370 
 220   0.0000       3.172360        86.3243 
 221   0.0000       3.185752        86.6887 
 222   0.0000       3.224837        87.7523 
 223   0.0000       3.243975        88.2730 
 224   0.0000       3.253813        88.5407 
 225   0.0000       3.266614        88.8891 
 226   0.0000       3.274715        89.1095 
 227   0.0000       3.283835        89.3577 
 228   0.0000       3.313407        90.1624 
 229   0.0000       3.343402        90.9786 
 230   0.0000       3.354072        91.2689 
 231   0.0000       3.374731        91.8311 
 232   0.0000       3.381930        92.0270 
 233   0.0000       3.386225        92.1439 
 234   0.0000       3.415936        92.9523 
 235   0.0000       3.424173        93.1765 
 236   0.0000       3.458568        94.1124 
 237   0.0000       3.464160        94.2646 
 238   0.0000       3.479185        94.6734 
 239   0.0000       3.490859        94.9911 
 240   0.0000       3.510385        95.5224 
 241   0.0000       3.551988        96.6545 
 242   0.0000       3.563797        96.9758 
 243   0.0000       3.578579        97.3781 
 244   0.0000       3.590232        97.6952 
 245   0.0000       3.604657        98.0877 
 246   0.0000       3.649659        99.3123 
 247   0.0000       3.672347        99.9296 
 248   0.0000       3.693679       100.5101 
 249   0.0000       3.706393       100.8561 
 250   0.0000       3.768803       102.5543 
 251   0.0000       3.778975       102.8311 
 252   0.0000       3.790678       103.1496 
 253   0.0000       3.805793       103.5609 
 254   0.0000       3.826532       104.1252 
 255   0.0000       3.890256       105.8592 
 256   0.0000       3.916948       106.5856 
 257   0.0000       3.942832       107.2899 
 258   0.0000       3.952247       107.5461 
 259   0.0000       3.998038       108.7922 
 260   0.0000       4.021421       109.4284 
 261   0.0000       4.033397       109.7543 
 262   0.0000       4.055461       110.3547 
 263   0.0000       4.104256       111.6825 
 264   0.0000       4.120545       112.1257 
 265   0.0000       4.125337       112.2561 
 266   0.0000       4.178772       113.7102 
 267   0.0000       4.218255       114.7846 
 268   0.0000       4.274902       116.3260 
 269   0.0000       4.298829       116.9771 
 270   0.0000       4.340624       118.1144 
 271   0.0000       4.352851       118.4471 
 272   0.0000       4.371611       118.9576 
 273   0.0000       4.398528       119.6900 
 274   0.0000       4.481640       121.9516 
 275   0.0000       4.525631       123.1487 
 276   0.0000       4.556477       123.9881 
 277   0.0000       4.569028       124.3296 
 278   0.0000       4.608361       125.3999 
 279   0.0000       4.628174       125.9390 
 280   0.0000       4.667208       127.0012 
 281   0.0000       4.690940       127.6470 
 282   0.0000       4.716497       128.3424 
 283   0.0000       4.761795       129.5750 
 284   0.0000       4.799821       130.6098 
 285   0.0000       4.856863       132.1620 
 286   0.0000       4.875434       132.6673 
 287   0.0000       4.895610       133.2163 
 288   0.0000       4.904479       133.4577 
 289   0.0000       4.932703       134.2257 
 290   0.0000       4.959540       134.9559 
 291   0.0000       5.013082       136.4129 
 292   0.0000       5.072196       138.0215 
 293   0.0000       5.110649       139.0678 
 294   0.0000       5.149869       140.1351 
 295   0.0000       5.193747       141.3290 
 296   0.0000       5.232622       142.3869 
 297   0.0000       5.259039       143.1057 
 298   0.0000       5.323748       144.8665 
 299   0.0000       5.331942       145.0895 
 300   0.0000       5.338635       145.2716 
 301   0.0000       5.346739       145.4922 
 302   0.0000       5.357366       145.7813 
 303   0.0000       5.393293       146.7590 
 304   0.0000       5.454971       148.4373 
 305   0.0000       5.493496       149.4856 
 306   0.0000       5.523948       150.3143 
 307   0.0000       5.601708       152.4302 
 308   0.0000       5.690291       154.8407 
 309   0.0000       5.752396       156.5306 
 310   0.0000       5.804531       157.9493 
 311   0.0000       5.865673       159.6131 
 312   0.0000       5.953897       162.0138 
 313   0.0000       6.068568       165.1341 
 314   0.0000       6.142039       167.1334 
 315   0.0000       6.216003       169.1460 
 316   0.0000       6.301821       171.4813 
 317   0.0000       6.331708       172.2945 
 318   0.0000       6.504477       176.9958 
 319   0.0000       6.570660       178.7968 
 320   0.0000       6.614810       179.9981 
 321   0.0000       6.621372       180.1767 
 322   0.0000       6.804848       185.1693 
 323   0.0000       6.882777       187.2899 
 324   0.0000       6.936215       188.7440 
 325   0.0000       7.009924       190.7497 
 326   0.0000       7.098415       193.1577 
 327   0.0000       7.264675       197.6819 
 328   0.0000       7.314546       199.0389 
 329   0.0000       7.406465       201.5401 
 330   0.0000      22.365904       608.6072 
 331   0.0000      22.397608       609.4699 
 332   0.0000      22.446407       610.7978 
 333   0.0000      23.046012       627.1139 
 334   0.0000      23.425636       637.4440 
 335   0.0000      31.735793       863.5748 
 336   0.0000      31.988148       870.4418 
 337   0.0000      43.697289      1189.0637 
 338   0.0000      43.775306      1191.1866 

                    ********************************
                    * MULLIKEN POPULATION ANALYSIS *
                    ********************************

-----------------------
MULLIKEN ATOMIC CHARGES
-----------------------
   0 C :   -0.405339
   1 C :   -0.215931
   2 C :   -0.322922
   3 H :    0.130286
   4 H :    0.120197
   5 C :    0.153210
   6 C :    0.273191
   7 N :   -0.362489
   8 N :   -0.263657
   9 H :    0.227369
  10 H :    0.292624
  11 H :    0.269594
  12 H :    0.251350
  13 H :    0.154306
  14 H :    0.118063
  15 O :   -0.326609
  16 O :   -0.466587
  17 H :    0.235133
  18 H :    0.138211
Sum of atomic charges:    0.0000000

--------------------------------
MULLIKEN REDUCED ORBITAL CHARGES
--------------------------------
  0 C s       :     3.344062  s :     3.344062
      pz      :     0.982581  p :     2.978105
      px      :     1.007647
      py      :     0.987876
      dz2     :     0.008426  d :     0.078288
      dxz     :     0.015023
      dyz     :     0.022334
      dx2y2   :     0.007477
      dxy     :     0.025028
      f0      :     0.000687  f :     0.004884
      f+1     :     0.001155
      f-1     :     0.000303
      f+2     :     0.000741
      f-2     :     0.000304
      f+3     :     0.000673
      f-3     :     0.001022
  1 C s       :     3.262377  s :     3.262377
      pz      :     1.050944  p :     2.860480
      px      :     0.984066
      py      :     0.825470
      dz2     :     0.006563  d :     0.087880
      dxz     :     0.024454
      dyz     :     0.013869
      dx2y2   :     0.027141
      dxy     :     0.015852
      f0      :     0.000606  f :     0.005194
      f+1     :     0.000982
      f-1     :     0.000117
      f+2     :     0.000394
      f-2     :     0.000641
      f+3     :     0.001397
      f-3     :     0.001057
  2 C s       :     3.289918  s :     3.289918
      pz      :     0.998094  p :     2.960914
      px      :     0.959707
      py      :     1.003113
      dz2     :     0.013453  d :     0.067286
      dxz     :     0.022763
      dyz     :     0.006459
      dx2y2   :     0.015456
      dxy     :     0.009155
      f0      :     0.000806  f :     0.004804
      f+1     :     0.001244
      f-1     :     0.000219
      f+2     :     0.000157
      f-2     :     0.000904
      f+3     :     0.000920
      f-3     :     0.000554
  3 H s       :     0.848950  s :     0.848950
      pz      :     0.004286  p :     0.020764
      px      :     0.004959
      py      :     0.011519
  4 H s       :     0.859923  s :     0.859923
      pz      :     0.009550  p :     0.019881
      px      :     0.006396
      py      :     0.003935
  5 C s       :     3.095180  s :     3.095180
      pz      :     0.828313  p :     2.443011
      px      :     0.825391
      py      :     0.789307
      dz2     :     0.066144  d :     0.282676
      dxz     :     0.070383
      dyz     :     0.059503
      dx2y2   :     0.055925
      dxy     :     0.030721
      f0      :     0.006684  f :     0.025923
      f+1     :     0.004055
      f-1     :     0.003569
      f+2     :     0.001965
      f-2     :     0.004570
      f+3     :     0.002707
      f-3     :     0.002374
  6 C s       :     3.132313  s :     3.132313
      pz      :     0.806747  p :     2.359087
      px      :     0.827600
      py      :     0.724740
      dz2     :     0.046124  d :     0.217558
      dxz     :     0.057359
      dyz     :     0.025885
      dx2y2   :     0.038852
      dxy     :     0.049338
      f0      :     0.003709  f :     0.017852
      f+1     :     0.002207
      f-1     :     0.001642
      f+2     :     0.003371
      f-2     :     0.001920
      f+3     :     0.002326
      f-3     :     0.002677
  7 N s       :     3.427361  s :     3.427361
      pz      :     1.175710  p :     3.907967
      px      :     1.166307
      py      :     1.565949
      dz2     :     0.006839  d :     0.023949
      dxz     :     0.005352
      dyz     :     0.003856
      dx2y2   :     0.004925
      dxy     :     0.002976
      f0      :     0.000458  f :     0.003211
      f+1     :     0.000558
      f-1     :     0.000493
      f+2     :     0.000609
      f-2     :     0.000346
      f+3     :     0.000448
      f-3     :     0.000299
  8 N s       :     3.454677  s :     3.454677
      pz      :     1.273540  p :     3.780472
      px      :     1.057056
      py      :     1.449876
      dz2     :     0.001981  d :     0.025458
      dxz     :     0.009911
      dyz     :     0.003381
      dx2y2   :     0.004355
      dxy     :     0.005830
      f0      :     0.000138  f :     0.003051
      f+1     :     0.000408
      f-1     :     0.000421
      f+2     :     0.000646
      f-2     :     0.000339
      f+3     :     0.000500
      f-3     :     0.000599
  9 H s       :     0.735715  s :     0.735715
      pz      :     0.014456  p :     0.036916
      px      :     0.012739
      py      :     0.009722
 10 H s       :     0.642074  s :     0.642074
      pz      :     0.037652  p :     0.065302
      px      :     0.007321
      py      :     0.020329
 11 H s       :     0.693224  s :     0.693224
      pz      :     0.005514  p :     0.037181
      px      :     0.020710
      py      :     0.010957
 12 H s       :     0.711473  s :     0.711473
      pz      :     0.016931  p :     0.037176
      px      :     0.009163
      py      :     0.011082
 13 H s       :     0.825197  s :     0.825197
      pz      :     0.009407  p :     0.020498
      px      :     0.007229
      py      :     0.003862
 14 H s       :     0.862152  s :     0.862152
      pz      :     0.008963  p :     0.019785
      px      :     0.006608
      py      :     0.004213
 15 O s       :     3.721895  s :     3.721895
      pz      :     1.424038  p :     4.576923
      px      :     1.618223
      py      :     1.534662
      dz2     :     0.007771  d :     0.026210
      dxz     :     0.007238
      dyz     :     0.008065
      dx2y2   :     0.001721
      dxy     :     0.001415
      f0      :     0.000413  f :     0.001582
      f+1     :     0.000348
      f-1     :     0.000345
      f+2     :     0.000254
      f-2     :     0.000191
      f+3     :     0.000014
      f-3     :     0.000017
 16 O s       :     3.758337  s :     3.758337
      pz      :     1.709925  p :     4.683868
      px      :     1.501424
      py      :     1.472519
      dz2     :     0.003723  d :     0.022985
      dxz     :     0.003150
      dyz     :     0.003212
      dx2y2   :     0.006881
      dxy     :     0.006018
      f0      :     0.000139  f :     0.001397
      f+1     :     0.000130
      f-1     :     0.000189
      f+2     :     0.000079
      f-2     :     0.000265
      f+3     :     0.000314
      f-3     :     0.000281
 17 H s       :     0.743377  s :     0.743377
      pz      :     0.011085  p :     0.021490
      px      :     0.006097
      py      :     0.004307
 18 H s       :     0.841135  s :     0.841135
      pz      :     0.003842  p :     0.020654
      px      :     0.009922
      py      :     0.006890


                     *******************************
                     * LOEWDIN POPULATION ANALYSIS *
                     *******************************

----------------------
LOEWDIN ATOMIC CHARGES
----------------------
   0 C :   -0.214387
   1 C :   -0.259110
   2 C :   -0.261303
   3 H :    0.147726
   4 H :    0.130367
   5 C :   -0.682965
   6 C :   -0.309572
   7 N :    0.053165
   8 N :    0.134635
   9 H :    0.179154
  10 H :    0.137667
  11 H :    0.194210
  12 H :    0.181286
  13 H :    0.156861
  14 H :    0.135960
  15 O :    0.020938
  16 O :   -0.072864
  17 H :    0.179198
  18 H :    0.149032

-------------------------------
LOEWDIN REDUCED ORBITAL CHARGES
-------------------------------
  0 C s       :     2.764143  s :     2.764143
      pz      :     1.013715  p :     3.057853
      px      :     1.010260
      py      :     1.033878
      dz2     :     0.066320  d :     0.355876
      dxz     :     0.070632
      dyz     :     0.068280
      dx2y2   :     0.053555
      dxy     :     0.097090
      f0      :     0.004359  f :     0.036514
      f+1     :     0.005809
      f-1     :     0.004391
      f+2     :     0.007052
      f-2     :     0.004038
      f+3     :     0.004363
      f-3     :     0.006502
  1 C s       :     2.771328  s :     2.771328
      pz      :     1.038971  p :     3.058278
      px      :     1.032991
      py      :     0.986316
      dz2     :     0.043138  d :     0.392153
      dxz     :     0.102743
      dyz     :     0.055170
      dx2y2   :     0.107404
      dxy     :     0.083698
      f0      :     0.004039  f :     0.037350
      f+1     :     0.004205
      f-1     :     0.003525
      f+2     :     0.004962
      f-2     :     0.004930
      f+3     :     0.008870
      f-3     :     0.006818
  2 C s       :     2.786447  s :     2.786447
      pz      :     1.036494  p :     3.089855
      px      :     1.027312
      py      :     1.026049
      dz2     :     0.075223  d :     0.349454
      dxz     :     0.098817
      dyz     :     0.033309
      dx2y2   :     0.072312
      dxy     :     0.069793
      f0      :     0.004567  f :     0.035547
      f+1     :     0.006078
      f-1     :     0.004415
      f+2     :     0.003576
      f-2     :     0.005850
      f+3     :     0.006587
      f-3     :     0.004474
  3 H s       :     0.793626  s :     0.793626
      pz      :     0.013318  p :     0.058647
      px      :     0.015688
      py      :     0.029642
  4 H s       :     0.811107  s :     0.811107
      pz      :     0.026771  p :     0.058526
      px      :     0.018496
      py      :     0.013259
  5 C s       :     2.771994  s :     2.771994
      pz      :     1.001625  p :     2.740422
      px      :     0.885630
      py      :     0.853166
      dz2     :     0.236393  d :     1.014161
      dxz     :     0.261439
      dyz     :     0.216368
      dx2y2   :     0.164555
      dxy     :     0.135405
      f0      :     0.040301  f :     0.156388
      f+1     :     0.025010
      f-1     :     0.021625
      f+2     :     0.011511
      f-2     :     0.029114
      f+3     :     0.014668
      f-3     :     0.014159
  6 C s       :     2.728372  s :     2.728372
      pz      :     0.950766  p :     2.710012
      px      :     1.001226
      py      :     0.758020
      dz2     :     0.158934  d :     0.765366
      dxz     :     0.213423
      dyz     :     0.098495
      dx2y2   :     0.134456
      dxy     :     0.160058
      f0      :     0.024150  f :     0.105822
      f+1     :     0.013331
      f-1     :     0.010593
      f+2     :     0.018425
      f-2     :     0.012164
      f+3     :     0.012104
      f-3     :     0.015056
  7 N s       :     2.963860  s :     2.963860
      pz      :     1.222927  p :     3.837008
      px      :     1.167456
      py      :     1.446625
      dz2     :     0.042210  d :     0.135458
      dxz     :     0.039061
      dyz     :     0.019109
      dx2y2   :     0.019528
      dxy     :     0.015550
      f0      :     0.001649  f :     0.010509
      f+1     :     0.001580
      f-1     :     0.002074
      f+2     :     0.001895
      f-2     :     0.001516
      f+3     :     0.001084
      f-3     :     0.000712
  8 N s       :     2.969281  s :     2.969281
      pz      :     1.216521  p :     3.743098
      px      :     1.195370
      py      :     1.331207
      dz2     :     0.019741  d :     0.140900
      dxz     :     0.057500
      dyz     :     0.012062
      dx2y2   :     0.028450
      dxy     :     0.023147
      f0      :     0.001278  f :     0.012086
      f+1     :     0.001964
      f-1     :     0.001374
      f+2     :     0.001838
      f-2     :     0.001058
      f+3     :     0.002502
      f-3     :     0.002072
  9 H s       :     0.716164  s :     0.716164
      pz      :     0.044630  p :     0.104682
      px      :     0.031587
      py      :     0.028466
 10 H s       :     0.656784  s :     0.656784
      pz      :     0.122463  p :     0.205549
      px      :     0.021256
      py      :     0.061830
 11 H s       :     0.701831  s :     0.701831
      pz      :     0.016882  p :     0.103960
      px      :     0.056630
      py      :     0.030447
 12 H s       :     0.713218  s :     0.713218
      pz      :     0.044386  p :     0.105495
      px      :     0.029929
      py      :     0.031180
 13 H s       :     0.784535  s :     0.784535
      pz      :     0.026599  p :     0.058604
      px      :     0.019822
      py      :     0.012184
 14 H s       :     0.806553  s :     0.806553
      pz      :     0.026164  p :     0.057487
      px      :     0.018308
      py      :     0.013016
 15 O s       :     3.399856  s :     3.399856
      pz      :     1.518634  p :     4.510064
      px      :     1.519675
      py      :     1.471755
      dz2     :     0.024612  d :     0.063262
      dxz     :     0.014438
      dyz     :     0.017607
      dx2y2   :     0.002876
      dxy     :     0.003729
      f0      :     0.001699  f :     0.005879
      f+1     :     0.001136
      f-1     :     0.001559
      f+2     :     0.000584
      f-2     :     0.000762
      f+3     :     0.000075
      f-3     :     0.000064
 16 O s       :     3.403322  s :     3.403322
      pz      :     1.609804  p :     4.603189
      px      :     1.513788
      py      :     1.479597
      dz2     :     0.010321  d :     0.061146
      dxz     :     0.008831
      dyz     :     0.010747
      dx2y2   :     0.011455
      dxy     :     0.019791
      f0      :     0.000592  f :     0.005208
      f+1     :     0.000545
      f-1     :     0.000704
      f+2     :     0.000230
      f-2     :     0.001119
      f+3     :     0.000945
      f-3     :     0.001073
 17 H s       :     0.758591  s :     0.758591
      pz      :     0.029835  p :     0.062211
      px      :     0.018748
      py      :     0.013628
 18 H s       :     0.793222  s :     0.793222
      pz      :     0.012528  p :     0.057746
      px      :     0.026203
      py      :     0.019014


                      *****************************
                      * MAYER POPULATION ANALYSIS *
                      *****************************

  NA   - Mulliken gross atomic population
  ZA   - Total nuclear charge
  QA   - Mulliken gross atomic charge
  VA   - Mayer's total valence
  BVA  - Mayer's bonded valence
  FA   - Mayer's free valence

  ATOM       NA         ZA         QA         VA         BVA        FA
  0 C      6.4053     6.0000    -0.4053     3.8227     3.8227     0.0000
  1 C      6.2159     6.0000    -0.2159     3.7706     3.7706     0.0000
  2 C      6.3229     6.0000    -0.3229     3.7126     3.7126     0.0000
  3 H      0.8697     1.0000     0.1303     0.9933     0.9933     0.0000
  4 H      0.8798     1.0000     0.1202     0.9611     0.9611    -0.0000
  5 C      5.8468     6.0000     0.1532     4.5659     4.5659    -0.0000
  6 C      5.7268     6.0000     0.2732     3.8939     3.8939     0.0000
  7 N      7.3625     7.0000    -0.3625     3.2167     3.2167    -0.0000
  8 N      7.2637     7.0000    -0.2637     3.2227     3.2227     0.0000
  9 H      0.7726     1.0000     0.2274     0.9594     0.9594     0.0000
 10 H      0.7074     1.0000     0.2926     1.0396     1.0396     0.0000
 11 H      0.7304     1.0000     0.2696     0.9358     0.9358    -0.0000
 12 H      0.7486     1.0000     0.2514     0.9479     0.9479    -0.0000
 13 H      0.8457     1.0000     0.1543     0.9709     0.9709     0.0000
 14 H      0.8819     1.0000     0.1181     0.9598     0.9598    -0.0000
 15 O      8.3266     8.0000    -0.3266     2.1457     2.1457    -0.0000
 16 O      8.4666     8.0000    -0.4666     1.9028     1.9028     0.0000
 17 H      0.7649     1.0000     0.2351     0.9525     0.9525     0.0000
 18 H      0.8618     1.0000     0.1382     0.9687     0.9687    -0.0000

  Mayer bond orders larger than 0.100000
B(  0-C ,  1-C ) :   0.8946 B(  0-C ,  6-C ) :   0.9367 B(  0-C , 17-H ) :   0.9468 
B(  0-C , 18-H ) :   0.9788 B(  1-C ,  2-C ) :   0.9486 B(  1-C , 13-H ) :   0.9652 
B(  1-C , 14-H ) :   0.9719 B(  2-C ,  3-H ) :   0.9700 B(  2-C ,  4-H ) :   0.9610 
B(  2-C ,  5-C ) :   0.9159 B(  5-C , 15-O ) :   2.0853 B(  5-C , 16-O ) :   1.5440 
B(  6-C ,  7-N ) :   1.3278 B(  6-C ,  8-N ) :   1.6106 B(  7-N , 11-H ) :   0.9045 
B(  7-N , 12-H ) :   0.9111 B(  8-N ,  9-H ) :   0.9133 B(  8-N , 10-H ) :   0.6903 
B( 10-H , 16-O ) :   0.3155 

-------
TIMINGS
-------

Total SCF time: 0 days 0 hours 0 min 23 sec 

Total time                  ....      23.798 sec
Sum of individual times     ....      23.036 sec  ( 96.8%)

Fock matrix formation       ....      20.898 sec  ( 87.8%)
  Split-RI-J                ....       1.582 sec  (  7.6% of F)
  Chain of spheres X        ....      15.852 sec  ( 75.9% of F)
  XC integration            ....       2.187 sec  ( 10.5% of F)
    Basis function eval.    ....       0.570 sec  ( 26.1% of XC)
    Density eval.           ....       0.525 sec  ( 24.0% of XC)
    XC-Functional eval.     ....       0.116 sec  (  5.3% of XC)
    XC-Potential eval.      ....       0.541 sec  ( 24.7% of XC)
Diagonalization             ....       0.247 sec  (  1.0%)
Density matrix formation    ....       0.021 sec  (  0.1%)
Population analysis         ....       0.028 sec  (  0.1%)
Initial guess               ....       0.221 sec  (  0.9%)
Orbital Transformation      ....       0.000 sec  (  0.0%)
Orbital Orthonormalization  ....       0.000 sec  (  0.0%)
DIIS solution               ....       0.130 sec  (  0.5%)
SOSCF solution              ....       0.170 sec  (  0.7%)
Grid generation             ....       1.321 sec  (  5.5%)

Maximum memory used throughout the entire SCF-calculation: 42.5 MB

-------------------------   --------------------
FINAL SINGLE POINT ENERGY      -455.639773468906
-------------------------   --------------------


                            ***************************************
                            *     ORCA property calculations      *
                            ***************************************

                                    ---------------------
                                    Active property flags
                                    ---------------------
   (+) Dipole Moment


------------------------------------------------------------------------------
                       ORCA ELECTRIC PROPERTIES CALCULATION
------------------------------------------------------------------------------

Dipole Moment Calculation                       ... on
Quadrupole Moment Calculation                   ... off
Polarizability Calculation                      ... off
GBWName                                         ... LC_BLYP_B_wt_wb97.gbw
Electron density file                           ... LC_BLYP_B_wt_wb97.scfp
The origin for moment calculation is the CENTER OF MASS  = ( 8.356216,  4.608792 -6.645847)

-------------
DIPOLE MOMENT
-------------
                                X             Y             Z
Electronic contribution:      3.88563       0.03168       2.58038
Nuclear contribution   :     -5.42217       2.65262      -7.07590
                        -----------------------------------------
Total Dipole Moment    :     -1.53654       2.68430      -4.49552
                        -----------------------------------------
Magnitude (a.u.)       :      5.45675
Magnitude (Debye)      :     13.86996



--------------------
Rotational spectrum 
--------------------
 
Rotational constants in cm-1:     0.107541     0.035862     0.030371 
Rotational constants in MHz :  3223.996852  1075.120464   910.508313 

 Dipole components along the rotational axes: 
x,y,z [a.u.] :    -5.359397     0.714384     0.736665 
x,y,z [Debye]:   -13.622504     1.815820     1.872453 

 

Timings for individual modules:

Sum of individual times         ...       25.079 sec (=   0.418 min)
GTO integral calculation        ...        0.865 sec (=   0.014 min)   3.4 %
SCF iterations                  ...       24.215 sec (=   0.404 min)  96.6 %
                             ****ORCA TERMINATED NORMALLY****
TOTAL RUN TIME: 0 days 0 hours 0 minutes 25 seconds 669 msec
