
                                        *****************
                                        * O   R   C   A *
                                        *****************

                                            #,                                       
                                            ###                                      
                                            ####                                     
                                            #####                                    
                                            ######                                   
                                           ########,                                 
                                     ,,################,,,,,                         
                               ,,#################################,,                 
                          ,,##########################################,,             
                       ,#########################################, ''#####,          
                    ,#############################################,,   '####,        
                  ,##################################################,,,,####,       
                ,###########''''           ''''###############################       
              ,#####''   ,,,,##########,,,,          '''####'''          '####       
            ,##' ,,,,###########################,,,                        '##       
           ' ,,###''''                  '''############,,,                           
         ,,##''                                '''############,,,,        ,,,,,,###''
      ,#''                                            '''#######################'''  
     '                                                          ''''####''''         
             ,#######,   #######,   ,#######,      ##                                
            ,#'     '#,  ##    ##  ,#'     '#,    #''#        ######   ,####,        
            ##       ##  ##   ,#'  ##            #'  '#       #        #'  '#        
            ##       ##  #######   ##           ,######,      #####,   #    #        
            '#,     ,#'  ##    ##  '#,     ,#' ,#      #,         ##   #,  ,#        
             '#######'   ##     ##  '#######'  #'      '#     #####' # '####'        



                  #######################################################
                  #                        -***-                        #
                  #          Department of theory and spectroscopy      #
                  #    Directorship and core code : Frank Neese         #
                  #        Max Planck Institute fuer Kohlenforschung    #
                  #                Kaiser Wilhelm Platz 1               #
                  #                 D-45470 Muelheim/Ruhr               #
                  #                      Germany                        #
                  #                                                     #
                  #                  All rights reserved                #
                  #                        -***-                        #
                  #######################################################


                         Program Version 5.0.0 -  RELEASE  -
                                (SVN: $Rev: 19529$)
                ($Date: 2021-06-28 11:36:33 +0200 (Mo, 28 Jun 2021) $)


 With contributions from (in alphabetic order):
   Daniel Aravena         : Magnetic Suceptibility
   Michael Atanasov       : Ab Initio Ligand Field Theory (pilot matlab implementation)
   Alexander A. Auer      : GIAO ZORA, VPT2 properties, NMR spectrum
   Ute Becker             : Parallelization
   Giovanni Bistoni       : ED, misc. LED, open-shell LED, HFLD
   Martin Brehm           : Molecular dynamics
   Dmytro Bykov           : SCF Hessian
   Vijay G. Chilkuri      : MRCI spin determinant printing, contributions to CSF-ICE
   Dipayan Datta          : RHF DLPNO-CCSD density
   Achintya Kumar Dutta   : EOM-CC, STEOM-CC
   Dmitry Ganyushin       : Spin-Orbit,Spin-Spin,Magnetic field MRCI
   Miquel Garcia          : C-PCM Hessian, Gaussian charge scheme
   Yang Guo               : DLPNO-NEVPT2, F12-NEVPT2, CIM, IAO-localization
   Andreas Hansen         : Spin unrestricted coupled pair/coupled cluster methods
   Benjamin Helmich-Paris : MC-RPA, TRAH-SCF, COSX integrals
   Lee Huntington         : MR-EOM, pCC
   Robert Izsak           : Overlap fitted RIJCOSX, COSX-SCS-MP3, EOM
   Marcus Kettner         : VPT2
   Christian Kollmar      : KDIIS, OOCD, Brueckner-CCSD(T), CCSD density, CASPT2, CASPT2-K
   Simone Kossmann        : Meta GGA functionals, TD-DFT gradient, OOMP2, MP2 Hessian
   Martin Krupicka        : Initial AUTO-CI
   Lucas Lang             : DCDCAS
   Marvin Lechner         : AUTO-CI (C++ implementation), FIC-MRCC
   Dagmar Lenk            : GEPOL surface, SMD
   Dimitrios Liakos       : Extrapolation schemes; Compound Job, initial MDCI parallelization
   Dimitrios Manganas     : Further ROCIS development; embedding schemes
   Dimitrios Pantazis     : SARC Basis sets
   Anastasios Papadopoulos: AUTO-CI, single reference methods and gradients
   Taras Petrenko         : DFT Hessian,TD-DFT gradient, ASA, ECA, R-Raman, ABS, FL, XAS/XES, NRVS
   Peter Pinski           : DLPNO-MP2, DLPNO-MP2 Gradient
   Christoph Reimann      : Effective Core Potentials
   Marius Retegan         : Local ZFS, SOC
   Christoph Riplinger    : Optimizer, TS searches, QM/MM, DLPNO-CCSD(T), (RO)-DLPNO pert. Triples
   Tobias Risthaus        : Range-separated hybrids, TD-DFT gradient, RPA, STAB
   Michael Roemelt        : Original ROCIS implementation
   Masaaki Saitow         : Open-shell DLPNO-CCSD energy and density
   Barbara Sandhoefer     : DKH picture change effects
   Avijit Sen             : IP-ROCIS
   Kantharuban Sivalingam : CASSCF convergence, NEVPT2, FIC-MRCI
   Bernardo de Souza      : ESD, SOC TD-DFT
   Georgi Stoychev        : AutoAux, RI-MP2 NMR
   Willem Van den Heuvel  : Paramagnetic NMR
   Boris Wezisla          : Elementary symmetry handling
   Frank Wennmohs         : Technical directorship


 We gratefully acknowledge several colleagues who have allowed us to
 interface, adapt or use parts of their codes:
   Stefan Grimme, W. Hujo, H. Kruse, P. Pracht,  : VdW corrections, initial TS optimization,
                  C. Bannwarth, S. Ehlert          DFT functionals, gCP, sTDA/sTD-DF
   Ed Valeev, F. Pavosevic, A. Kumar             : LibInt (2-el integral package), F12 methods
   Garnet Chan, S. Sharma, J. Yang, R. Olivares  : DMRG
   Ulf Ekstrom                                   : XCFun DFT Library
   Mihaly Kallay                                 : mrcc  (arbitrary order and MRCC methods)
   Jiri Pittner, Ondrej Demel                    : Mk-CCSD
   Frank Weinhold                                : gennbo (NPA and NBO analysis)
   Christopher J. Cramer and Donald G. Truhlar   : smd solvation model
   Lars Goerigk                                  : TD-DFT with DH, B97 family of functionals
   V. Asgeirsson, H. Jonsson                     : NEB implementation
   FAccTs GmbH                                   : IRC, NEB, NEB-TS, DLPNO-Multilevel, CI-OPT
                                                   MM, QMMM, 2- and 3-layer-ONIOM, Crystal-QMMM,
                                                   LR-CPCM, SF, NACMEs, symmetry and pop. for TD-DFT,
                                                   nearIR, NL-DFT gradient (VV10), updates on ESD,
                                                   ML-optimized integration grids
   S Lehtola, MJT Oliveira, MAL Marques          : LibXC Library
   Liviu Ungur et al                             : ANISO software


 Your calculation uses the libint2 library for the computation of 2-el integrals
 For citations please refer to: http://libint.valeyev.net

 Your ORCA version has been built with support for libXC version: 5.1.0
 For citations please refer to: https://tddft.org/programs/libxc/

 This ORCA versions uses:
   CBLAS   interface :  Fast vector & matrix operations
   LAPACKE interface :  Fast linear algebra routines
   SCALAPACK package :  Parallel linear algebra routines
   Shared memory     :  Shared parallel matrices
   BLAS/LAPACK       :  OpenBLAS 0.3.15  USE64BITINT DYNAMIC_ARCH NO_AFFINITY Haswell SINGLE_THREADED
        Core in use  :  Haswell
   Copyright (c) 2011-2014, The OpenBLAS Project


================================================================================

----- Orbital basis set information -----
Your calculation utilizes the basis: def2-TZVPD
   F. Weigend and R. Ahlrichs, Phys. Chem. Chem. Phys. 7, 3297 (2005).
   D. Rappoport and F. Furche, J. Chem. Phys. 133 134105 (2010).

----- AuxJ basis set information -----
Your calculation utilizes the auxiliary basis: def2/J
   F. Weigend, Phys. Chem. Chem. Phys. 8, 1057 (2006).

================================================================================
                                        WARNINGS
                       Please study these warnings very carefully!
================================================================================


INFO   : the flag for use of the SHARK integral package has been found!

================================================================================
                                       INPUT FILE
================================================================================
NAME = TZVPD_LC_PBE_C1_wt_dlpno_pos.com
|  1> !LC-PBE RIJCOSX def2-TZVPD def2/J TightSCF
|  2> *xyz 0 1 
|  3> C          0.81607       -2.10149       -2.18655
|  4> H          1.69623       -2.36869       -1.60046
|  5> C          1.10055       -2.46749       -3.59927
|  6> C          0.51624       -0.61363       -2.03937
|  7> H         -0.02007       -2.71285       -1.84084
|  8> H          1.70061       -1.75723       -4.07838
|  9> H          0.29386       -2.35977       -4.25632
| 10> H          1.50132       -3.42848       -3.69491
| 11> H         -0.34841       -0.36504       -2.61858
| 12> H          1.35358       -0.04503       -2.38643
| 13> H          0.33317       -0.38682       -1.00984
| 14> *
| 15> %MaxCore 64000
| 16> 
| 17> %pal nprocs 4
| 18> end  
| 19> 
| 20> %scf
| 21>   MaxIter 150
| 22> end
| 23> 
| 24> 
| 25>                          ****END OF INPUT****
================================================================================

                       ****************************
                       * Single Point Calculation *
                       ****************************

---------------------------------
CARTESIAN COORDINATES (ANGSTROEM)
---------------------------------
  C      0.816070   -2.101490   -2.186550
  H      1.696230   -2.368690   -1.600460
  C      1.100550   -2.467490   -3.599270
  C      0.516240   -0.613630   -2.039370
  H     -0.020070   -2.712850   -1.840840
  H      1.700610   -1.757230   -4.078380
  H      0.293860   -2.359770   -4.256320
  H      1.501320   -3.428480   -3.694910
  H     -0.348410   -0.365040   -2.618580
  H      1.353580   -0.045030   -2.386430
  H      0.333170   -0.386820   -1.009840

----------------------------
CARTESIAN COORDINATES (A.U.)
----------------------------
  NO LB      ZA    FRAG     MASS         X           Y           Z
   0 C     6.0000    0    12.011    1.542149   -3.971241   -4.131981
   1 H     1.0000    0     1.008    3.205410   -4.476175   -3.024431
   2 C     6.0000    0    12.011    2.079738   -4.662880   -6.801635
   3 C     6.0000    0    12.011    0.975552   -1.159593   -3.853851
   4 H     1.0000    0     1.008   -0.037927   -5.126544   -3.478683
   5 H     1.0000    0     1.008    3.213687   -3.320683   -7.707021
   6 H     1.0000    0     1.008    0.555315   -4.459319   -8.043279
   7 H     1.0000    0     1.008    2.837084   -6.478888   -6.982368
   8 H     1.0000    0     1.008   -0.658399   -0.689826   -4.948399
   9 H     1.0000    0     1.008    2.557896   -0.085094   -4.509699
  10 H     1.0000    0     1.008    0.629600   -0.730984   -1.908321

--------------------------------
INTERNAL COORDINATES (ANGSTROEM)
--------------------------------
 C      0   0   0     0.000000000000     0.00000000     0.00000000
 H      1   0   0     1.090678208135     0.00000000     0.00000000
 C      1   2   0     1.486829737663   107.20969654     0.00000000
 C      1   2   3     1.524889294637   110.23327792   238.23497714
 H      1   2   3     1.091973696249   108.09753525   116.23750786
 H      3   1   2     1.045986454645   112.19915537   280.57074603
 H      3   1   2     1.045976604423   115.08391716   173.58599447
 H      3   1   2     1.045593316065   112.73631811    47.10374094
 H      4   1   2     1.070000390047   109.47083399   180.00016847
 H      4   1   2     1.069997607100   109.47052368    60.00053848
 H      4   1   2     1.069995056951   109.47133092   300.00053156

---------------------------
INTERNAL COORDINATES (A.U.)
---------------------------
 C      0   0   0     0.000000000000     0.00000000     0.00000000
 H      1   0   0     2.061083113611     0.00000000     0.00000000
 C      1   2   0     2.809701011954   107.20969654     0.00000000
 C      1   2   3     2.881623151413   110.23327792   238.23497714
 H      1   2   3     2.063531231357   108.09753525   116.23750786
 H      3   1   2     1.976627939070   112.19915537   280.57074603
 H      3   1   2     1.976609324848   115.08391716   173.58599447
 H      3   1   2     1.975885014822   112.73631811    47.10374094
 H      4   1   2     2.022007700377   109.47083399   180.00016847
 H      4   1   2     2.022002441370   109.47052368    60.00053848
 H      4   1   2     2.021997622287   109.47133092   300.00053156

---------------------
BASIS SET INFORMATION
---------------------
There are 2 groups of distinct atoms

 Group   1 Type C   : 12s6p3d1f contracted to 6s3p3d1f pattern {621111/411/111/1}
 Group   2 Type H   : 5s2p contracted to 3s2p pattern {311/11}

Atom   0C    basis set group =>   1
Atom   1H    basis set group =>   2
Atom   2C    basis set group =>   1
Atom   3C    basis set group =>   1
Atom   4H    basis set group =>   2
Atom   5H    basis set group =>   2
Atom   6H    basis set group =>   2
Atom   7H    basis set group =>   2
Atom   8H    basis set group =>   2
Atom   9H    basis set group =>   2
Atom  10H    basis set group =>   2
---------------------------------
AUXILIARY/J BASIS SET INFORMATION
---------------------------------
There are 2 groups of distinct atoms

 Group   1 Type C   : 12s5p4d2f1g contracted to 6s4p3d1f1g pattern {711111/2111/211/2/1}
 Group   2 Type H   : 5s2p1d contracted to 3s1p1d pattern {311/2/1}

Atom   0C    basis set group =>   1
Atom   1H    basis set group =>   2
Atom   2C    basis set group =>   1
Atom   3C    basis set group =>   1
Atom   4H    basis set group =>   2
Atom   5H    basis set group =>   2
Atom   6H    basis set group =>   2
Atom   7H    basis set group =>   2
Atom   8H    basis set group =>   2
Atom   9H    basis set group =>   2
Atom  10H    basis set group =>   2


           ************************************************************
           *        Program running with 4 parallel MPI-processes     *
           *              working on a common directory               *
           ************************************************************
------------------------------------------------------------------------------
                           ORCA GTO INTEGRAL CALCULATION
                           -- RI-GTO INTEGRALS CHOSEN --
------------------------------------------------------------------------------
------------------------------------------------------------------------------
                   ___                                                        
                  /   \      - P O W E R E D   B Y -                         
                 /     \                                                     
                 |  |  |   _    _      __       _____    __    __             
                 |  |  |  | |  | |    /  \     |  _  \  |  |  /  |          
                  \  \/   | |  | |   /    \    | | | |  |  | /  /          
                 / \  \   | |__| |  /  /\  \   | |_| |  |  |/  /          
                |  |  |   |  __  | /  /__\  \  |    /   |      \           
                |  |  |   | |  | | |   __   |  |    \   |  |\   \          
                \     /   | |  | | |  |  |  |  | |\  \  |  | \   \       
                 \___/    |_|  |_| |__|  |__|  |_| \__\ |__|  \__/        
                                                                              
                      - O R C A' S   B I G   F R I E N D -                    
                                      &                                       
                       - I N T E G R A L  F E E D E R -                       
                                                                              
 v1 FN, 2020, v2 2021                                                         
------------------------------------------------------------------------------


Reading SHARK input file TZVPD_LC_PBE_C1_wt_dlpno_pos.SHARKINP.tmp ... ok
----------------------
SHARK INTEGRAL PACKAGE
----------------------

Number of atoms                             ...     11
Number of basis functions                   ...    183
Number of shells                            ...     79
Maximum angular momentum                    ...      3
Integral batch strategy                     ... SHARK/LIBINT Hybrid
RI-J (if used) integral strategy            ... SPLIT-RIJ (Revised 2003 algorithm where possible)
Printlevel                                  ...      1
Contraction scheme used                     ... SEGMENTED contraction
Coulomb Range Separation                    ... NOT USED
Exchange Range Separation                   ... Long Range
   Mu parameter                             ...  0.470000
   Scaling (regular/separated)              ...  0.000000  1.000000
Finite Nucleus Model                        ... NOT USED
Auxiliary Coulomb fitting basis             ... AVAILABLE
   # of basis functions in Aux-J            ...    235
   # of shells in Aux-J                     ...     85
   Maximum angular momentum in Aux-J        ...      4
Auxiliary J/K fitting basis                 ... NOT available
Auxiliary Correlation fitting basis         ... NOT available
Auxiliary 'external' fitting basis          ... NOT available
Integral threshold                          ...     2.500000e-11
Primitive cut-off                           ...     2.500000e-12
Primitive pair pre-selection threshold      ...     2.500000e-12

Calculating pre-screening integrals         ... done (  0.1 sec) Dimension = 79
Organizing shell pair data                  ... done (  0.0 sec)
Shell pair information
Total number of shell pairs                 ...      3160
Shell pairs after pre-screening             ...      3137
Total number of primitive shell pairs       ...      7593
Primitive shell pairs kept                  ...      6669
          la=0 lb=0:    884 shell pairs
          la=1 lb=0:   1046 shell pairs
          la=1 lb=1:    325 shell pairs
          la=2 lb=0:    378 shell pairs
          la=2 lb=1:    225 shell pairs
          la=2 lb=2:     45 shell pairs
          la=3 lb=0:    126 shell pairs
          la=3 lb=1:     75 shell pairs
          la=3 lb=2:     27 shell pairs
          la=3 lb=3:      6 shell pairs

Calculating one electron integrals          ... done (  0.0 sec)
Calculating RI/J V-Matrix + Cholesky decomp.... done (  0.0 sec)
Calculating Nuclear repulsion               ... done (  0.0 sec) ENN=     84.242459195857 Eh

SHARK setup successfully completed in   0.2 seconds

Maximum memory used throughout the entire GTOINT-calculation: 13.8 MB


           ************************************************************
           *        Program running with 4 parallel MPI-processes     *
           *              working on a common directory               *
           ************************************************************
-------------------------------------------------------------------------------
                                 ORCA SCF
-------------------------------------------------------------------------------

------------
SCF SETTINGS
------------
Hamiltonian:
 Density Functional     Method          .... DFT(GTOs)
 Exchange Functional    Exchange        .... LC-PBE
 Correlation Functional Correlation     .... PBE
   PBE beta parameter  CBetaPBE         ....  0.066725
 LDA part of GGA corr.  LDAOpt          .... PW91-LDA
 Gradients option       PostSCFGGA      .... off
   Density functional embedding theory  .... OFF
 Long-range corrected/Screened/Range-Separated Hybrid DFT is turned on
   Amount of maximum screened exact exchange              ....  1.000000
   Range separation parameter mu (erf(mu*r12)/r12)        ....  0.470000
   NL short-range parameter             ....  6.400000
 RI-approximation to the Coulomb term is turned on
   Number of AuxJ basis functions       .... 235
   RIJ-COSX (HFX calculated with COS-X)).... on


General Settings:
 Integral files         IntName         .... TZVPD_LC_PBE_C1_wt_dlpno_pos
 Hartree-Fock type      HFTyp           .... RHF
 Total Charge           Charge          ....    0
 Multiplicity           Mult            ....    1
 Number of Electrons    NEL             ....   26
 Basis Dimension        Dim             ....  183
 Nuclear Repulsion      ENuc            ....     84.2424591959 Eh

Convergence Acceleration:
 DIIS                   CNVDIIS         .... on
   Start iteration      DIISMaxIt       ....    12
   Startup error        DIISStart       ....  0.200000
   # of expansion vecs  DIISMaxEq       ....     5
   Bias factor          DIISBfac        ....   1.050
   Max. coefficient     DIISMaxC        ....  10.000
 Trust-Rad. Augm. Hess. CNVTRAH         .... auto
   Auto Start mean grad. ratio tolernc. ....  1.125000
   Auto Start start iteration           ....    20
   Auto Start num. interpolation iter.  ....    10
   Max. Number of Micro iterations      ....    16
   Max. Number of Macro iterations      .... Maxiter - #DIIS iter
   Number of Davidson start vectors     ....     2
   Converg. threshold I  (grad. norm)   ....   1.000e-05
   Converg. threshold II (energy diff.) ....   1.000e-08
   Grad. Scal. Fac. for Micro threshold ....   0.100
   Minimum threshold for Micro iter.    ....   0.010
   NR start threshold (gradient norm)   ....   0.001
   Initial trust radius                 ....   0.400
   Minimum AH scaling param. (alpha)    ....   1.000
   Maximum AH scaling param. (alpha)    .... 1000.000
   Orbital update algorithm             .... Taylor
   White noise on init. David. guess    .... on
   Maximum white noise                  ....   0.010
   Quad. conv. algorithm                .... NR
 SOSCF                  CNVSOSCF        .... on
   Start iteration      SOSCFMaxIt      ....   150
   Startup grad/error   SOSCFStart      ....  0.003300
 Level Shifting         CNVShift        .... on
   Level shift para.    LevelShift      ....    0.2500
   Turn off err/grad.   ShiftErr        ....    0.0010
 Zerner damping         CNVZerner       .... off
 Static damping         CNVDamp         .... on
   Fraction old density DampFac         ....    0.7000
   Max. Damping (<1)    DampMax         ....    0.9800
   Min. Damping (>=0)   DampMin         ....    0.0000
   Turn off err/grad.   DampErr         ....    0.1000
 Fernandez-Rico         CNVRico         .... off

SCF Procedure:
 Maximum # iterations   MaxIter         ....   150
 SCF integral mode      SCFMode         .... Direct
   Integral package                     .... SHARK and LIBINT hybrid scheme
 Reset frequency        DirectResetFreq ....    20
 Integral Threshold     Thresh          ....  2.500e-11 Eh
 Primitive CutOff       TCut            ....  2.500e-12 Eh

Convergence Tolerance:
 Convergence Check Mode ConvCheckMode   .... Total+1el-Energy
 Convergence forced     ConvForced      .... 0
 Energy Change          TolE            ....  1.000e-08 Eh
 1-El. energy change                    ....  1.000e-05 Eh
 Orbital Gradient       TolG            ....  1.000e-05
 Orbital Rotation angle TolX            ....  1.000e-05
 DIIS Error             TolErr          ....  5.000e-07


Diagonalization of the overlap matrix:
Smallest eigenvalue                        ... 1.021e-05
Time for diagonalization                   ...    0.010 sec
Threshold for overlap eigenvalues          ... 1.000e-08
Number of eigenvalues below threshold      ... 0
Time for construction of square roots      ...    0.007 sec
Total time needed                          ...    0.018 sec

Time for model grid setup =    0.058 sec

------------------------------
INITIAL GUESS: MODEL POTENTIAL
------------------------------
Loading Hartree-Fock densities                     ... done
Calculating cut-offs                               ... done
Initializing the effective Hamiltonian             ... done
Setting up the integral package (SHARK)            ... done
Starting the Coulomb interaction                   ... done (   0.0 sec)
Reading the grid                                   ... done
Mapping shells                                     ... done
Starting the XC term evaluation                    ... done (   0.1 sec)
  promolecular density results
     # of electrons  =     25.996607448
     EX              =    -11.862769838
     EC              =     -0.824115159
     EX+EC           =    -12.686884997
Transforming the Hamiltonian                       ... done (   0.0 sec)
Diagonalizing the Hamiltonian                      ... done (   0.0 sec)
Back transforming the eigenvectors                 ... done (   0.0 sec)
Now organizing SCF variables                       ... done
                      ------------------
                      INITIAL GUESS DONE (   0.2 sec)
                      ------------------
-------------------
DFT GRID GENERATION
-------------------

General Integration Accuracy     IntAcc      ... 4.388
Radial Grid Type                 RadialGrid  ... OptM3 with GC (2021)
Angular Grid (max. ang.)         AngularGrid ... 4 (Lebedev-302)
Angular grid pruning method      GridPruning ... 4 (adaptive)
Weight generation scheme         WeightScheme... Becke
Basis function cutoff            BFCut       ... 1.0000e-11
Integration weight cutoff        WCut        ... 1.0000e-14
Angular grids for H and He will be reduced by one unit
Partially contracted basis set               ... off
Rotationally invariant grid construction     ... off

Total number of grid points                  ...    46387
Total number of batches                      ...      730
Average number of points per batch           ...       63
Average number of grid points per atom       ...     4217
Time for grid setup =    0.294 sec

--------------------
COSX GRID GENERATION
--------------------

GRIDX 1
-------
General Integration Accuracy     IntAcc      ... 3.816
Radial Grid Type                 RadialGrid  ... OptM3 with GC (2021)
Angular Grid (max. ang.)         AngularGrid ... 1 (Lebedev-50)
Angular grid pruning method      GridPruning ... 4 (adaptive)
Weight generation scheme         WeightScheme... Becke
Basis function cutoff            BFCut       ... 1.0000e-11
Integration weight cutoff        WCut        ... 1.0000e-14
Angular grids for H and He will be reduced by one unit
Partially contracted basis set               ... on
Rotationally invariant grid construction     ... off

Total number of grid points                  ...     5837
Total number of batches                      ...       97
Average number of points per batch           ...       60
Average number of grid points per atom       ...      531
UseSFitting                                  ... on

GRIDX 2
-------
General Integration Accuracy     IntAcc      ... 4.020
Radial Grid Type                 RadialGrid  ... OptM3 with GC (2021)
Angular Grid (max. ang.)         AngularGrid ... 2 (Lebedev-110)
Angular grid pruning method      GridPruning ... 4 (adaptive)
Weight generation scheme         WeightScheme... Becke
Basis function cutoff            BFCut       ... 1.0000e-11
Integration weight cutoff        WCut        ... 1.0000e-14
Angular grids for H and He will be reduced by one unit
Partially contracted basis set               ... on
Rotationally invariant grid construction     ... off

Total number of grid points                  ...    13405
Total number of batches                      ...      217
Average number of points per batch           ...       61
Average number of grid points per atom       ...     1219
UseSFitting                                  ... on

GRIDX 3
-------
General Integration Accuracy     IntAcc      ... 4.338
Radial Grid Type                 RadialGrid  ... OptM3 with GC (2021)
Angular Grid (max. ang.)         AngularGrid ... 3 (Lebedev-194)
Angular grid pruning method      GridPruning ... 4 (adaptive)
Weight generation scheme         WeightScheme... Becke
Basis function cutoff            BFCut       ... 1.0000e-11
Integration weight cutoff        WCut        ... 1.0000e-14
Angular grids for H and He will be reduced by one unit
Partially contracted basis set               ... on
Rotationally invariant grid construction     ... off

Total number of grid points                  ...    30574
Total number of batches                      ...      482
Average number of points per batch           ...       63
Average number of grid points per atom       ...     2779
UseSFitting                                  ... on

Time for X-Grid setup             =    0.290 sec

--------------
SCF ITERATIONS
--------------
ITER       Energy         Delta-E        Max-DP      RMS-DP      [F,P]     Damp
               ***  Starting incremental Fock matrix formation  ***
  0   -118.6648121788   0.000000000000 0.07734366  0.00138117  0.1313804 0.7000
  1   -118.6939736804  -0.029161501619 0.05686191  0.00107070  0.0766694 0.7000
                               ***Turning on DIIS***
  2   -118.7094477874  -0.015474106974 0.09512721  0.00221691  0.0409493 0.0000
  3   -118.7351022185  -0.025654431144 0.04963651  0.00090482  0.0323009 0.0000
  4   -118.7387117617  -0.003609543139 0.01755051  0.00047437  0.0041404 0.0000
                      *** Initiating the SOSCF procedure ***
                           *** Shutting down DIIS ***
                      *** Re-Reading the Fockian *** 
                      *** Removing any level shift *** 
ITER      Energy       Delta-E        Grad      Rot      Max-DP    RMS-DP
  5   -118.73884322  -0.0001314567  0.000655  0.000655  0.011027  0.000335
               *** Restarting incremental Fock matrix formation ***
  6   -118.73886139  -0.0000181698  0.000102  0.000152  0.001649  0.000049
  7   -118.73886179  -0.0000004004  0.000067  0.000039  0.000402  0.000012
  8   -118.73886195  -0.0000001638  0.000006  0.000013  0.000157  0.000003
                  ***Gradient check signals convergence***
              ***Rediagonalizing the Fockian in SOSCF/NRSCF***

               *****************************************************
               *                     SUCCESS                       *
               *           SCF CONVERGED AFTER   9 CYCLES          *
               *****************************************************


----------------
TOTAL SCF ENERGY
----------------

Total Energy       :         -118.73886196 Eh           -3231.04870 eV

Components:
Nuclear Repulsion  :           84.24245920 Eh            2292.35386 eV
Electronic Energy  :         -202.98132115 Eh           -5523.40255 eV
One Electron Energy:         -325.15524734 Eh           -8847.92410 eV
Two Electron Energy:          122.17392619 Eh            3324.52155 eV
Max COSX asymmetry :            0.00000548 Eh               0.00015 eV

Virial components:
Potential Energy   :         -237.07794502 Eh           -6451.21886 eV
Kinetic Energy     :          118.33908306 Eh            3220.17016 eV
Virial Ratio       :            2.00337825


DFT components:
N(Alpha)           :       12.999981259549 electrons
N(Beta)            :       12.999981259549 electrons
N(Total)           :       25.999962519097 electrons
E(X)               :      -12.300056815696 Eh       
E(C)               :       -0.829932084095 Eh       
E(XC)              :      -13.129988899791 Eh       
DFET-embed. en.    :        0.000000000000 Eh       

---------------
SCF CONVERGENCE
---------------

  Last Energy change         ...   -3.8377e-09  Tolerance :   1.0000e-08
  Last MAX-Density change    ...    1.3888e-04  Tolerance :   1.0000e-07
  Last RMS-Density change    ...    1.7205e-06  Tolerance :   5.0000e-09
  Last Orbital Gradient      ...    1.8276e-06  Tolerance :   1.0000e-05
  Last Orbital Rotation      ...    4.2397e-06  Tolerance :   1.0000e-05

             **** THE GBW FILE WAS UPDATED (TZVPD_LC_PBE_C1_wt_dlpno_pos.gbw) ****
             **** DENSITY TZVPD_LC_PBE_C1_wt_dlpno_pos.scfp WAS UPDATED ****
             **** ENERGY FILE WAS UPDATED (TZVPD_LC_PBE_C1_wt_dlpno_pos.en.tmp) ****
             **** THE GBW FILE WAS UPDATED (TZVPD_LC_PBE_C1_wt_dlpno_pos.gbw) ****
             **** DENSITY TZVPD_LC_PBE_C1_wt_dlpno_pos.scfp WAS UPDATED ****
----------------
ORBITAL ENERGIES
----------------

  NO   OCC          E(Eh)            E(eV) 
   0   2.0000     -10.102432      -274.9012 
   1   2.0000     -10.090309      -274.5713 
   2   2.0000     -10.077188      -274.2142 
   3   2.0000      -0.969967       -26.3941 
   4   2.0000      -0.857986       -23.3470 
   5   2.0000      -0.749513       -20.3953 
   6   2.0000      -0.607726       -16.5371 
   7   2.0000      -0.590661       -16.0727 
   8   2.0000      -0.551185       -14.9985 
   9   2.0000      -0.510468       -13.8905 
  10   2.0000      -0.470558       -12.8045 
  11   2.0000      -0.466155       -12.6847 
  12   2.0000      -0.446422       -12.1478 
  13   0.0000       0.074002         2.0137 
  14   0.0000       0.091564         2.4916 
  15   0.0000       0.093293         2.5386 
  16   0.0000       0.127403         3.4668 
  17   0.0000       0.147099         4.0028 
  18   0.0000       0.159391         4.3372 
  19   0.0000       0.163769         4.4564 
  20   0.0000       0.172459         4.6928 
  21   0.0000       0.189702         5.1620 
  22   0.0000       0.203894         5.5482 
  23   0.0000       0.214655         5.8411 
  24   0.0000       0.217327         5.9138 
  25   0.0000       0.237798         6.4708 
  26   0.0000       0.241040         6.5590 
  27   0.0000       0.251720         6.8497 
  28   0.0000       0.266307         7.2466 
  29   0.0000       0.291926         7.9437 
  30   0.0000       0.300769         8.1844 
  31   0.0000       0.306395         8.3374 
  32   0.0000       0.319678         8.6989 
  33   0.0000       0.326982         8.8976 
  34   0.0000       0.331801         9.0288 
  35   0.0000       0.349014         9.4971 
  36   0.0000       0.353100         9.6083 
  37   0.0000       0.356514         9.7012 
  38   0.0000       0.365061         9.9338 
  39   0.0000       0.378324        10.2947 
  40   0.0000       0.383814        10.4441 
  41   0.0000       0.385285        10.4841 
  42   0.0000       0.389142        10.5891 
  43   0.0000       0.392002        10.6669 
  44   0.0000       0.398098        10.8328 
  45   0.0000       0.404316        11.0020 
  46   0.0000       0.427713        11.6387 
  47   0.0000       0.436440        11.8761 
  48   0.0000       0.446825        12.1587 
  49   0.0000       0.451361        12.2822 
  50   0.0000       0.482352        13.1255 
  51   0.0000       0.486676        13.2431 
  52   0.0000       0.492279        13.3956 
  53   0.0000       0.495680        13.4882 
  54   0.0000       0.500375        13.6159 
  55   0.0000       0.504648        13.7322 
  56   0.0000       0.511189        13.9102 
  57   0.0000       0.518887        14.1196 
  58   0.0000       0.526751        14.3336 
  59   0.0000       0.530406        14.4331 
  60   0.0000       0.541267        14.7286 
  61   0.0000       0.558142        15.1878 
  62   0.0000       0.579262        15.7625 
  63   0.0000       0.604712        16.4551 
  64   0.0000       0.611449        16.6384 
  65   0.0000       0.615287        16.7428 
  66   0.0000       0.686268        18.6743 
  67   0.0000       0.712125        19.3779 
  68   0.0000       0.737815        20.0770 
  69   0.0000       0.756191        20.5770 
  70   0.0000       0.759000        20.6534 
  71   0.0000       0.771297        20.9881 
  72   0.0000       0.783247        21.3132 
  73   0.0000       0.795509        21.6469 
  74   0.0000       0.798783        21.7360 
  75   0.0000       0.813738        22.1429 
  76   0.0000       0.825893        22.4737 
  77   0.0000       0.839478        22.8434 
  78   0.0000       0.841029        22.8856 
  79   0.0000       0.848208        23.0809 
  80   0.0000       0.860684        23.4204 
  81   0.0000       0.867376        23.6025 
  82   0.0000       0.900924        24.5154 
  83   0.0000       0.945462        25.7273 
  84   0.0000       0.960597        26.1392 
  85   0.0000       1.043541        28.3962 
  86   0.0000       1.069753        29.1095 
  87   0.0000       1.076710        29.2988 
  88   0.0000       1.112090        30.2615 
  89   0.0000       1.163849        31.6699 
  90   0.0000       1.185422        32.2570 
  91   0.0000       1.273753        34.6606 
  92   0.0000       1.295416        35.2501 
  93   0.0000       1.345687        36.6180 
  94   0.0000       1.351406        36.7736 
  95   0.0000       1.383412        37.6446 
  96   0.0000       1.410514        38.3820 
  97   0.0000       1.427640        38.8481 
  98   0.0000       1.472486        40.0684 
  99   0.0000       1.515559        41.2405 
 100   0.0000       1.783009        48.5182 
 101   0.0000       1.870615        50.9020 
 102   0.0000       1.872360        50.9495 
 103   0.0000       1.889043        51.4035 
 104   0.0000       1.899245        51.6811 
 105   0.0000       1.940086        52.7924 
 106   0.0000       1.957748        53.2730 
 107   0.0000       1.960469        53.3471 
 108   0.0000       1.969629        53.5963 
 109   0.0000       1.972660        53.6788 
 110   0.0000       2.009272        54.6751 
 111   0.0000       2.025331        55.1121 
 112   0.0000       2.063153        56.1413 
 113   0.0000       2.067534        56.2605 
 114   0.0000       2.162744        58.8513 
 115   0.0000       2.176454        59.2243 
 116   0.0000       2.192152        59.6515 
 117   0.0000       2.223599        60.5072 
 118   0.0000       2.290786        62.3354 
 119   0.0000       2.364351        64.3372 
 120   0.0000       2.433084        66.2076 
 121   0.0000       2.475322        67.3569 
 122   0.0000       2.520337        68.5818 
 123   0.0000       2.555392        69.5358 
 124   0.0000       2.567323        69.8604 
 125   0.0000       2.625881        71.4539 
 126   0.0000       2.651543        72.1521 
 127   0.0000       2.659103        72.3579 
 128   0.0000       2.678605        72.8885 
 129   0.0000       2.727907        74.2301 
 130   0.0000       2.771831        75.4254 
 131   0.0000       2.784502        75.7702 
 132   0.0000       2.809233        76.4431 
 133   0.0000       2.842286        77.3425 
 134   0.0000       2.864175        77.9382 
 135   0.0000       2.877060        78.2888 
 136   0.0000       2.886883        78.5561 
 137   0.0000       2.910440        79.1971 
 138   0.0000       2.943026        80.0838 
 139   0.0000       2.999771        81.6279 
 140   0.0000       3.010969        81.9326 
 141   0.0000       3.088885        84.0528 
 142   0.0000       3.139463        85.4291 
 143   0.0000       3.234668        88.0198 
 144   0.0000       3.254136        88.5495 
 145   0.0000       3.261944        88.7620 
 146   0.0000       3.313779        90.1725 
 147   0.0000       3.346105        91.0521 
 148   0.0000       3.404490        92.6409 
 149   0.0000       3.420981        93.0896 
 150   0.0000       3.432181        93.3944 
 151   0.0000       3.438013        93.5531 
 152   0.0000       3.531862        96.1069 
 153   0.0000       3.565747        97.0289 
 154   0.0000       3.571933        97.1972 
 155   0.0000       3.596793        97.8737 
 156   0.0000       3.666840        99.7798 
 157   0.0000       3.698355       100.6373 
 158   0.0000       3.725117       101.3656 
 159   0.0000       3.766839       102.5009 
 160   0.0000       3.825052       104.0850 
 161   0.0000       3.837884       104.4341 
 162   0.0000       3.863008       105.1178 
 163   0.0000       4.042894       110.0127 
 164   0.0000       4.106378       111.7402 
 165   0.0000       4.120330       112.1199 
 166   0.0000       4.218515       114.7916 
 167   0.0000       4.236320       115.2761 
 168   0.0000       4.256383       115.8221 
 169   0.0000       4.323765       117.6556 
 170   0.0000       4.532306       123.3303 
 171   0.0000       4.647739       126.4714 
 172   0.0000       4.655860       126.6924 
 173   0.0000       4.741700       129.0282 
 174   0.0000       4.791479       130.3828 
 175   0.0000       4.871946       132.5724 
 176   0.0000       4.904031       133.4455 
 177   0.0000       4.990171       135.7895 
 178   0.0000       5.086088       138.3995 
 179   0.0000       5.108782       139.0170 
 180   0.0000      22.630940       615.8192 
 181   0.0000      22.676482       617.0584 
 182   0.0000      22.770541       619.6179 

                    ********************************
                    * MULLIKEN POPULATION ANALYSIS *
                    ********************************

-----------------------
MULLIKEN ATOMIC CHARGES
-----------------------
   0 C :   -0.274312
   1 H :    0.325077
   2 C :   -1.334587
   3 C :   -1.224441
   4 H :    0.308549
   5 H :    0.393147
   6 H :    0.404430
   7 H :    0.334033
   8 H :    0.358780
   9 H :    0.379671
  10 H :    0.329652
Sum of atomic charges:   -0.0000000

--------------------------------
MULLIKEN REDUCED ORBITAL CHARGES
--------------------------------
  0 C s       :     3.143582  s :     3.143582
      pz      :     1.020462  p :     3.310910
      px      :     1.279176
      py      :     1.011271
      dz2     :    -0.008571  d :    -0.185435
      dxz     :    -0.066664
      dyz     :    -0.040224
      dx2y2   :    -0.015277
      dxy     :    -0.054700
      f0      :     0.001238  f :     0.005255
      f+1     :     0.000894
      f-1     :     0.000812
      f+2     :     0.000652
      f-2     :     0.000208
      f+3     :     0.000739
      f-3     :     0.000712
  1 H s       :     0.596303  s :     0.596303
      pz      :     0.029654  p :     0.078621
      px      :     0.029350
      py      :     0.019618
  2 C s       :     3.484025  s :     3.484025
      pz      :     1.035951  p :     3.789674
      px      :     1.421438
      py      :     1.332285
      dz2     :    -0.005323  d :     0.057930
      dxz     :     0.011972
      dyz     :    -0.012181
      dx2y2   :     0.018303
      dxy     :     0.045161
      f0      :     0.000876  f :     0.002958
      f+1     :     0.000829
      f-1     :     0.000539
      f+2     :     0.000185
      f-2     :     0.000144
      f+3     :     0.000321
      f-3     :     0.000064
  3 C s       :     3.404088  s :     3.404088
      pz      :     1.356022  p :     3.752352
      px      :     1.406748
      py      :     0.989582
      dz2     :     0.031188  d :     0.065147
      dxz     :     0.060312
      dyz     :    -0.012765
      dx2y2   :    -0.002316
      dxy     :    -0.011272
      f0      :     0.000743  f :     0.002853
      f+1     :     0.000200
      f-1     :     0.000138
      f+2     :     0.000425
      f-2     :     0.000010
      f+3     :     0.000662
      f-3     :     0.000676
  4 H s       :     0.616093  s :     0.616093
      pz      :     0.024100  p :     0.075358
      px      :     0.024590
      py      :     0.026669
  5 H s       :     0.557566  s :     0.557566
      pz      :     0.012432  p :     0.049287
      px      :     0.020735
      py      :     0.016120
  6 H s       :     0.546432  s :     0.546432
      pz      :     0.018338  p :     0.049138
      px      :     0.015854
      py      :     0.014947
  7 H s       :     0.581181  s :     0.581181
      pz      :     0.018965  p :     0.084785
      px      :     0.035623
      py      :     0.030197
  8 H s       :     0.576169  s :     0.576169
      pz      :     0.021457  p :     0.065051
      px      :     0.032435
      py      :     0.011158
  9 H s       :     0.558686  s :     0.558686
      pz      :     0.017740  p :     0.061643
      px      :     0.024732
      py      :     0.019171
 10 H s       :     0.588521  s :     0.588521
      pz      :     0.031433  p :     0.081827
      px      :     0.034702
      py      :     0.015692


                     *******************************
                     * LOEWDIN POPULATION ANALYSIS *
                     *******************************

----------------------
LOEWDIN ATOMIC CHARGES
----------------------
   0 C :   -0.339447
   1 H :    0.110838
   2 C :   -0.164207
   3 C :   -0.141198
   4 H :    0.111998
   5 H :    0.066412
   6 H :    0.068456
   7 H :    0.067620
   8 H :    0.075710
   9 H :    0.074666
  10 H :    0.069153

-------------------------------
LOEWDIN REDUCED ORBITAL CHARGES
-------------------------------
  0 C s       :     2.672550  s :     2.672550
      pz      :     0.956370  p :     2.842561
      px      :     0.945057
      py      :     0.941134
      dz2     :     0.147076  d :     0.781346
      dxz     :     0.165630
      dyz     :     0.199642
      dx2y2   :     0.110915
      dxy     :     0.158083
      f0      :     0.008890  f :     0.042990
      f+1     :     0.005714
      f-1     :     0.007849
      f+2     :     0.006118
      f-2     :     0.004228
      f+3     :     0.004886
      f-3     :     0.005305
  1 H s       :     0.686897  s :     0.686897
      pz      :     0.064943  p :     0.202266
      px      :     0.084497
      py      :     0.052826
  2 C s       :     2.699718  s :     2.699718
      pz      :     0.967997  p :     2.938176
      px      :     0.994935
      py      :     0.975244
      dz2     :     0.121460  d :     0.497461
      dxz     :     0.167810
      dyz     :     0.107949
      dx2y2   :     0.045501
      dxy     :     0.054742
      f0      :     0.006587  f :     0.028851
      f+1     :     0.005193
      f-1     :     0.005894
      f+2     :     0.004262
      f-2     :     0.003487
      f+3     :     0.002796
      f-3     :     0.000633
  3 C s       :     2.719028  s :     2.719028
      pz      :     0.981438  p :     2.934135
      px      :     0.986546
      py      :     0.966151
      dz2     :     0.078244  d :     0.461850
      dxz     :     0.051945
      dyz     :     0.107259
      dx2y2   :     0.087353
      dxy     :     0.137048
      f0      :     0.004711  f :     0.026185
      f+1     :     0.001013
      f-1     :     0.002889
      f+2     :     0.004932
      f-2     :     0.002620
      f+3     :     0.004773
      f-3     :     0.005247
  4 H s       :     0.687981  s :     0.687981
      pz      :     0.056006  p :     0.200021
      px      :     0.081120
      py      :     0.062895
  5 H s       :     0.695205  s :     0.695205
      pz      :     0.064460  p :     0.238384
      px      :     0.085671
      py      :     0.088253
  6 H s       :     0.699662  s :     0.699662
      pz      :     0.069701  p :     0.231883
      px      :     0.097448
      py      :     0.064734
  7 H s       :     0.707929  s :     0.707929
      pz      :     0.055163  p :     0.224451
      px      :     0.070010
      py      :     0.099277
  8 H s       :     0.701141  s :     0.701141
      pz      :     0.076575  p :     0.223149
      px      :     0.089800
      py      :     0.056775
  9 H s       :     0.699800  s :     0.699800
      pz      :     0.068153  p :     0.225534
      px      :     0.090306
      py      :     0.067075
 10 H s       :     0.707590  s :     0.707590
      pz      :     0.105036  p :     0.223258
      px      :     0.061376
      py      :     0.056846


                      *****************************
                      * MAYER POPULATION ANALYSIS *
                      *****************************

  NA   - Mulliken gross atomic population
  ZA   - Total nuclear charge
  QA   - Mulliken gross atomic charge
  VA   - Mayer's total valence
  BVA  - Mayer's bonded valence
  FA   - Mayer's free valence

  ATOM       NA         ZA         QA         VA         BVA        FA
  0 C      6.2743     6.0000    -0.2743     2.7112     2.7112    -0.0000
  1 H      0.6749     1.0000     0.3251     0.9873     0.9873    -0.0000
  2 C      7.3346     6.0000    -1.3346     3.4022     3.4022    -0.0000
  3 C      7.2244     6.0000    -1.2244     3.4937     3.4937    -0.0000
  4 H      0.6915     1.0000     0.3085     1.0015     1.0015    -0.0000
  5 H      0.6069     1.0000     0.3931     0.9356     0.9356    -0.0000
  6 H      0.5956     1.0000     0.4044     0.9403     0.9403    -0.0000
  7 H      0.6660     1.0000     0.3340     1.0185     1.0185    -0.0000
  8 H      0.6412     1.0000     0.3588     1.0031     1.0031    -0.0000
  9 H      0.6203     1.0000     0.3797     0.9604     0.9604    -0.0000
 10 H      0.6703     1.0000     0.3297     1.0471     1.0471    -0.0000

  Mayer bond orders larger than 0.100000
B(  0-C ,  1-H ) :   0.9299 B(  0-C ,  2-C ) :   0.5418 B(  0-C ,  3-C ) :   0.5843 
B(  0-C ,  4-H ) :   0.9282 B(  2-C ,  5-H ) :   0.9070 B(  2-C ,  6-H ) :   0.9203 
B(  2-C ,  7-H ) :   0.9653 B(  3-C ,  8-H ) :   0.9313 B(  3-C ,  9-H ) :   0.9166 
B(  3-C , 10-H ) :   0.9766 

-------
TIMINGS
-------

Total SCF time: 0 days 0 hours 0 min 13 sec 

Total time                  ....      13.530 sec
Sum of individual times     ....      13.350 sec  ( 98.7%)

Fock matrix formation       ....      12.463 sec  ( 92.1%)
  Split-RI-J                ....       0.549 sec  (  4.4% of F)
  Chain of spheres X        ....       9.565 sec  ( 76.7% of F)
  XC integration            ....       2.319 sec  ( 18.6% of F)
    Basis function eval.    ....       0.674 sec  ( 29.1% of XC)
    Density eval.           ....       0.530 sec  ( 22.9% of XC)
    XC-Functional eval.     ....       0.180 sec  (  7.7% of XC)
    XC-Potential eval.      ....       0.824 sec  ( 35.5% of XC)
Diagonalization             ....       0.053 sec  (  0.4%)
Density matrix formation    ....       0.003 sec  (  0.0%)
Population analysis         ....       0.008 sec  (  0.1%)
Initial guess               ....       0.128 sec  (  0.9%)
Orbital Transformation      ....       0.000 sec  (  0.0%)
Orbital Orthonormalization  ....       0.000 sec  (  0.0%)
DIIS solution               ....       0.029 sec  (  0.2%)
SOSCF solution              ....       0.024 sec  (  0.2%)
Grid generation             ....       0.642 sec  (  4.7%)

Maximum memory used throughout the entire SCF-calculation: 19.3 MB

-------------------------   --------------------
FINAL SINGLE POINT ENERGY      -118.738861956303
-------------------------   --------------------


                            ***************************************
                            *     ORCA property calculations      *
                            ***************************************

                                    ---------------------
                                    Active property flags
                                    ---------------------
   (+) Dipole Moment


------------------------------------------------------------------------------
                       ORCA ELECTRIC PROPERTIES CALCULATION
------------------------------------------------------------------------------

Dipole Moment Calculation                       ... on
Quadrupole Moment Calculation                   ... off
Polarizability Calculation                      ... off
GBWName                                         ... TZVPD_LC_PBE_C1_wt_dlpno_pos.gbw
Electron density file                           ... TZVPD_LC_PBE_C1_wt_dlpno_pos.scfp
The origin for moment calculation is the CENTER OF MASS  = ( 1.533459, -3.247449 -4.955876)

-------------
DIPOLE MOMENT
-------------
                                X             Y             Z
Electronic contribution:     -0.01890      -0.30529       0.45729
Nuclear contribution   :      0.01737       0.30387      -0.47422
                        -----------------------------------------
Total Dipole Moment    :     -0.00152      -0.00142      -0.01692
                        -----------------------------------------
Magnitude (a.u.)       :      0.01705
Magnitude (Debye)      :      0.04334



--------------------
Rotational spectrum 
--------------------
 
Rotational constants in cm-1:     1.006891     0.295208     0.258491 
Rotational constants in MHz : 30185.831813  8850.104914  7749.351732 

 Dipole components along the rotational axes: 
x,y,z [a.u.] :    -0.011318    -0.012068     0.004126 
x,y,z [Debye]:    -0.028768    -0.030675     0.010488 

 

Timings for individual modules:

Sum of individual times         ...       16.651 sec (=   0.278 min)
GTO integral calculation        ...        2.137 sec (=   0.036 min)  12.8 %
SCF iterations                  ...       14.514 sec (=   0.242 min)  87.2 %
                             ****ORCA TERMINATED NORMALLY****
TOTAL RUN TIME: 0 days 0 hours 0 minutes 17 seconds 166 msec
