
                                        *****************
                                        * O   R   C   A *
                                        *****************

                                            #,                                       
                                            ###                                      
                                            ####                                     
                                            #####                                    
                                            ######                                   
                                           ########,                                 
                                     ,,################,,,,,                         
                               ,,#################################,,                 
                          ,,##########################################,,             
                       ,#########################################, ''#####,          
                    ,#############################################,,   '####,        
                  ,##################################################,,,,####,       
                ,###########''''           ''''###############################       
              ,#####''   ,,,,##########,,,,          '''####'''          '####       
            ,##' ,,,,###########################,,,                        '##       
           ' ,,###''''                  '''############,,,                           
         ,,##''                                '''############,,,,        ,,,,,,###''
      ,#''                                            '''#######################'''  
     '                                                          ''''####''''         
             ,#######,   #######,   ,#######,      ##                                
            ,#'     '#,  ##    ##  ,#'     '#,    #''#        ######   ,####,        
            ##       ##  ##   ,#'  ##            #'  '#       #        #'  '#        
            ##       ##  #######   ##           ,######,      #####,   #    #        
            '#,     ,#'  ##    ##  '#,     ,#' ,#      #,         ##   #,  ,#        
             '#######'   ##     ##  '#######'  #'      '#     #####' # '####'        



                  #######################################################
                  #                        -***-                        #
                  #          Department of theory and spectroscopy      #
                  #    Directorship and core code : Frank Neese         #
                  #        Max Planck Institute fuer Kohlenforschung    #
                  #                Kaiser Wilhelm Platz 1               #
                  #                 D-45470 Muelheim/Ruhr               #
                  #                      Germany                        #
                  #                                                     #
                  #                  All rights reserved                #
                  #                        -***-                        #
                  #######################################################


                         Program Version 5.0.0 -  RELEASE  -
                                (SVN: $Rev: 19529$)
                ($Date: 2021-06-28 11:36:33 +0200 (Mo, 28 Jun 2021) $)


 With contributions from (in alphabetic order):
   Daniel Aravena         : Magnetic Suceptibility
   Michael Atanasov       : Ab Initio Ligand Field Theory (pilot matlab implementation)
   Alexander A. Auer      : GIAO ZORA, VPT2 properties, NMR spectrum
   Ute Becker             : Parallelization
   Giovanni Bistoni       : ED, misc. LED, open-shell LED, HFLD
   Martin Brehm           : Molecular dynamics
   Dmytro Bykov           : SCF Hessian
   Vijay G. Chilkuri      : MRCI spin determinant printing, contributions to CSF-ICE
   Dipayan Datta          : RHF DLPNO-CCSD density
   Achintya Kumar Dutta   : EOM-CC, STEOM-CC
   Dmitry Ganyushin       : Spin-Orbit,Spin-Spin,Magnetic field MRCI
   Miquel Garcia          : C-PCM Hessian, Gaussian charge scheme
   Yang Guo               : DLPNO-NEVPT2, F12-NEVPT2, CIM, IAO-localization
   Andreas Hansen         : Spin unrestricted coupled pair/coupled cluster methods
   Benjamin Helmich-Paris : MC-RPA, TRAH-SCF, COSX integrals
   Lee Huntington         : MR-EOM, pCC
   Robert Izsak           : Overlap fitted RIJCOSX, COSX-SCS-MP3, EOM
   Marcus Kettner         : VPT2
   Christian Kollmar      : KDIIS, OOCD, Brueckner-CCSD(T), CCSD density, CASPT2, CASPT2-K
   Simone Kossmann        : Meta GGA functionals, TD-DFT gradient, OOMP2, MP2 Hessian
   Martin Krupicka        : Initial AUTO-CI
   Lucas Lang             : DCDCAS
   Marvin Lechner         : AUTO-CI (C++ implementation), FIC-MRCC
   Dagmar Lenk            : GEPOL surface, SMD
   Dimitrios Liakos       : Extrapolation schemes; Compound Job, initial MDCI parallelization
   Dimitrios Manganas     : Further ROCIS development; embedding schemes
   Dimitrios Pantazis     : SARC Basis sets
   Anastasios Papadopoulos: AUTO-CI, single reference methods and gradients
   Taras Petrenko         : DFT Hessian,TD-DFT gradient, ASA, ECA, R-Raman, ABS, FL, XAS/XES, NRVS
   Peter Pinski           : DLPNO-MP2, DLPNO-MP2 Gradient
   Christoph Reimann      : Effective Core Potentials
   Marius Retegan         : Local ZFS, SOC
   Christoph Riplinger    : Optimizer, TS searches, QM/MM, DLPNO-CCSD(T), (RO)-DLPNO pert. Triples
   Tobias Risthaus        : Range-separated hybrids, TD-DFT gradient, RPA, STAB
   Michael Roemelt        : Original ROCIS implementation
   Masaaki Saitow         : Open-shell DLPNO-CCSD energy and density
   Barbara Sandhoefer     : DKH picture change effects
   Avijit Sen             : IP-ROCIS
   Kantharuban Sivalingam : CASSCF convergence, NEVPT2, FIC-MRCI
   Bernardo de Souza      : ESD, SOC TD-DFT
   Georgi Stoychev        : AutoAux, RI-MP2 NMR
   Willem Van den Heuvel  : Paramagnetic NMR
   Boris Wezisla          : Elementary symmetry handling
   Frank Wennmohs         : Technical directorship


 We gratefully acknowledge several colleagues who have allowed us to
 interface, adapt or use parts of their codes:
   Stefan Grimme, W. Hujo, H. Kruse, P. Pracht,  : VdW corrections, initial TS optimization,
                  C. Bannwarth, S. Ehlert          DFT functionals, gCP, sTDA/sTD-DF
   Ed Valeev, F. Pavosevic, A. Kumar             : LibInt (2-el integral package), F12 methods
   Garnet Chan, S. Sharma, J. Yang, R. Olivares  : DMRG
   Ulf Ekstrom                                   : XCFun DFT Library
   Mihaly Kallay                                 : mrcc  (arbitrary order and MRCC methods)
   Jiri Pittner, Ondrej Demel                    : Mk-CCSD
   Frank Weinhold                                : gennbo (NPA and NBO analysis)
   Christopher J. Cramer and Donald G. Truhlar   : smd solvation model
   Lars Goerigk                                  : TD-DFT with DH, B97 family of functionals
   V. Asgeirsson, H. Jonsson                     : NEB implementation
   FAccTs GmbH                                   : IRC, NEB, NEB-TS, DLPNO-Multilevel, CI-OPT
                                                   MM, QMMM, 2- and 3-layer-ONIOM, Crystal-QMMM,
                                                   LR-CPCM, SF, NACMEs, symmetry and pop. for TD-DFT,
                                                   nearIR, NL-DFT gradient (VV10), updates on ESD,
                                                   ML-optimized integration grids
   S Lehtola, MJT Oliveira, MAL Marques          : LibXC Library
   Liviu Ungur et al                             : ANISO software


 Your calculation uses the libint2 library for the computation of 2-el integrals
 For citations please refer to: http://libint.valeyev.net

 Your ORCA version has been built with support for libXC version: 5.1.0
 For citations please refer to: https://tddft.org/programs/libxc/

 This ORCA versions uses:
   CBLAS   interface :  Fast vector & matrix operations
   LAPACKE interface :  Fast linear algebra routines
   SCALAPACK package :  Parallel linear algebra routines
   Shared memory     :  Shared parallel matrices
   BLAS/LAPACK       :  OpenBLAS 0.3.15  USE64BITINT DYNAMIC_ARCH NO_AFFINITY Haswell SINGLE_THREADED
        Core in use  :  Haswell
   Copyright (c) 2011-2014, The OpenBLAS Project


XCFun DFT library Copyright 2009-2010 Ulf Ekstrom and contributors.
See http://admol.org/xcfun for more information.
This is free software; see the source code for copying conditions.
There is ABSOLUTELY NO WARRANTY; not even for MERCHANTABILITY or FITNESS FOR A PARTICULAR PURPOSE.
For details see the documentation.
Scientific users of this library should cite U. Ekstrom, L. Visscher, R. Bast, A. J. Thorvaldsen and K. Ruud;
J.Chem.Theor.Comp. 2010, DOI: 10.1021/ct100117s
XCFun Version 0.99 

================================================================================

----- Orbital basis set information -----
Your calculation utilizes the basis: def2-SVPD
   F. Weigend and R. Ahlrichs, Phys. Chem. Chem. Phys. 7, 3297 (2005).
   D. Rappoport and F. Furche, J. Chem. Phys. 133 134105 (2010).

----- AuxJ basis set information -----
Your calculation utilizes the auxiliary basis: def2/J
   F. Weigend, Phys. Chem. Chem. Phys. 8, 1057 (2006).

================================================================================
                                        WARNINGS
                       Please study these warnings very carefully!
================================================================================


INFO   : the flag for use of the SHARK integral package has been found!

================================================================================
                                       INPUT FILE
================================================================================
NAME = 14Feb_SVPD_LC_BLYP_A_wt_wb97_typ1_pos.com
|  1> !LC-BLYP RIJCOSX def2-SVPD def2/J TightSCF 
|  2> *xyz 1 1
|  3> C          1.96337       -1.74915       -1.89689
|  4> N          2.73849       -2.01517       -3.09711
|  5> C          4.04974       -2.15472       -3.15204
|  6> N          4.65821       -1.98629       -4.31866
|  7> N          4.76423       -2.45444       -2.05049
|  8> H          4.28736       -2.77626       -1.21750
|  9> H          5.75082       -2.65835       -2.12599
| 10> H          2.34518       -1.69027       -3.97145
| 11> H          4.10900       -1.59268       -5.07176
| 12> H          5.64910       -2.15646       -4.42724
| 13> C          2.08852       -0.30091       -1.41520
| 14> H          2.23127       -2.45162       -1.10264
| 15> H          0.93025       -1.97780       -2.15544
| 16> C          1.96899        0.73358       -2.53565
| 17> H          3.05136       -0.16860       -0.91187
| 18> H          1.31650       -0.13623       -0.65725
| 19> H          2.73046        0.55745       -3.26643
| 20> H          2.08619        1.71595       -2.12808
| 21> H          1.00672        0.65098       -2.99620
| 22> *
| 23> %MaxCore 64000
| 24> 
| 25> %pal nprocs 8
| 26> end  
| 27> 
| 28> %scf
| 29>   MaxIter 150
| 30> end
| 31> 
| 32> 
| 33>                          ****END OF INPUT****
================================================================================

                       ****************************
                       * Single Point Calculation *
                       ****************************

---------------------------------
CARTESIAN COORDINATES (ANGSTROEM)
---------------------------------
  C      1.963370   -1.749150   -1.896890
  N      2.738490   -2.015170   -3.097110
  C      4.049740   -2.154720   -3.152040
  N      4.658210   -1.986290   -4.318660
  N      4.764230   -2.454440   -2.050490
  H      4.287360   -2.776260   -1.217500
  H      5.750820   -2.658350   -2.125990
  H      2.345180   -1.690270   -3.971450
  H      4.109000   -1.592680   -5.071760
  H      5.649100   -2.156460   -4.427240
  C      2.088520   -0.300910   -1.415200
  H      2.231270   -2.451620   -1.102640
  H      0.930250   -1.977800   -2.155440
  C      1.968990    0.733580   -2.535650
  H      3.051360   -0.168600   -0.911870
  H      1.316500   -0.136230   -0.657250
  H      2.730460    0.557450   -3.266430
  H      2.086190    1.715950   -2.128080
  H      1.006720    0.650980   -2.996200

----------------------------
CARTESIAN COORDINATES (A.U.)
----------------------------
  NO LB      ZA    FRAG     MASS         X           Y           Z
   0 C     6.0000    0    12.011    3.710232   -3.305414   -3.584603
   1 N     7.0000    0    14.007    5.174996   -3.808119   -5.852690
   2 C     6.0000    0    12.011    7.652900   -4.071831   -5.956492
   3 N     7.0000    0    14.007    8.802741   -3.753544   -8.161085
   4 N     7.0000    0    14.007    9.003090   -4.638219   -3.874865
   5 H     1.0000    0     1.008    8.101936   -5.246371   -2.300742
   6 H     1.0000    0     1.008   10.867475   -5.023553   -4.017539
   7 H     1.0000    0     1.008    4.431748   -3.194147   -7.504953
   8 H     1.0000    0     1.008    7.764885   -3.009729   -9.584237
   9 H     1.0000    0     1.008   10.675252   -4.075119   -8.366271
  10 C     6.0000    0    12.011    3.946731   -0.568637   -2.674340
  11 H     1.0000    0     1.008    4.216489   -4.632890   -2.083688
  12 H     1.0000    0     1.008    1.757918   -3.737500   -4.073191
  13 C     6.0000    0    12.011    3.720852    1.386265   -4.791684
  14 H     1.0000    0     1.008    5.766235   -0.318608   -1.723185
  15 H     1.0000    0     1.008    2.487824   -0.257437   -1.242023
  16 H     1.0000    0     1.008    5.159822    1.053428   -6.172658
  17 H     1.0000    0     1.008    3.942328    3.242676   -4.021488
  18 H     1.0000    0     1.008    1.902425    1.230174   -5.661997

--------------------------------
INTERNAL COORDINATES (ANGSTROEM)
--------------------------------
 C      0   0   0     0.000000000000     0.00000000     0.00000000
 N      1   0   0     1.453308536822     0.00000000     0.00000000
 C      2   1   0     1.319798495945   125.70558414     0.00000000
 N      3   2   1     1.326501651036   118.61421616   200.38175597
 N      3   2   1     1.346751811211   121.10321023    20.01727886
 H      5   3   2     1.012346506588   119.59453702    13.56866466
 H      5   3   2     1.010266977685   120.12495650   173.22985716
 H      2   1   3     1.012286126399   116.57303880   207.34688220
 H      4   3   2     1.011790524862   117.06612917    10.99918763
 H      4   3   2     1.011242027113   121.50248980   185.08027543
 C      1   2   3     1.531367648933   112.91044782    74.86377029
 H      1   2   3     1.093648743153   110.58185151   309.76306189
 H      1   2   3     1.089250136286   105.74830411   195.84517559
 C     11   1   2     1.529661787292   113.75259684    44.99004915
 H     11   1   2     1.094489785517   109.32177231   283.03708796
 H     11   1   2     1.094359440632   107.60872258   167.76513934
 H     14  11   1     1.069998946822   109.47123491   301.16694694
 H     14  11   1     1.069999982150   109.47128959   181.16744222
 H     14  11   1     1.069996549247   109.47184795    61.16727111

---------------------------
INTERNAL COORDINATES (A.U.)
---------------------------
 C      0   0   0     0.000000000000     0.00000000     0.00000000
 N      1   0   0     2.746355122684     0.00000000     0.00000000
 C      2   1   0     2.494057709298   125.70558414     0.00000000
 N      3   2   1     2.506724836652   118.61421616   200.38175597
 N      3   2   1     2.544992093551   121.10321023    20.01727886
 H      5   3   2     1.913057650082   119.59453702    13.56866466
 H      5   3   2     1.909127909968   120.12495650   173.22985716
 H      2   1   3     1.912943548062   116.57303880   207.34688220
 H      4   3   2     1.912006996885   117.06612917    10.99918763
 H      4   3   2     1.910970486355   121.50248980   185.08027543
 C      1   2   3     2.893865466831   112.91044782    74.86377029
 H      1   2   3     2.066696611266   110.58185151   309.76306189
 H      1   2   3     2.058384448918   105.74830411   195.84517559
 C     11   1   2     2.890641855506   113.75259684    44.99004915
 H     11   1   2     2.068285951000   109.32177231   283.03708796
 H     11   1   2     2.068039634865   107.60872258   167.76513934
 H     14  11   1     2.022004973078   109.47123491   301.16694694
 H     14  11   1     2.022006929563   109.47128959   181.16744222
 H     14  11   1     2.022000442317   109.47184795    61.16727111

---------------------
BASIS SET INFORMATION
---------------------
There are 3 groups of distinct atoms

 Group   1 Type C   : 8s4p2d contracted to 4s2p2d pattern {5111/31/11}
 Group   2 Type N   : 8s4p2d contracted to 4s2p2d pattern {5111/31/11}
 Group   3 Type H   : 4s2p contracted to 2s2p pattern {31/11}

Atom   0C    basis set group =>   1
Atom   1N    basis set group =>   2
Atom   2C    basis set group =>   1
Atom   3N    basis set group =>   2
Atom   4N    basis set group =>   2
Atom   5H    basis set group =>   3
Atom   6H    basis set group =>   3
Atom   7H    basis set group =>   3
Atom   8H    basis set group =>   3
Atom   9H    basis set group =>   3
Atom  10C    basis set group =>   1
Atom  11H    basis set group =>   3
Atom  12H    basis set group =>   3
Atom  13C    basis set group =>   1
Atom  14H    basis set group =>   3
Atom  15H    basis set group =>   3
Atom  16H    basis set group =>   3
Atom  17H    basis set group =>   3
Atom  18H    basis set group =>   3
---------------------------------
AUXILIARY/J BASIS SET INFORMATION
---------------------------------
There are 3 groups of distinct atoms

 Group   1 Type C   : 12s5p4d2f1g contracted to 6s4p3d1f1g pattern {711111/2111/211/2/1}
 Group   2 Type N   : 12s5p4d2f1g contracted to 6s4p3d1f1g pattern {711111/2111/211/2/1}
 Group   3 Type H   : 5s2p1d contracted to 3s1p1d pattern {311/2/1}

Atom   0C    basis set group =>   1
Atom   1N    basis set group =>   2
Atom   2C    basis set group =>   1
Atom   3N    basis set group =>   2
Atom   4N    basis set group =>   2
Atom   5H    basis set group =>   3
Atom   6H    basis set group =>   3
Atom   7H    basis set group =>   3
Atom   8H    basis set group =>   3
Atom   9H    basis set group =>   3
Atom  10C    basis set group =>   1
Atom  11H    basis set group =>   3
Atom  12H    basis set group =>   3
Atom  13C    basis set group =>   1
Atom  14H    basis set group =>   3
Atom  15H    basis set group =>   3
Atom  16H    basis set group =>   3
Atom  17H    basis set group =>   3
Atom  18H    basis set group =>   3


           ************************************************************
           *        Program running with 8 parallel MPI-processes     *
           *              working on a common directory               *
           ************************************************************
------------------------------------------------------------------------------
                           ORCA GTO INTEGRAL CALCULATION
                           -- RI-GTO INTEGRALS CHOSEN --
------------------------------------------------------------------------------
------------------------------------------------------------------------------
                   ___                                                        
                  /   \      - P O W E R E D   B Y -                         
                 /     \                                                     
                 |  |  |   _    _      __       _____    __    __             
                 |  |  |  | |  | |    /  \     |  _  \  |  |  /  |          
                  \  \/   | |  | |   /    \    | | | |  |  | /  /          
                 / \  \   | |__| |  /  /\  \   | |_| |  |  |/  /          
                |  |  |   |  __  | /  /__\  \  |    /   |      \           
                |  |  |   | |  | | |   __   |  |    \   |  |\   \          
                \     /   | |  | | |  |  |  |  | |\  \  |  | \   \       
                 \___/    |_|  |_| |__|  |__|  |_| \__\ |__|  \__/        
                                                                              
                      - O R C A' S   B I G   F R I E N D -                    
                                      &                                       
                       - I N T E G R A L  F E E D E R -                       
                                                                              
 v1 FN, 2020, v2 2021                                                         
------------------------------------------------------------------------------


Reading SHARK input file 14Feb_SVPD_LC_BLYP_A_wt_wb97_typ1_pos.SHARKINP.tmp ... ok
----------------------
SHARK INTEGRAL PACKAGE
----------------------

Number of atoms                             ...     19
Number of basis functions                   ...    236
Number of shells                            ...    104
Maximum angular momentum                    ...      2
Integral batch strategy                     ... SHARK/LIBINT Hybrid
RI-J (if used) integral strategy            ... SPLIT-RIJ (Revised 2003 algorithm where possible)
Printlevel                                  ...      1
Contraction scheme used                     ... SEGMENTED contraction
Coulomb Range Separation                    ... NOT USED
Exchange Range Separation                   ... Long Range
   Mu parameter                             ...  0.330000
   Scaling (regular/separated)              ...  0.000000  1.000000
Finite Nucleus Model                        ... NOT USED
Auxiliary Coulomb fitting basis             ... AVAILABLE
   # of basis functions in Aux-J            ...    475
   # of shells in Aux-J                     ...    165
   Maximum angular momentum in Aux-J        ...      4
Auxiliary J/K fitting basis                 ... NOT available
Auxiliary Correlation fitting basis         ... NOT available
Auxiliary 'external' fitting basis          ... NOT available
Integral threshold                          ...     2.500000e-11
Primitive cut-off                           ...     2.500000e-12
Primitive pair pre-selection threshold      ...     2.500000e-12

Calculating pre-screening integrals         ... done (  0.0 sec) Dimension = 104
Organizing shell pair data                  ... done (  0.0 sec)
Shell pair information
Total number of shell pairs                 ...      5460
Shell pairs after pre-screening             ...      5326
Total number of primitive shell pairs       ...     14662
Primitive shell pairs kept                  ...     11702
          la=0 lb=0:   1341 shell pairs
          la=1 lb=0:   1920 shell pairs
          la=1 lb=1:    721 shell pairs
          la=2 lb=0:    715 shell pairs
          la=2 lb=1:    524 shell pairs
          la=2 lb=2:    105 shell pairs

Calculating one electron integrals          ... done (  0.0 sec)
Calculating RI/J V-Matrix + Cholesky decomp.... done (  0.0 sec)
Calculating Nuclear repulsion               ... done (  0.0 sec) ENN=    334.070010164456 Eh

SHARK setup successfully completed in   0.2 seconds

Maximum memory used throughout the entire GTOINT-calculation: 10.5 MB


           ************************************************************
           *        Program running with 8 parallel MPI-processes     *
           *              working on a common directory               *
           ************************************************************
-------------------------------------------------------------------------------
                                 ORCA SCF
-------------------------------------------------------------------------------

------------
SCF SETTINGS
------------
Hamiltonian:
 Density Functional     Method          .... DFT(GTOs)
 Exchange Functional    Exchange        .... WB88
 Correlation Functional Correlation     .... LYP
 Gradients option       PostSCFGGA      .... off
   Density functional embedding theory  .... OFF
 Long-range corrected/Screened/Range-Separated Hybrid DFT is turned on
   Amount of maximum screened exact exchange              ....  1.000000
   Range separation parameter mu (erf(mu*r12)/r12)        ....  0.330000
 RI-approximation to the Coulomb term is turned on
   Number of AuxJ basis functions       .... 475
   RIJ-COSX (HFX calculated with COS-X)).... on


General Settings:
 Integral files         IntName         .... 14Feb_SVPD_LC_BLYP_A_wt_wb97_typ1_pos
 Hartree-Fock type      HFTyp           .... RHF
 Total Charge           Charge          ....    1
 Multiplicity           Mult            ....    1
 Number of Electrons    NEL             ....   56
 Basis Dimension        Dim             ....  236
 Nuclear Repulsion      ENuc            ....    334.0700101645 Eh

Convergence Acceleration:
 DIIS                   CNVDIIS         .... on
   Start iteration      DIISMaxIt       ....    12
   Startup error        DIISStart       ....  0.200000
   # of expansion vecs  DIISMaxEq       ....     5
   Bias factor          DIISBfac        ....   1.050
   Max. coefficient     DIISMaxC        ....  10.000
 Trust-Rad. Augm. Hess. CNVTRAH         .... auto
   Auto Start mean grad. ratio tolernc. ....  1.125000
   Auto Start start iteration           ....    20
   Auto Start num. interpolation iter.  ....    10
   Max. Number of Micro iterations      ....    16
   Max. Number of Macro iterations      .... Maxiter - #DIIS iter
   Number of Davidson start vectors     ....     2
   Converg. threshold I  (grad. norm)   ....   1.000e-05
   Converg. threshold II (energy diff.) ....   1.000e-08
   Grad. Scal. Fac. for Micro threshold ....   0.100
   Minimum threshold for Micro iter.    ....   0.010
   NR start threshold (gradient norm)   ....   0.001
   Initial trust radius                 ....   0.400
   Minimum AH scaling param. (alpha)    ....   1.000
   Maximum AH scaling param. (alpha)    .... 1000.000
   Orbital update algorithm             .... Taylor
   White noise on init. David. guess    .... on
   Maximum white noise                  ....   0.010
   Quad. conv. algorithm                .... NR
 SOSCF                  CNVSOSCF        .... on
   Start iteration      SOSCFMaxIt      ....   150
   Startup grad/error   SOSCFStart      ....  0.003300
 Level Shifting         CNVShift        .... on
   Level shift para.    LevelShift      ....    0.2500
   Turn off err/grad.   ShiftErr        ....    0.0010
 Zerner damping         CNVZerner       .... off
 Static damping         CNVDamp         .... on
   Fraction old density DampFac         ....    0.7000
   Max. Damping (<1)    DampMax         ....    0.9800
   Min. Damping (>=0)   DampMin         ....    0.0000
   Turn off err/grad.   DampErr         ....    0.1000
 Fernandez-Rico         CNVRico         .... off

SCF Procedure:
 Maximum # iterations   MaxIter         ....   150
 SCF integral mode      SCFMode         .... Direct
   Integral package                     .... SHARK and LIBINT hybrid scheme
 Reset frequency        DirectResetFreq ....    20
 Integral Threshold     Thresh          ....  2.500e-11 Eh
 Primitive CutOff       TCut            ....  2.500e-12 Eh

Convergence Tolerance:
 Convergence Check Mode ConvCheckMode   .... Total+1el-Energy
 Convergence forced     ConvForced      .... 0
 Energy Change          TolE            ....  1.000e-08 Eh
 1-El. energy change                    ....  1.000e-05 Eh
 Orbital Gradient       TolG            ....  1.000e-05
 Orbital Rotation angle TolX            ....  1.000e-05
 DIIS Error             TolErr          ....  5.000e-07


Diagonalization of the overlap matrix:
Smallest eigenvalue                        ... 5.716e-05
Time for diagonalization                   ...    0.014 sec
Threshold for overlap eigenvalues          ... 1.000e-08
Number of eigenvalues below threshold      ... 0
Time for construction of square roots      ...    0.011 sec
Total time needed                          ...    0.026 sec

Time for model grid setup =    0.084 sec

------------------------------
INITIAL GUESS: MODEL POTENTIAL
------------------------------
Loading Hartree-Fock densities                     ... done
Calculating cut-offs                               ... done
Initializing the effective Hamiltonian             ... done
Setting up the integral package (SHARK)            ... done
Starting the Coulomb interaction                   ... done (   0.0 sec)
Reading the grid                                   ... done
Mapping shells                                     ... done
Starting the XC term evaluation                    ... done (   0.1 sec)
  promolecular density results
     # of electrons  =     56.994002928
     EX              =    -43.720719768
     EC              =     -1.883335184
     EX+EC           =    -45.604054953
Transforming the Hamiltonian                       ... done (   0.0 sec)
Diagonalizing the Hamiltonian                      ... done (   0.0 sec)
Back transforming the eigenvectors                 ... done (   0.0 sec)
Now organizing SCF variables                       ... done
                      ------------------
                      INITIAL GUESS DONE (   0.2 sec)
                      ------------------
-------------------
DFT GRID GENERATION
-------------------

General Integration Accuracy     IntAcc      ... 4.388
Radial Grid Type                 RadialGrid  ... OptM3 with GC (2021)
Angular Grid (max. ang.)         AngularGrid ... 4 (Lebedev-302)
Angular grid pruning method      GridPruning ... 4 (adaptive)
Weight generation scheme         WeightScheme... Becke
Basis function cutoff            BFCut       ... 1.0000e-11
Integration weight cutoff        WCut        ... 1.0000e-14
Angular grids for H and He will be reduced by one unit
Partially contracted basis set               ... off
Rotationally invariant grid construction     ... off

Total number of grid points                  ...    82777
Total number of batches                      ...     1302
Average number of points per batch           ...       63
Average number of grid points per atom       ...     4357
Time for grid setup =    0.444 sec

--------------------
COSX GRID GENERATION
--------------------

GRIDX 1
-------
General Integration Accuracy     IntAcc      ... 3.816
Radial Grid Type                 RadialGrid  ... OptM3 with GC (2021)
Angular Grid (max. ang.)         AngularGrid ... 1 (Lebedev-50)
Angular grid pruning method      GridPruning ... 4 (adaptive)
Weight generation scheme         WeightScheme... Becke
Basis function cutoff            BFCut       ... 1.0000e-11
Integration weight cutoff        WCut        ... 1.0000e-14
Angular grids for H and He will be reduced by one unit
Partially contracted basis set               ... on
Rotationally invariant grid construction     ... off

Total number of grid points                  ...    10355
Total number of batches                      ...      175
Average number of points per batch           ...       59
Average number of grid points per atom       ...      545
UseSFitting                                  ... on

GRIDX 2
-------
General Integration Accuracy     IntAcc      ... 4.020
Radial Grid Type                 RadialGrid  ... OptM3 with GC (2021)
Angular Grid (max. ang.)         AngularGrid ... 2 (Lebedev-110)
Angular grid pruning method      GridPruning ... 4 (adaptive)
Weight generation scheme         WeightScheme... Becke
Basis function cutoff            BFCut       ... 1.0000e-11
Integration weight cutoff        WCut        ... 1.0000e-14
Angular grids for H and He will be reduced by one unit
Partially contracted basis set               ... on
Rotationally invariant grid construction     ... off

Total number of grid points                  ...    22533
Total number of batches                      ...      360
Average number of points per batch           ...       62
Average number of grid points per atom       ...     1186
UseSFitting                                  ... on

GRIDX 3
-------
General Integration Accuracy     IntAcc      ... 4.338
Radial Grid Type                 RadialGrid  ... OptM3 with GC (2021)
Angular Grid (max. ang.)         AngularGrid ... 3 (Lebedev-194)
Angular grid pruning method      GridPruning ... 4 (adaptive)
Weight generation scheme         WeightScheme... Becke
Basis function cutoff            BFCut       ... 1.0000e-11
Integration weight cutoff        WCut        ... 1.0000e-14
Angular grids for H and He will be reduced by one unit
Partially contracted basis set               ... on
Rotationally invariant grid construction     ... off

Total number of grid points                  ...    51363
Total number of batches                      ...      812
Average number of points per batch           ...       63
Average number of grid points per atom       ...     2703
UseSFitting                                  ... on

Time for X-Grid setup             =    0.353 sec

--------------
SCF ITERATIONS
--------------
ITER       Energy         Delta-E        Max-DP      RMS-DP      [F,P]     Damp
               ***  Starting incremental Fock matrix formation  ***
  0   -322.4409878657   0.000000000000 0.08355821  0.00189135  0.1760856 0.7000
  1   -322.5275414194  -0.086553553725 0.04974584  0.00135189  0.0991776 0.7000
                               ***Turning on DIIS***
  2   -322.5699182846  -0.042376865223 0.09133938  0.00282755  0.0490969 0.0000
  3   -322.6378013345  -0.067883049838 0.06564628  0.00108742  0.0433661 0.0000
  4   -322.6491649476  -0.011363613133 0.00791050  0.00020364  0.0044899 0.0000
                      *** Initiating the SOSCF procedure ***
                           *** Shutting down DIIS ***
                      *** Re-Reading the Fockian *** 
                      *** Removing any level shift *** 
ITER      Energy       Delta-E        Grad      Rot      Max-DP    RMS-DP
  5   -322.64930389  -0.0001389463  0.000623  0.000623  0.002907  0.000083
               *** Restarting incremental Fock matrix formation ***
  6   -322.64931848  -0.0000145897  0.000297  0.000657  0.003005  0.000050
  7   -322.64932234  -0.0000038545  0.000144  0.000521  0.000909  0.000027
  8   -322.64932315  -0.0000008078  0.000045  0.000056  0.000536  0.000009
  9   -322.64932325  -0.0000001040  0.000013  0.000021  0.000102  0.000003
 10   -322.64932326  -0.0000000073  0.000006  0.000018  0.000040  0.000001
                  ***Gradient check signals convergence***
              ***Rediagonalizing the Fockian in SOSCF/NRSCF***

               *****************************************************
               *                     SUCCESS                       *
               *           SCF CONVERGED AFTER  11 CYCLES          *
               *****************************************************


----------------
TOTAL SCF ENERGY
----------------

Total Energy       :         -322.64932326 Eh           -8779.73444 eV

Components:
Nuclear Repulsion  :          334.07001016 Eh            9090.50713 eV
Electronic Energy  :         -656.71933343 Eh          -17870.24157 eV
One Electron Energy:        -1087.06032657 Eh          -29580.41533 eV
Two Electron Energy:          430.34099314 Eh           11710.17376 eV
Max COSX asymmetry :            0.00000432 Eh               0.00012 eV

Virial components:
Potential Energy   :         -642.06576093 Eh          -17471.49759 eV
Kinetic Energy     :          319.41643767 Eh            8691.76315 eV
Virial Ratio       :            2.01012122


DFT components:
N(Alpha)           :       27.999989403816 electrons
N(Beta)            :       27.999989403816 electrons
N(Total)           :       55.999978807632 electrons
E(XC)              :      -36.283623527254 Eh       
DFET-embed. en.    :        0.000000000000 Eh       

---------------
SCF CONVERGENCE
---------------

  Last Energy change         ...   -4.8354e-09  Tolerance :   1.0000e-08
  Last MAX-Density change    ...    6.9670e-05  Tolerance :   1.0000e-07
  Last RMS-Density change    ...    7.2103e-07  Tolerance :   5.0000e-09
  Last Orbital Gradient      ...    2.1088e-06  Tolerance :   1.0000e-05
  Last Orbital Rotation      ...    6.9335e-06  Tolerance :   1.0000e-05

             **** THE GBW FILE WAS UPDATED (14Feb_SVPD_LC_BLYP_A_wt_wb97_typ1_pos.gbw) ****
             **** DENSITY 14Feb_SVPD_LC_BLYP_A_wt_wb97_typ1_pos.scfp WAS UPDATED ****
             **** ENERGY FILE WAS UPDATED (14Feb_SVPD_LC_BLYP_A_wt_wb97_typ1_pos.en.tmp) ****
             **** THE GBW FILE WAS UPDATED (14Feb_SVPD_LC_BLYP_A_wt_wb97_typ1_pos.gbw) ****
             **** DENSITY 14Feb_SVPD_LC_BLYP_A_wt_wb97_typ1_pos.scfp WAS UPDATED ****
----------------
ORBITAL ENERGIES
----------------

  NO   OCC          E(Eh)            E(eV) 
   0   2.0000     -14.412597      -392.1867 
   1   2.0000     -14.409940      -392.1144 
   2   2.0000     -14.409535      -392.1034 
   3   2.0000     -10.422284      -283.6048 
   4   2.0000     -10.287175      -279.9283 
   5   2.0000     -10.227566      -278.3062 
   6   2.0000     -10.204999      -277.6922 
   7   2.0000      -1.311071       -35.6761 
   8   2.0000      -1.199154       -32.6306 
   9   2.0000      -1.185742       -32.2657 
  10   2.0000      -1.044008       -28.4089 
  11   2.0000      -0.969407       -26.3789 
  12   2.0000      -0.929318       -25.2880 
  13   2.0000      -0.891187       -24.2504 
  14   2.0000      -0.874383       -23.7932 
  15   2.0000      -0.829623       -22.5752 
  16   2.0000      -0.796762       -21.6810 
  17   2.0000      -0.786589       -21.4042 
  18   2.0000      -0.767276       -20.8786 
  19   2.0000      -0.732147       -19.9227 
  20   2.0000      -0.705996       -19.2111 
  21   2.0000      -0.691241       -18.8096 
  22   2.0000      -0.650550       -17.7024 
  23   2.0000      -0.607029       -16.5181 
  24   2.0000      -0.594395       -16.1743 
  25   2.0000      -0.583038       -15.8653 
  26   2.0000      -0.571001       -15.5377 
  27   2.0000      -0.543378       -14.7861 
  28   0.0000      -0.095564        -2.6004 
  29   0.0000      -0.091558        -2.4914 
  30   0.0000      -0.064705        -1.7607 
  31   0.0000      -0.052377        -1.4252 
  32   0.0000      -0.025386        -0.6908 
  33   0.0000      -0.019905        -0.5416 
  34   0.0000      -0.015314        -0.4167 
  35   0.0000      -0.007244        -0.1971 
  36   0.0000       0.009428         0.2565 
  37   0.0000       0.018919         0.5148 
  38   0.0000       0.034031         0.9260 
  39   0.0000       0.038325         1.0429 
  40   0.0000       0.048832         1.3288 
  41   0.0000       0.057448         1.5632 
  42   0.0000       0.063868         1.7379 
  43   0.0000       0.067469         1.8359 
  44   0.0000       0.079081         2.1519 
  45   0.0000       0.081380         2.2145 
  46   0.0000       0.096327         2.6212 
  47   0.0000       0.100775         2.7422 
  48   0.0000       0.109004         2.9661 
  49   0.0000       0.118889         3.2351 
  50   0.0000       0.126394         3.4394 
  51   0.0000       0.136799         3.7225 
  52   0.0000       0.146391         3.9835 
  53   0.0000       0.147049         4.0014 
  54   0.0000       0.164335         4.4718 
  55   0.0000       0.165964         4.5161 
  56   0.0000       0.178613         4.8603 
  57   0.0000       0.181614         4.9420 
  58   0.0000       0.189371         5.1530 
  59   0.0000       0.202481         5.5098 
  60   0.0000       0.210667         5.7325 
  61   0.0000       0.215207         5.8561 
  62   0.0000       0.227921         6.2021 
  63   0.0000       0.232428         6.3247 
  64   0.0000       0.245097         6.6694 
  65   0.0000       0.249740         6.7958 
  66   0.0000       0.255422         6.9504 
  67   0.0000       0.260495         7.0884 
  68   0.0000       0.266968         7.2646 
  69   0.0000       0.277119         7.5408 
  70   0.0000       0.280182         7.6241 
  71   0.0000       0.284477         7.7410 
  72   0.0000       0.298083         8.1113 
  73   0.0000       0.298838         8.1318 
  74   0.0000       0.307944         8.3796 
  75   0.0000       0.310985         8.4623 
  76   0.0000       0.316655         8.6166 
  77   0.0000       0.321138         8.7386 
  78   0.0000       0.330503         8.9935 
  79   0.0000       0.335410         9.1270 
  80   0.0000       0.342294         9.3143 
  81   0.0000       0.347125         9.4458 
  82   0.0000       0.355774         9.6811 
  83   0.0000       0.372940        10.1482 
  84   0.0000       0.378710        10.3052 
  85   0.0000       0.380613        10.3570 
  86   0.0000       0.391203        10.6452 
  87   0.0000       0.395448        10.7607 
  88   0.0000       0.405523        11.0348 
  89   0.0000       0.411130        11.1874 
  90   0.0000       0.412765        11.2319 
  91   0.0000       0.424562        11.5529 
  92   0.0000       0.431879        11.7520 
  93   0.0000       0.432740        11.7754 
  94   0.0000       0.444484        12.0950 
  95   0.0000       0.450283        12.2528 
  96   0.0000       0.455410        12.3923 
  97   0.0000       0.456203        12.4139 
  98   0.0000       0.468003        12.7350 
  99   0.0000       0.474323        12.9070 
 100   0.0000       0.487733        13.2719 
 101   0.0000       0.493008        13.4154 
 102   0.0000       0.498281        13.5589 
 103   0.0000       0.504509        13.7284 
 104   0.0000       0.507491        13.8095 
 105   0.0000       0.523518        14.2456 
 106   0.0000       0.533584        14.5196 
 107   0.0000       0.545569        14.8457 
 108   0.0000       0.551574        15.0091 
 109   0.0000       0.557981        15.1834 
 110   0.0000       0.577337        15.7101 
 111   0.0000       0.586783        15.9672 
 112   0.0000       0.588714        16.0197 
 113   0.0000       0.596185        16.2230 
 114   0.0000       0.614315        16.7164 
 115   0.0000       0.632653        17.2154 
 116   0.0000       0.645245        17.5580 
 117   0.0000       0.648538        17.6476 
 118   0.0000       0.665423        18.1071 
 119   0.0000       0.675289        18.3756 
 120   0.0000       0.683326        18.5942 
 121   0.0000       0.687365        18.7042 
 122   0.0000       0.698314        19.0021 
 123   0.0000       0.712416        19.3858 
 124   0.0000       0.731192        19.8967 
 125   0.0000       0.769124        20.9289 
 126   0.0000       0.821045        22.3418 
 127   0.0000       0.857209        23.3259 
 128   0.0000       0.879333        23.9279 
 129   0.0000       0.886537        24.1239 
 130   0.0000       0.910843        24.7853 
 131   0.0000       0.918205        24.9856 
 132   0.0000       0.933828        25.4107 
 133   0.0000       0.944855        25.7108 
 134   0.0000       0.966547        26.3011 
 135   0.0000       0.976976        26.5849 
 136   0.0000       0.985368        26.8132 
 137   0.0000       0.994969        27.0745 
 138   0.0000       1.010954        27.5095 
 139   0.0000       1.023576        27.8529 
 140   0.0000       1.031546        28.0698 
 141   0.0000       1.063550        28.9407 
 142   0.0000       1.082071        29.4446 
 143   0.0000       1.097945        29.8766 
 144   0.0000       1.105795        30.0902 
 145   0.0000       1.137235        30.9457 
 146   0.0000       1.144004        31.1299 
 147   0.0000       1.162284        31.6274 
 148   0.0000       1.169606        31.8266 
 149   0.0000       1.216593        33.1052 
 150   0.0000       1.225925        33.3591 
 151   0.0000       1.249594        34.0032 
 152   0.0000       1.321546        35.9611 
 153   0.0000       1.331871        36.2421 
 154   0.0000       1.389033        37.7975 
 155   0.0000       1.403012        38.1779 
 156   0.0000       1.439728        39.1770 
 157   0.0000       1.469908        39.9982 
 158   0.0000       1.494963        40.6800 
 159   0.0000       1.540748        41.9259 
 160   0.0000       1.546106        42.0717 
 161   0.0000       1.555686        42.3324 
 162   0.0000       1.582431        43.0601 
 163   0.0000       1.597398        43.4674 
 164   0.0000       1.607368        43.7387 
 165   0.0000       1.629929        44.3526 
 166   0.0000       1.652879        44.9771 
 167   0.0000       1.673683        45.5432 
 168   0.0000       1.695152        46.1274 
 169   0.0000       1.707708        46.4691 
 170   0.0000       1.722465        46.8706 
 171   0.0000       1.756287        47.7910 
 172   0.0000       1.773648        48.2634 
 173   0.0000       1.780494        48.4497 
 174   0.0000       1.810613        49.2693 
 175   0.0000       1.823082        49.6086 
 176   0.0000       1.852249        50.4023 
 177   0.0000       1.861910        50.6652 
 178   0.0000       1.883624        51.2560 
 179   0.0000       1.896053        51.5942 
 180   0.0000       1.908831        51.9419 
 181   0.0000       1.923284        52.3352 
 182   0.0000       1.941378        52.8276 
 183   0.0000       1.954215        53.1769 
 184   0.0000       1.963089        53.4184 
 185   0.0000       1.984885        54.0115 
 186   0.0000       2.003576        54.5201 
 187   0.0000       2.011265        54.7293 
 188   0.0000       2.016644        54.8757 
 189   0.0000       2.023294        55.0566 
 190   0.0000       2.042158        55.5699 
 191   0.0000       2.053432        55.8767 
 192   0.0000       2.071117        56.3580 
 193   0.0000       2.108278        57.3692 
 194   0.0000       2.127930        57.9039 
 195   0.0000       2.160567        58.7920 
 196   0.0000       2.183791        59.4240 
 197   0.0000       2.192804        59.6692 
 198   0.0000       2.243280        61.0428 
 199   0.0000       2.275214        61.9117 
 200   0.0000       2.292494        62.3819 
 201   0.0000       2.317118        63.0520 
 202   0.0000       2.332519        63.4711 
 203   0.0000       2.377345        64.6909 
 204   0.0000       2.397238        65.2322 
 205   0.0000       2.420785        65.8729 
 206   0.0000       2.430676        66.1421 
 207   0.0000       2.447011        66.5866 
 208   0.0000       2.479610        67.4736 
 209   0.0000       2.512135        68.3587 
 210   0.0000       2.541944        69.1698 
 211   0.0000       2.556008        69.5525 
 212   0.0000       2.598203        70.7007 
 213   0.0000       2.619947        71.2924 
 214   0.0000       2.653914        72.2167 
 215   0.0000       2.667982        72.5995 
 216   0.0000       2.669043        72.6283 
 217   0.0000       2.683661        73.0261 
 218   0.0000       2.762809        75.1799 
 219   0.0000       2.792406        75.9852 
 220   0.0000       2.834472        77.1299 
 221   0.0000       2.948667        80.2373 
 222   0.0000       3.005543        81.7850 
 223   0.0000       3.023101        82.2628 
 224   0.0000       3.041227        82.7560 
 225   0.0000       3.099486        84.3413 
 226   0.0000       3.124522        85.0226 
 227   0.0000       3.146076        85.6091 
 228   0.0000       3.159776        85.9819 
 229   0.0000       3.183066        86.6156 
 230   0.0000       3.194921        86.9382 
 231   0.0000       3.231061        87.9216 
 232   0.0000       3.287109        89.4468 
 233   0.0000       3.343790        90.9892 
 234   0.0000       3.595680        97.8434 
 235   0.0000       3.633191        98.8642 

                    ********************************
                    * MULLIKEN POPULATION ANALYSIS *
                    ********************************

-----------------------
MULLIKEN ATOMIC CHARGES
-----------------------
   0 C :    0.851103
   1 N :   -0.243247
   2 C :    0.967679
   3 N :    0.118813
   4 N :    0.224730
   5 H :   -0.072031
   6 H :   -0.193331
   7 H :   -0.115830
   8 H :   -0.021074
   9 H :   -0.141037
  10 C :   -0.104423
  11 H :   -0.209103
  12 H :   -0.345648
  13 C :    1.046910
  14 H :   -0.090192
  15 H :   -0.175462
  16 H :   -0.265889
  17 H :   -0.164603
  18 H :   -0.067365
Sum of atomic charges:    1.0000000

--------------------------------
MULLIKEN REDUCED ORBITAL CHARGES
--------------------------------
  0 C s       :     2.607608  s :     2.607608
      pz      :     0.718562  p :     2.417134
      px      :     0.748383
      py      :     0.950188
      dz2     :    -0.059351  d :     0.124155
      dxz     :     0.007379
      dyz     :     0.105584
      dx2y2   :     0.002063
      dxy     :     0.068479
  1 N s       :     3.427738  s :     3.427738
      pz      :     1.095485  p :     3.604380
      px      :     0.979758
      py      :     1.529137
      dz2     :     0.043100  d :     0.211129
      dxz     :     0.030605
      dyz     :     0.037270
      dx2y2   :     0.074870
      dxy     :     0.025284
  2 C s       :     3.061690  s :     3.061690
      pz      :     0.710863  p :     2.226301
      px      :     0.832417
      py      :     0.683021
      dz2     :    -0.106728  d :    -0.255670
      dxz     :    -0.186008
      dyz     :     0.036903
      dx2y2   :    -0.015572
      dxy     :     0.015735
  3 N s       :     3.343477  s :     3.343477
      pz      :     0.998448  p :     3.570965
      px      :     1.031765
      py      :     1.540752
      dz2     :    -0.014889  d :    -0.033255
      dxz     :    -0.020941
      dyz     :     0.004730
      dx2y2   :    -0.007535
      dxy     :     0.005380
  4 N s       :     3.269311  s :     3.269311
      pz      :     1.035782  p :     3.558482
      px      :     0.984953
      py      :     1.537748
      dz2     :    -0.028323  d :    -0.052524
      dxz     :    -0.015118
      dyz     :     0.009780
      dx2y2   :    -0.014817
      dxy     :    -0.004046
  5 H s       :     1.070056  s :     1.070056
      pz      :     0.011909  p :     0.001975
      px      :    -0.058552
      py      :     0.048618
  6 H s       :     1.173842  s :     1.173842
      pz      :    -0.018519  p :     0.019489
      px      :    -0.013543
      py      :     0.051551
  7 H s       :     1.132041  s :     1.132041
      pz      :    -0.007172  p :    -0.016211
      px      :    -0.038989
      py      :     0.029950
  8 H s       :     1.015022  s :     1.015022
      pz      :     0.002956  p :     0.006052
      px      :    -0.045817
      py      :     0.048913
  9 H s       :     1.111671  s :     1.111671
      pz      :    -0.013534  p :     0.029366
      px      :    -0.006875
      py      :     0.049775
 10 C s       :     2.800408  s :     2.800408
      pz      :     0.958502  p :     2.757957
      px      :     0.853255
      py      :     0.946200
      dz2     :     0.136323  d :     0.546058
      dxz     :     0.168129
      dyz     :     0.054677
      dx2y2   :     0.098854
      dxy     :     0.088074
 11 H s       :     1.187611  s :     1.187611
      pz      :     0.011211  p :     0.021492
      px      :     0.000341
      py      :     0.009940
 12 H s       :     1.332985  s :     1.332985
      pz      :     0.003839  p :     0.012663
      px      :     0.030032
      py      :    -0.021208
 13 C s       :     2.255971  s :     2.255971
      pz      :     0.884002  p :     2.605717
      px      :     0.858583
      py      :     0.863131
      dz2     :     0.060188  d :     0.091402
      dxz     :     0.037455
      dyz     :     0.008901
      dx2y2   :    -0.013385
      dxy     :    -0.001756
 14 H s       :     1.088276  s :     1.088276
      pz      :    -0.008471  p :     0.001917
      px      :     0.035701
      py      :    -0.025314
 15 H s       :     1.177818  s :     1.177818
      pz      :     0.014499  p :    -0.002356
      px      :     0.006304
      py      :    -0.023159
 16 H s       :     1.200014  s :     1.200014
      pz      :    -0.002936  p :     0.065875
      px      :     0.067734
      py      :     0.001077
 17 H s       :     1.175476  s :     1.175476
      pz      :     0.010433  p :    -0.010874
      px      :    -0.046570
      py      :     0.025263
 18 H s       :     1.071556  s :     1.071556
      pz      :    -0.027630  p :    -0.004192
      px      :     0.046848
      py      :    -0.023409


                     *******************************
                     * LOEWDIN POPULATION ANALYSIS *
                     *******************************

----------------------
LOEWDIN ATOMIC CHARGES
----------------------
   0 C :    0.057344
   1 N :    0.056986
   2 C :   -0.063503
   3 N :    0.276738
   4 N :    0.291853
   5 H :    0.021463
   6 H :    0.037013
   7 H :    0.053221
   8 H :    0.038486
   9 H :    0.043844
  10 C :   -0.057093
  11 H :    0.031419
  12 H :    0.047644
  13 C :    0.125088
  14 H :    0.025733
  15 H :    0.042613
  16 H :   -0.030975
  17 H :    0.003507
  18 H :   -0.001379

-------------------------------
LOEWDIN REDUCED ORBITAL CHARGES
-------------------------------
  0 C s       :     2.664384  s :     2.664384
      pz      :     0.815828  p :     2.611389
      px      :     0.876348
      py      :     0.919213
      dz2     :     0.118963  d :     0.666884
      dxz     :     0.103594
      dyz     :     0.196207
      dx2y2   :     0.129130
      dxy     :     0.118989
  1 N s       :     2.904107  s :     2.904107
      pz      :     1.082088  p :     3.448715
      px      :     1.058447
      py      :     1.308179
      dz2     :     0.135777  d :     0.590193
      dxz     :     0.166021
      dyz     :     0.083511
      dx2y2   :     0.119383
      dxy     :     0.085500
  2 C s       :     2.613471  s :     2.613471
      pz      :     0.864888  p :     2.406447
      px      :     0.883447
      py      :     0.658112
      dz2     :     0.239033  d :     1.043585
      dxz     :     0.276195
      dyz     :     0.192193
      dx2y2   :     0.143305
      dxy     :     0.192858
  3 N s       :     2.921941  s :     2.921941
      pz      :     1.083807  p :     3.509107
      px      :     1.084684
      py      :     1.340616
      dz2     :     0.087915  d :     0.292214
      dxz     :     0.085027
      dyz     :     0.055031
      dx2y2   :     0.041054
      dxy     :     0.023187
  4 N s       :     2.925218  s :     2.925218
      pz      :     1.089141  p :     3.502403
      px      :     1.072813
      py      :     1.340450
      dz2     :     0.087167  d :     0.280525
      dxz     :     0.076445
      dyz     :     0.048044
      dx2y2   :     0.042659
      dxy     :     0.026210
  5 H s       :     0.629781  s :     0.629781
      pz      :     0.122286  p :     0.348756
      px      :     0.114735
      py      :     0.111735
  6 H s       :     0.640116  s :     0.640116
      pz      :     0.072567  p :     0.322871
      px      :     0.144199
      py      :     0.106105
  7 H s       :     0.623418  s :     0.623418
      pz      :     0.127597  p :     0.323361
      px      :     0.087694
      py      :     0.108070
  8 H s       :     0.634082  s :     0.634082
      pz      :     0.112624  p :     0.327433
      px      :     0.101713
      py      :     0.113096
  9 H s       :     0.637122  s :     0.637122
      pz      :     0.070096  p :     0.319035
      px      :     0.145739
      py      :     0.103200
 10 C s       :     2.691666  s :     2.691666
      pz      :     0.917044  p :     2.718159
      px      :     0.933155
      py      :     0.867960
      dz2     :     0.110613  d :     0.647268
      dxz     :     0.140844
      dyz     :     0.138672
      dx2y2   :     0.153637
      dxy     :     0.103502
 11 H s       :     0.715349  s :     0.715349
      pz      :     0.082586  p :     0.253232
      px      :     0.085878
      py      :     0.084768
 12 H s       :     0.713721  s :     0.713721
      pz      :     0.062372  p :     0.238636
      px      :     0.112530
      py      :     0.063733
 13 C s       :     2.697395  s :     2.697395
      pz      :     0.916787  p :     2.777966
      px      :     0.939948
      py      :     0.921230
      dz2     :     0.073555  d :     0.399552
      dxz     :     0.118614
      dyz     :     0.083149
      dx2y2   :     0.088457
      dxy     :     0.035777
 14 H s       :     0.721037  s :     0.721037
      pz      :     0.074033  p :     0.253231
      px      :     0.117299
      py      :     0.061899
 15 H s       :     0.713331  s :     0.713331
      pz      :     0.087293  p :     0.244056
      px      :     0.098436
      py      :     0.058328
 16 H s       :     0.734099  s :     0.734099
      pz      :     0.096666  p :     0.296877
      px      :     0.110153
      py      :     0.090058
 17 H s       :     0.725917  s :     0.725917
      pz      :     0.079288  p :     0.270576
      px      :     0.075095
      py      :     0.116193
 18 H s       :     0.729528  s :     0.729528
      pz      :     0.078492  p :     0.271851
      px      :     0.120849
      py      :     0.072509


                      *****************************
                      * MAYER POPULATION ANALYSIS *
                      *****************************

  NA   - Mulliken gross atomic population
  ZA   - Total nuclear charge
  QA   - Mulliken gross atomic charge
  VA   - Mayer's total valence
  BVA  - Mayer's bonded valence
  FA   - Mayer's free valence

  ATOM       NA         ZA         QA         VA         BVA        FA
  0 C      5.1489     6.0000     0.8511     3.7319     3.7319     0.0000
  1 N      7.2432     7.0000    -0.2432     4.2715     4.2715     0.0000
  2 C      5.0323     6.0000     0.9677     2.1579     2.1579     0.0000
  3 N      6.8812     7.0000     0.1188     3.8139     3.8139     0.0000
  4 N      6.7753     7.0000     0.2247     3.7883     3.7883     0.0000
  5 H      1.0720     1.0000    -0.0720     0.8599     0.8599     0.0000
  6 H      1.1933     1.0000    -0.1933     0.8568     0.8568    -0.0000
  7 H      1.1158     1.0000    -0.1158     0.7569     0.7569     0.0000
  8 H      1.0211     1.0000    -0.0211     0.8299     0.8299     0.0000
  9 H      1.1410     1.0000    -0.1410     0.9068     0.9068     0.0000
 10 C      6.1044     6.0000    -0.1044     5.1938     5.1938     0.0000
 11 H      1.2091     1.0000    -0.2091     0.9501     0.9501     0.0000
 12 H      1.3456     1.0000    -0.3456     0.9256     0.9256     0.0000
 13 C      4.9531     6.0000     1.0469     3.6083     3.6083     0.0000
 14 H      1.0902     1.0000    -0.0902     1.0073     1.0073    -0.0000
 15 H      1.1755     1.0000    -0.1755     1.0720     1.0720     0.0000
 16 H      1.2659     1.0000    -0.2659     1.1060     1.1060     0.0000
 17 H      1.1646     1.0000    -0.1646     0.8980     0.8980     0.0000
 18 H      1.0674     1.0000    -0.0674     0.9453     0.9453     0.0000

  Mayer bond orders larger than 0.100000
B(  0-C ,  1-N ) :   1.0471 B(  0-C ,  2-C ) :  -0.1080 B(  0-C ,  7-H ) :  -0.1469 
B(  0-C , 10-C ) :   1.0757 B(  0-C , 11-H ) :   0.8583 B(  0-C , 12-H ) :   0.6475 
B(  0-C , 15-H ) :   0.1289 B(  1-N ,  2-C ) :   1.1432 B(  1-N ,  3-N ) :   0.3181 
B(  1-N ,  4-N ) :   0.2083 B(  1-N ,  7-H ) :   1.1730 B(  1-N , 11-H ) :   0.1236 
B(  1-N , 12-H ) :   0.2946 B(  2-C ,  3-N ) :   0.8945 B(  2-C ,  4-N ) :   1.0554 
B(  2-C ,  5-H ) :  -0.1319 B(  2-C ,  6-H ) :  -0.1704 B(  2-C ,  7-H ) :  -0.2129 
B(  2-C ,  8-H ) :  -0.1506 B(  2-C ,  9-H ) :  -0.1710 B(  3-N ,  4-N ) :   0.1542 
B(  3-N ,  8-H ) :   1.1463 B(  3-N ,  9-H ) :   1.2972 B(  4-N ,  5-H ) :   1.0906 
B(  4-N ,  6-H ) :   1.2844 B(  5-H ,  6-H ) :  -0.2259 B(  8-H ,  9-H ) :  -0.1934 
B( 10-C , 11-H ) :   0.1125 B( 10-C , 12-H ) :   0.1423 B( 10-C , 13-C ) :   1.2968 
B( 10-C , 14-H ) :   0.8954 B( 10-C , 15-H ) :   0.9044 B( 10-C , 16-H ) :   0.2385 
B( 10-C , 17-H ) :   0.2468 B( 10-C , 18-H ) :   0.2339 B( 11-H , 12-H ) :  -0.1427 
B( 13-C , 16-H ) :   0.7364 B( 13-C , 17-H ) :   0.7237 B( 13-C , 18-H ) :   0.6883 
B( 16-H , 18-H ) :   0.1249 

-------
TIMINGS
-------

Total SCF time: 0 days 0 hours 0 min 18 sec 

Total time                  ....      18.916 sec
Sum of individual times     ....      18.690 sec  ( 98.8%)

Fock matrix formation       ....      17.485 sec  ( 92.4%)
  Split-RI-J                ....       0.964 sec  (  5.5% of F)
  Chain of spheres X        ....      13.736 sec  ( 78.6% of F)
  XC integration            ....       2.717 sec  ( 15.5% of F)
    Basis function eval.    ....       0.829 sec  ( 30.5% of XC)
    Density eval.           ....       0.680 sec  ( 25.0% of XC)
    XC-Functional eval.     ....       0.195 sec  (  7.2% of XC)
    XC-Potential eval.      ....       0.803 sec  ( 29.6% of XC)
Diagonalization             ....       0.078 sec  (  0.4%)
Density matrix formation    ....       0.006 sec  (  0.0%)
Population analysis         ....       0.011 sec  (  0.1%)
Initial guess               ....       0.129 sec  (  0.7%)
Orbital Transformation      ....       0.000 sec  (  0.0%)
Orbital Orthonormalization  ....       0.000 sec  (  0.0%)
DIIS solution               ....       0.044 sec  (  0.2%)
SOSCF solution              ....       0.056 sec  (  0.3%)
Grid generation             ....       0.881 sec  (  4.7%)

Maximum memory used throughout the entire SCF-calculation: 29.8 MB

-------------------------   --------------------
FINAL SINGLE POINT ENERGY      -322.649323261951
-------------------------   --------------------


                            ***************************************
                            *     ORCA property calculations      *
                            ***************************************

                                    ---------------------
                                    Active property flags
                                    ---------------------
   (+) Dipole Moment


------------------------------------------------------------------------------
                       ORCA ELECTRIC PROPERTIES CALCULATION
------------------------------------------------------------------------------

Dipole Moment Calculation                       ... on
Quadrupole Moment Calculation                   ... off
Polarizability Calculation                      ... off
GBWName                                         ... 14Feb_SVPD_LC_BLYP_A_wt_wb97_typ1_pos.gbw
Electron density file                           ... 14Feb_SVPD_LC_BLYP_A_wt_wb97_typ1_pos.scfp
The origin for moment calculation is the CENTER OF MASS  = ( 6.050071, -2.680398 -5.012134)

-------------
DIPOLE MOMENT
-------------
                                X             Y             Z
Electronic contribution:      3.88385      -4.89369      -2.31433
Nuclear contribution   :     -2.72963       4.05673       1.67650
                        -----------------------------------------
Total Dipole Moment    :      1.15422      -0.83695      -0.63783
                        -----------------------------------------
Magnitude (a.u.)       :      1.56190
Magnitude (Debye)      :      3.97004



--------------------
Rotational spectrum 
--------------------
 
Rotational constants in cm-1:     0.140891     0.054763     0.048590 
Rotational constants in MHz :  4223.814968  1641.764475  1456.690885 

 Dipole components along the rotational axes: 
x,y,z [a.u.] :    -1.558678    -0.091540    -0.041088 
x,y,z [Debye]:    -3.961843    -0.232676    -0.104437 

 

Timings for individual modules:

Sum of individual times         ...       19.545 sec (=   0.326 min)
GTO integral calculation        ...        0.416 sec (=   0.007 min)   2.1 %
SCF iterations                  ...       19.130 sec (=   0.319 min)  97.9 %
                             ****ORCA TERMINATED NORMALLY****
TOTAL RUN TIME: 0 days 0 hours 0 minutes 19 seconds 900 msec
