
                                        *****************
                                        * O   R   C   A *
                                        *****************

                                            #,                                       
                                            ###                                      
                                            ####                                     
                                            #####                                    
                                            ######                                   
                                           ########,                                 
                                     ,,################,,,,,                         
                               ,,#################################,,                 
                          ,,##########################################,,             
                       ,#########################################, ''#####,          
                    ,#############################################,,   '####,        
                  ,##################################################,,,,####,       
                ,###########''''           ''''###############################       
              ,#####''   ,,,,##########,,,,          '''####'''          '####       
            ,##' ,,,,###########################,,,                        '##       
           ' ,,###''''                  '''############,,,                           
         ,,##''                                '''############,,,,        ,,,,,,###''
      ,#''                                            '''#######################'''  
     '                                                          ''''####''''         
             ,#######,   #######,   ,#######,      ##                                
            ,#'     '#,  ##    ##  ,#'     '#,    #''#        ######   ,####,        
            ##       ##  ##   ,#'  ##            #'  '#       #        #'  '#        
            ##       ##  #######   ##           ,######,      #####,   #    #        
            '#,     ,#'  ##    ##  '#,     ,#' ,#      #,         ##   #,  ,#        
             '#######'   ##     ##  '#######'  #'      '#     #####' # '####'        



                  #######################################################
                  #                        -***-                        #
                  #          Department of theory and spectroscopy      #
                  #    Directorship and core code : Frank Neese         #
                  #        Max Planck Institute fuer Kohlenforschung    #
                  #                Kaiser Wilhelm Platz 1               #
                  #                 D-45470 Muelheim/Ruhr               #
                  #                      Germany                        #
                  #                                                     #
                  #                  All rights reserved                #
                  #                        -***-                        #
                  #######################################################


                         Program Version 5.0.0 -  RELEASE  -
                                (SVN: $Rev: 19529$)
                ($Date: 2021-06-28 11:36:33 +0200 (Mo, 28 Jun 2021) $)


 With contributions from (in alphabetic order):
   Daniel Aravena         : Magnetic Suceptibility
   Michael Atanasov       : Ab Initio Ligand Field Theory (pilot matlab implementation)
   Alexander A. Auer      : GIAO ZORA, VPT2 properties, NMR spectrum
   Ute Becker             : Parallelization
   Giovanni Bistoni       : ED, misc. LED, open-shell LED, HFLD
   Martin Brehm           : Molecular dynamics
   Dmytro Bykov           : SCF Hessian
   Vijay G. Chilkuri      : MRCI spin determinant printing, contributions to CSF-ICE
   Dipayan Datta          : RHF DLPNO-CCSD density
   Achintya Kumar Dutta   : EOM-CC, STEOM-CC
   Dmitry Ganyushin       : Spin-Orbit,Spin-Spin,Magnetic field MRCI
   Miquel Garcia          : C-PCM Hessian, Gaussian charge scheme
   Yang Guo               : DLPNO-NEVPT2, F12-NEVPT2, CIM, IAO-localization
   Andreas Hansen         : Spin unrestricted coupled pair/coupled cluster methods
   Benjamin Helmich-Paris : MC-RPA, TRAH-SCF, COSX integrals
   Lee Huntington         : MR-EOM, pCC
   Robert Izsak           : Overlap fitted RIJCOSX, COSX-SCS-MP3, EOM
   Marcus Kettner         : VPT2
   Christian Kollmar      : KDIIS, OOCD, Brueckner-CCSD(T), CCSD density, CASPT2, CASPT2-K
   Simone Kossmann        : Meta GGA functionals, TD-DFT gradient, OOMP2, MP2 Hessian
   Martin Krupicka        : Initial AUTO-CI
   Lucas Lang             : DCDCAS
   Marvin Lechner         : AUTO-CI (C++ implementation), FIC-MRCC
   Dagmar Lenk            : GEPOL surface, SMD
   Dimitrios Liakos       : Extrapolation schemes; Compound Job, initial MDCI parallelization
   Dimitrios Manganas     : Further ROCIS development; embedding schemes
   Dimitrios Pantazis     : SARC Basis sets
   Anastasios Papadopoulos: AUTO-CI, single reference methods and gradients
   Taras Petrenko         : DFT Hessian,TD-DFT gradient, ASA, ECA, R-Raman, ABS, FL, XAS/XES, NRVS
   Peter Pinski           : DLPNO-MP2, DLPNO-MP2 Gradient
   Christoph Reimann      : Effective Core Potentials
   Marius Retegan         : Local ZFS, SOC
   Christoph Riplinger    : Optimizer, TS searches, QM/MM, DLPNO-CCSD(T), (RO)-DLPNO pert. Triples
   Tobias Risthaus        : Range-separated hybrids, TD-DFT gradient, RPA, STAB
   Michael Roemelt        : Original ROCIS implementation
   Masaaki Saitow         : Open-shell DLPNO-CCSD energy and density
   Barbara Sandhoefer     : DKH picture change effects
   Avijit Sen             : IP-ROCIS
   Kantharuban Sivalingam : CASSCF convergence, NEVPT2, FIC-MRCI
   Bernardo de Souza      : ESD, SOC TD-DFT
   Georgi Stoychev        : AutoAux, RI-MP2 NMR
   Willem Van den Heuvel  : Paramagnetic NMR
   Boris Wezisla          : Elementary symmetry handling
   Frank Wennmohs         : Technical directorship


 We gratefully acknowledge several colleagues who have allowed us to
 interface, adapt or use parts of their codes:
   Stefan Grimme, W. Hujo, H. Kruse, P. Pracht,  : VdW corrections, initial TS optimization,
                  C. Bannwarth, S. Ehlert          DFT functionals, gCP, sTDA/sTD-DF
   Ed Valeev, F. Pavosevic, A. Kumar             : LibInt (2-el integral package), F12 methods
   Garnet Chan, S. Sharma, J. Yang, R. Olivares  : DMRG
   Ulf Ekstrom                                   : XCFun DFT Library
   Mihaly Kallay                                 : mrcc  (arbitrary order and MRCC methods)
   Jiri Pittner, Ondrej Demel                    : Mk-CCSD
   Frank Weinhold                                : gennbo (NPA and NBO analysis)
   Christopher J. Cramer and Donald G. Truhlar   : smd solvation model
   Lars Goerigk                                  : TD-DFT with DH, B97 family of functionals
   V. Asgeirsson, H. Jonsson                     : NEB implementation
   FAccTs GmbH                                   : IRC, NEB, NEB-TS, DLPNO-Multilevel, CI-OPT
                                                   MM, QMMM, 2- and 3-layer-ONIOM, Crystal-QMMM,
                                                   LR-CPCM, SF, NACMEs, symmetry and pop. for TD-DFT,
                                                   nearIR, NL-DFT gradient (VV10), updates on ESD,
                                                   ML-optimized integration grids
   S Lehtola, MJT Oliveira, MAL Marques          : LibXC Library
   Liviu Ungur et al                             : ANISO software


 Your calculation uses the libint2 library for the computation of 2-el integrals
 For citations please refer to: http://libint.valeyev.net

 Your ORCA version has been built with support for libXC version: 5.1.0
 For citations please refer to: https://tddft.org/programs/libxc/

 This ORCA versions uses:
   CBLAS   interface :  Fast vector & matrix operations
   LAPACKE interface :  Fast linear algebra routines
   SCALAPACK package :  Parallel linear algebra routines
   Shared memory     :  Shared parallel matrices
   BLAS/LAPACK       :  OpenBLAS 0.3.15  USE64BITINT DYNAMIC_ARCH NO_AFFINITY Haswell SINGLE_THREADED
        Core in use  :  Haswell
   Copyright (c) 2011-2014, The OpenBLAS Project


Your calculation utilizes the atom-pairwise dispersion correction
with the Becke-Johnson damping scheme (D3BJ)
Cite in your paper:
S.Grimme, S.Ehrlich, L.Goerigk, J Comput Chem, (2011), 32, 1456–1465 
S.Grimme, J.Antony, S.Ehrlich and H.Krieg, J.Chem.Phys., 132, (2010), 154104 
   

================================================================================

----- Orbital basis set information -----
Your calculation utilizes the basis: def2-TZVP
   F. Weigend and R. Ahlrichs, Phys. Chem. Chem. Phys. 7, 3297 (2005).

----- AuxJ basis set information -----
Your calculation utilizes the auxiliary basis: def2/J
   F. Weigend, Phys. Chem. Chem. Phys. 8, 1057 (2006).

================================================================================
                                        WARNINGS
                       Please study these warnings very carefully!
================================================================================



WARNING: Found flag for RIJCOSX approximation but no HF exchange needed!
  ===> : RIJCOSX  will be disabled and Split-RI-J is turned on

INFO   : the flag for use of the SHARK integral package has been found!

================================================================================
                                       INPUT FILE
================================================================================
NAME = TZVP_BLYP_A_wt_dlpno_pos.com
|  1> !BLYP D3BJ RIJCOSX def2-TZVP def2/J TightSCF
|  2> *xyz 1 1
|  3> C          4.99986       -1.59613       -5.92488
|  4> N          5.28156       -1.97413       -4.53576
|  5> C          3.76678       -2.26611       -6.51175
|  6> C          4.79250       -1.36132       -3.45730
|  7> N          3.93990       -0.37492       -3.55736
|  8> N          5.25986       -1.75422       -2.23913
|  9> H          5.92282       -2.52145       -2.18672
| 10> H          4.65468       -1.64040       -1.44202
| 11> H          5.70914       -2.87560       -4.38702
| 12> H          3.33010       -0.31764       -4.36125
| 13> H          3.69849        0.11447       -2.70833
| 14> H          4.84333       -0.51793       -5.94302
| 15> H          5.90170       -1.82250       -6.49647
| 16> H          3.63046       -1.94025       -7.52177
| 17> H          2.90710       -2.00116       -5.93240
| 18> H          3.89538       -3.32820       -6.49392
| 19> *
| 20> 
| 21> %MaxCore 64000
| 22> 
| 23> %pal nprocs 4
| 24> end  
| 25> 
| 26> %scf
| 27>   MaxIter 150
| 28> end
| 29> 
| 30> 
| 31>                          ****END OF INPUT****
================================================================================

                       ****************************
                       * Single Point Calculation *
                       ****************************

---------------------------------
CARTESIAN COORDINATES (ANGSTROEM)
---------------------------------
  C      4.999860   -1.596130   -5.924880
  N      5.281560   -1.974130   -4.535760
  C      3.766780   -2.266110   -6.511750
  C      4.792500   -1.361320   -3.457300
  N      3.939900   -0.374920   -3.557360
  N      5.259860   -1.754220   -2.239130
  H      5.922820   -2.521450   -2.186720
  H      4.654680   -1.640400   -1.442020
  H      5.709140   -2.875600   -4.387020
  H      3.330100   -0.317640   -4.361250
  H      3.698490    0.114470   -2.708330
  H      4.843330   -0.517930   -5.943020
  H      5.901700   -1.822500   -6.496470
  H      3.630460   -1.940250   -7.521770
  H      2.907100   -2.001160   -5.932400
  H      3.895380   -3.328200   -6.493920

----------------------------
CARTESIAN COORDINATES (A.U.)
----------------------------
  NO LB      ZA    FRAG     MASS         X           Y           Z
   0 C     6.0000    0    12.011    9.448366   -3.016249  -11.196401
   1 N     7.0000    0    14.007    9.980702   -3.730565   -8.571344
   2 C     6.0000    0    12.011    7.118183   -4.282327  -12.305424
   3 C     6.0000    0    12.011    9.056512   -2.572522   -6.533350
   4 N     7.0000    0    14.007    7.445332   -0.708496   -6.722436
   5 N     7.0000    0    14.007    9.939695   -3.314995   -4.231342
   6 H     1.0000    0     1.008   11.192508   -4.764850   -4.132302
   7 H     1.0000    0     1.008    8.796070   -3.099907   -2.725023
   8 H     1.0000    0     1.008   10.788711   -5.434096   -8.290266
   9 H     1.0000    0     1.008    6.292977   -0.600253   -8.241568
  10 H     1.0000    0     1.008    6.989133    0.216317   -5.118002
  11 H     1.0000    0     1.008    9.152567   -0.978746  -11.230680
  12 H     1.0000    0     1.008   11.152597   -3.444026  -12.276549
  13 H     1.0000    0     1.008    6.860575   -3.666541  -14.214085
  14 H     1.0000    0     1.008    5.493623   -3.781644  -11.210611
  15 H     1.0000    0     1.008    7.361201   -6.289387  -12.271730

--------------------------------
INTERNAL COORDINATES (ANGSTROEM)
--------------------------------
 C      0   0   0     0.000000000000     0.00000000     0.00000000
 N      1   0   0     1.466933285600     0.00000000     0.00000000
 C      1   2   0     1.521110082703   114.04948771     0.00000000
 C      2   1   3     1.333338573394   125.24465126   271.38369046
 N      4   2   1     1.307640517726   121.59821647     3.37662360
 N      4   2   1     1.362620243685   117.69524840   186.46465187
 H      6   4   2     1.015334744112   119.20799220   357.06852641
 H      6   4   2     1.007264700513   117.95745335   207.37675318
 H      2   1   3     1.008759835095   116.82696572    77.45307476
 H      5   4   2     1.010631570109   119.80406451    27.35455603
 H      5   4   2     1.009273650255   117.21677800   187.25423597
 H      1   2   3     1.089654046246   107.35684638   119.90287312
 H      1   2   3     1.091454942084   106.48717401   235.80932251
 H      3   1   2     1.070003870273   109.47095908   179.99985773
 H      3   1   2     1.069997489436   109.47166455    60.00019566
 H      3   1   2     1.069995811674   109.47174109   299.99994061

---------------------------
INTERNAL COORDINATES (A.U.)
---------------------------
 C      0   0   0     0.000000000000     0.00000000     0.00000000
 N      1   0   0     2.772102166517     0.00000000     0.00000000
 C      1   2   0     2.874481475855   114.04948771     0.00000000
 C      2   1   3     2.519644747508   125.24465126   271.38369046
 N      4   2   1     2.471082460122   121.59821647     3.37662360
 N      4   2   1     2.574979085102   117.69524840   186.46465187
 H      6   4   2     1.918704600626   119.20799220   357.06852641
 H      6   4   2     1.903454428336   117.95745335   207.37675318
 H      2   1   3     1.906279823228   116.82696572    77.45307476
 H      5   4   2     1.909816889800   119.80406451    27.35455603
 H      5   4   2     1.907250793166   117.21677800   187.25423597
 H      1   2   3     2.059147728124   107.35684638   119.90287312
 H      1   2   3     2.062550928054   106.48717401   235.80932251
 H      3   1   2     2.022014277052   109.47095908   179.99985773
 H      3   1   2     2.022002219018   109.47166455    60.00019566
 H      3   1   2     2.021999048507   109.47174109   299.99994061

---------------------
BASIS SET INFORMATION
---------------------
There are 3 groups of distinct atoms

 Group   1 Type C   : 11s6p2d1f contracted to 5s3p2d1f pattern {62111/411/11/1}
 Group   2 Type N   : 11s6p2d1f contracted to 5s3p2d1f pattern {62111/411/11/1}
 Group   3 Type H   : 5s1p contracted to 3s1p pattern {311/1}

Atom   0C    basis set group =>   1
Atom   1N    basis set group =>   2
Atom   2C    basis set group =>   1
Atom   3C    basis set group =>   1
Atom   4N    basis set group =>   2
Atom   5N    basis set group =>   2
Atom   6H    basis set group =>   3
Atom   7H    basis set group =>   3
Atom   8H    basis set group =>   3
Atom   9H    basis set group =>   3
Atom  10H    basis set group =>   3
Atom  11H    basis set group =>   3
Atom  12H    basis set group =>   3
Atom  13H    basis set group =>   3
Atom  14H    basis set group =>   3
Atom  15H    basis set group =>   3
---------------------------------
AUXILIARY/J BASIS SET INFORMATION
---------------------------------
There are 3 groups of distinct atoms

 Group   1 Type C   : 12s5p4d2f1g contracted to 6s4p3d1f1g pattern {711111/2111/211/2/1}
 Group   2 Type N   : 12s5p4d2f1g contracted to 6s4p3d1f1g pattern {711111/2111/211/2/1}
 Group   3 Type H   : 5s2p1d contracted to 3s1p1d pattern {311/2/1}

Atom   0C    basis set group =>   1
Atom   1N    basis set group =>   2
Atom   2C    basis set group =>   1
Atom   3C    basis set group =>   1
Atom   4N    basis set group =>   2
Atom   5N    basis set group =>   2
Atom   6H    basis set group =>   3
Atom   7H    basis set group =>   3
Atom   8H    basis set group =>   3
Atom   9H    basis set group =>   3
Atom  10H    basis set group =>   3
Atom  11H    basis set group =>   3
Atom  12H    basis set group =>   3
Atom  13H    basis set group =>   3
Atom  14H    basis set group =>   3
Atom  15H    basis set group =>   3


           ************************************************************
           *        Program running with 4 parallel MPI-processes     *
           *              working on a common directory               *
           ************************************************************
------------------------------------------------------------------------------
                           ORCA GTO INTEGRAL CALCULATION
                           -- RI-GTO INTEGRALS CHOSEN --
------------------------------------------------------------------------------
------------------------------------------------------------------------------
                   ___                                                        
                  /   \      - P O W E R E D   B Y -                         
                 /     \                                                     
                 |  |  |   _    _      __       _____    __    __             
                 |  |  |  | |  | |    /  \     |  _  \  |  |  /  |          
                  \  \/   | |  | |   /    \    | | | |  |  | /  /          
                 / \  \   | |__| |  /  /\  \   | |_| |  |  |/  /          
                |  |  |   |  __  | /  /__\  \  |    /   |      \           
                |  |  |   | |  | | |   __   |  |    \   |  |\   \          
                \     /   | |  | | |  |  |  |  | |\  \  |  | \   \       
                 \___/    |_|  |_| |__|  |__|  |_| \__\ |__|  \__/        
                                                                              
                      - O R C A' S   B I G   F R I E N D -                    
                                      &                                       
                       - I N T E G R A L  F E E D E R -                       
                                                                              
 v1 FN, 2020, v2 2021                                                         
------------------------------------------------------------------------------


Reading SHARK input file TZVP_BLYP_A_wt_dlpno_pos.SHARKINP.tmp ... ok
----------------------
SHARK INTEGRAL PACKAGE
----------------------

Number of atoms                             ...     16
Number of basis functions                   ...    246
Number of shells                            ...    106
Maximum angular momentum                    ...      3
Integral batch strategy                     ... SHARK/LIBINT Hybrid
RI-J (if used) integral strategy            ... SPLIT-RIJ (Revised 2003 algorithm where possible)
Printlevel                                  ...      1
Contraction scheme used                     ... SEGMENTED contraction
Coulomb Range Separation                    ... NOT USED
Exchange Range Separation                   ... NOT USED
Finite Nucleus Model                        ... NOT USED
Auxiliary Coulomb fitting basis             ... AVAILABLE
   # of basis functions in Aux-J            ...    404
   # of shells in Aux-J                     ...    140
   Maximum angular momentum in Aux-J        ...      4
Auxiliary J/K fitting basis                 ... NOT available
Auxiliary Correlation fitting basis         ... NOT available
Auxiliary 'external' fitting basis          ... NOT available
Integral threshold                          ...     2.500000e-11
Primitive cut-off                           ...     2.500000e-12
Primitive pair pre-selection threshold      ...     2.500000e-12

Calculating pre-screening integrals         ... done (  0.1 sec) Dimension = 106
Organizing shell pair data                  ... done (  0.1 sec)
Shell pair information
Total number of shell pairs                 ...      5671
Shell pairs after pre-screening             ...      5310
Total number of primitive shell pairs       ...     16452
Primitive shell pairs kept                  ...     11961
          la=0 lb=0:   1674 shell pairs
          la=1 lb=0:   1576 shell pairs
          la=1 lb=1:    387 shell pairs
          la=2 lb=0:    679 shell pairs
          la=2 lb=1:    323 shell pairs
          la=2 lb=2:     77 shell pairs
          la=3 lb=0:    340 shell pairs
          la=3 lb=1:    163 shell pairs
          la=3 lb=2:     70 shell pairs
          la=3 lb=3:     21 shell pairs

Calculating one electron integrals          ... done (  0.0 sec)
Calculating RI/J V-Matrix + Cholesky decomp.... done (  0.0 sec)
Calculating Nuclear repulsion               ... done (  0.0 sec) ENN=    258.610476340255 Eh

SHARK setup successfully completed in   0.2 seconds

Maximum memory used throughout the entire GTOINT-calculation: 13.9 MB


           ************************************************************
           *        Program running with 4 parallel MPI-processes     *
           *              working on a common directory               *
           ************************************************************
-------------------------------------------------------------------------------
                                 ORCA SCF
-------------------------------------------------------------------------------

------------
SCF SETTINGS
------------
Hamiltonian:
 Density Functional     Method          .... DFT(GTOs)
 Exchange Functional    Exchange        .... B88
   X-Alpha parameter    XAlpha          ....  0.666667
   Becke's b parameter  XBeta           ....  0.004200
 Correlation Functional Correlation     .... LYP
 Gradients option       PostSCFGGA      .... off
   Density functional embedding theory  .... OFF
   NL short-range parameter             ....  4.000000
 RI-approximation to the Coulomb term is turned on
   Number of AuxJ basis functions       .... 404


General Settings:
 Integral files         IntName         .... TZVP_BLYP_A_wt_dlpno_pos
 Hartree-Fock type      HFTyp           .... RHF
 Total Charge           Charge          ....    1
 Multiplicity           Mult            ....    1
 Number of Electrons    NEL             ....   48
 Basis Dimension        Dim             ....  246
 Nuclear Repulsion      ENuc            ....    258.6104763403 Eh

Convergence Acceleration:
 DIIS                   CNVDIIS         .... on
   Start iteration      DIISMaxIt       ....    12
   Startup error        DIISStart       ....  0.200000
   # of expansion vecs  DIISMaxEq       ....     5
   Bias factor          DIISBfac        ....   1.050
   Max. coefficient     DIISMaxC        ....  10.000
 Trust-Rad. Augm. Hess. CNVTRAH         .... auto
   Auto Start mean grad. ratio tolernc. ....  1.125000
   Auto Start start iteration           ....    20
   Auto Start num. interpolation iter.  ....    10
   Max. Number of Micro iterations      ....    16
   Max. Number of Macro iterations      .... Maxiter - #DIIS iter
   Number of Davidson start vectors     ....     2
   Converg. threshold I  (grad. norm)   ....   1.000e-05
   Converg. threshold II (energy diff.) ....   1.000e-08
   Grad. Scal. Fac. for Micro threshold ....   0.100
   Minimum threshold for Micro iter.    ....   0.010
   NR start threshold (gradient norm)   ....   0.001
   Initial trust radius                 ....   0.400
   Minimum AH scaling param. (alpha)    ....   1.000
   Maximum AH scaling param. (alpha)    .... 1000.000
   Orbital update algorithm             .... Taylor
   White noise on init. David. guess    .... on
   Maximum white noise                  ....   0.010
   Quad. conv. algorithm                .... NR
 SOSCF                  CNVSOSCF        .... on
   Start iteration      SOSCFMaxIt      ....   150
   Startup grad/error   SOSCFStart      ....  0.003300
 Level Shifting         CNVShift        .... on
   Level shift para.    LevelShift      ....    0.2500
   Turn off err/grad.   ShiftErr        ....    0.0010
 Zerner damping         CNVZerner       .... off
 Static damping         CNVDamp         .... on
   Fraction old density DampFac         ....    0.7000
   Max. Damping (<1)    DampMax         ....    0.9800
   Min. Damping (>=0)   DampMin         ....    0.0000
   Turn off err/grad.   DampErr         ....    0.1000
 Fernandez-Rico         CNVRico         .... off

SCF Procedure:
 Maximum # iterations   MaxIter         ....   150
 SCF integral mode      SCFMode         .... Direct
   Integral package                     .... SHARK and LIBINT hybrid scheme
 Reset frequency        DirectResetFreq ....    20
 Integral Threshold     Thresh          ....  2.500e-11 Eh
 Primitive CutOff       TCut            ....  2.500e-12 Eh

Convergence Tolerance:
 Convergence Check Mode ConvCheckMode   .... Total+1el-Energy
 Convergence forced     ConvForced      .... 0
 Energy Change          TolE            ....  1.000e-08 Eh
 1-El. energy change                    ....  1.000e-05 Eh
 Orbital Gradient       TolG            ....  1.000e-05
 Orbital Rotation angle TolX            ....  1.000e-05
 DIIS Error             TolErr          ....  5.000e-07


Diagonalization of the overlap matrix:
Smallest eigenvalue                        ... 2.972e-04
Time for diagonalization                   ...    0.013 sec
Threshold for overlap eigenvalues          ... 1.000e-08
Number of eigenvalues below threshold      ... 0
Time for construction of square roots      ...    0.010 sec
Total time needed                          ...    0.024 sec

Time for model grid setup =    0.106 sec

------------------------------
INITIAL GUESS: MODEL POTENTIAL
------------------------------
Loading Hartree-Fock densities                     ... done
Calculating cut-offs                               ... done
Initializing the effective Hamiltonian             ... done
Setting up the integral package (SHARK)            ... done
Starting the Coulomb interaction                   ... done (   0.1 sec)
Reading the grid                                   ... done
Mapping shells                                     ... done
Starting the XC term evaluation                    ... done (   0.1 sec)
  promolecular density results
     # of electrons  =     48.993095699
     EX              =    -38.217555381
     EC              =     -1.624762749
     EX+EC           =    -39.842318131
Transforming the Hamiltonian                       ... done (   0.0 sec)
Diagonalizing the Hamiltonian                      ... done (   0.0 sec)
Back transforming the eigenvectors                 ... done (   0.0 sec)
Now organizing SCF variables                       ... done
                      ------------------
                      INITIAL GUESS DONE (   0.3 sec)
                      ------------------
-------------------
DFT GRID GENERATION
-------------------

General Integration Accuracy     IntAcc      ... 4.388
Radial Grid Type                 RadialGrid  ... OptM3 with GC (2021)
Angular Grid (max. ang.)         AngularGrid ... 4 (Lebedev-302)
Angular grid pruning method      GridPruning ... 4 (adaptive)
Weight generation scheme         WeightScheme... Becke
Basis function cutoff            BFCut       ... 1.0000e-11
Integration weight cutoff        WCut        ... 1.0000e-14
Angular grids for H and He will be reduced by one unit
Partially contracted basis set               ... off
Rotationally invariant grid construction     ... off

Total number of grid points                  ...    68425
Total number of batches                      ...     1079
Average number of points per batch           ...       63
Average number of grid points per atom       ...     4277
Time for grid setup =    0.454 sec

--------------
SCF ITERATIONS
--------------
ITER       Energy         Delta-E        Max-DP      RMS-DP      [F,P]     Damp
               ***  Starting incremental Fock matrix formation  ***
  0   -284.1429049919   0.000000000000 0.04275244  0.00116498  0.2303443 0.7000
  1   -284.2634320645  -0.120527072586 0.02718785  0.00077118  0.0947551 0.7000
                               ***Turning on DIIS***
  2   -284.3019402257  -0.038508161166 0.03403262  0.00110203  0.0219527 0.0000
  3   -284.3636589811  -0.061718755435 0.01489598  0.00047460  0.0570250 0.0000
  4   -284.3802368881  -0.016577906926 0.00564279  0.00016923  0.0138067 0.0000
  5   -284.3811725002  -0.000935612186 0.00213254  0.00006414  0.0036488 0.0000
                      *** Initiating the SOSCF procedure ***
                           *** Shutting down DIIS ***
                      *** Re-Reading the Fockian *** 
                      *** Removing any level shift *** 
ITER      Energy       Delta-E        Grad      Rot      Max-DP    RMS-DP
  6   -284.38125425  -0.0000817465  0.000316  0.000316  0.001193  0.000043
               *** Restarting incremental Fock matrix formation ***
  7   -284.38126079  -0.0000065438  0.000100  0.000257  0.000328  0.000009
  8   -284.38125992   0.0000008738  0.000157  0.000253  0.000210  0.000005
  9   -284.38126135  -0.0000014289  0.000040  0.000150  0.000084  0.000002
 10   -284.38126129   0.0000000542  0.000071  0.000099  0.000059  0.000001
 11   -284.38126137  -0.0000000782  0.000006  0.000016  0.000011  0.000000
 12   -284.38126137   0.0000000013  0.000011  0.000012  0.000008  0.000000
                  ***Gradient check signals convergence***
              ***Rediagonalizing the Fockian in SOSCF/NRSCF***

               *****************************************************
               *                     SUCCESS                       *
               *           SCF CONVERGED AFTER  13 CYCLES          *
               *****************************************************


----------------
TOTAL SCF ENERGY
----------------

Total Energy       :         -284.38126137 Eh           -7738.40753 eV

Components:
Nuclear Repulsion  :          258.61047634 Eh            7037.14882 eV
Electronic Energy  :         -542.99173771 Eh          -14775.55636 eV
One Electron Energy:         -886.23880795 Eh          -24115.78399 eV
Two Electron Energy:          343.24707024 Eh            9340.22763 eV

Virial components:
Potential Energy   :         -568.00415713 Eh          -15456.17889 eV
Kinetic Energy     :          283.62289576 Eh            7717.77136 eV
Virial Ratio       :            2.00267385


DFT components:
N(Alpha)           :       24.000005369609 electrons
N(Beta)            :       24.000005369609 electrons
N(Total)           :       48.000010739217 electrons
E(X)               :      -38.929384042768 Eh       
E(C)               :       -1.609412674994 Eh       
E(XC)              :      -40.538796717762 Eh       
DFET-embed. en.    :        0.000000000000 Eh       

---------------
SCF CONVERGENCE
---------------

  Last Energy change         ...   -2.5943e-09  Tolerance :   1.0000e-08
  Last MAX-Density change    ...    2.5938e-06  Tolerance :   1.0000e-07
  Last RMS-Density change    ...    8.1763e-08  Tolerance :   5.0000e-09
  Last Orbital Gradient      ...    9.6591e-07  Tolerance :   1.0000e-05
  Last Orbital Rotation      ...    1.9102e-06  Tolerance :   1.0000e-05

             **** THE GBW FILE WAS UPDATED (TZVP_BLYP_A_wt_dlpno_pos.gbw) ****
             **** DENSITY TZVP_BLYP_A_wt_dlpno_pos.scfp WAS UPDATED ****
             **** ENERGY FILE WAS UPDATED (TZVP_BLYP_A_wt_dlpno_pos.en.tmp) ****
             **** THE GBW FILE WAS UPDATED (TZVP_BLYP_A_wt_dlpno_pos.gbw) ****
             **** DENSITY TZVP_BLYP_A_wt_dlpno_pos.scfp WAS UPDATED ****
----------------
ORBITAL ENERGIES
----------------

  NO   OCC          E(Eh)            E(eV) 
   0   2.0000     -14.230607      -387.2345 
   1   2.0000     -14.226824      -387.1316 
   2   2.0000     -14.221679      -386.9916 
   3   2.0000     -10.228416      -278.3294 
   4   2.0000     -10.109159      -275.0842 
   5   2.0000     -10.043699      -273.3029 
   6   2.0000      -1.120865       -30.5003 
   7   2.0000      -1.020101       -27.7584 
   8   2.0000      -1.005712       -27.3668 
   9   2.0000      -0.855026       -23.2664 
  10   2.0000      -0.775504       -21.1025 
  11   2.0000      -0.738119       -20.0852 
  12   2.0000      -0.728170       -19.8145 
  13   2.0000      -0.680979       -18.5304 
  14   2.0000      -0.642260       -17.4768 
  15   2.0000      -0.639150       -17.3922 
  16   2.0000      -0.590446       -16.0669 
  17   2.0000      -0.574153       -15.6235 
  18   2.0000      -0.556069       -15.1314 
  19   2.0000      -0.512805       -13.9541 
  20   2.0000      -0.488043       -13.2803 
  21   2.0000      -0.470412       -12.8006 
  22   2.0000      -0.434228       -11.8159 
  23   2.0000      -0.409261       -11.1365 
  24   0.0000      -0.203304        -5.5322 
  25   0.0000      -0.173993        -4.7346 
  26   0.0000      -0.144209        -3.9241 
  27   0.0000      -0.131755        -3.5852 
  28   0.0000      -0.117156        -3.1880 
  29   0.0000      -0.091702        -2.4953 
  30   0.0000      -0.077079        -2.0974 
  31   0.0000      -0.065689        -1.7875 
  32   0.0000      -0.061637        -1.6772 
  33   0.0000      -0.053006        -1.4424 
  34   0.0000      -0.035780        -0.9736 
  35   0.0000      -0.025361        -0.6901 
  36   0.0000      -0.012197        -0.3319 
  37   0.0000       0.010756         0.2927 
  38   0.0000       0.026822         0.7299 
  39   0.0000       0.035462         0.9650 
  40   0.0000       0.049081         1.3356 
  41   0.0000       0.060179         1.6375 
  42   0.0000       0.068981         1.8771 
  43   0.0000       0.081888         2.2283 
  44   0.0000       0.085600         2.3293 
  45   0.0000       0.104458         2.8424 
  46   0.0000       0.126181         3.4336 
  47   0.0000       0.130619         3.5543 
  48   0.0000       0.146310         3.9813 
  49   0.0000       0.166011         4.5174 
  50   0.0000       0.177881         4.8404 
  51   0.0000       0.199543         5.4298 
  52   0.0000       0.218870         5.9558 
  53   0.0000       0.236424         6.4334 
  54   0.0000       0.247321         6.7300 
  55   0.0000       0.255282         6.9466 
  56   0.0000       0.268998         7.3198 
  57   0.0000       0.271104         7.3771 
  58   0.0000       0.272920         7.4265 
  59   0.0000       0.280445         7.6313 
  60   0.0000       0.288035         7.8378 
  61   0.0000       0.309424         8.4198 
  62   0.0000       0.311663         8.4808 
  63   0.0000       0.323652         8.8070 
  64   0.0000       0.331785         9.0283 
  65   0.0000       0.350802         9.5458 
  66   0.0000       0.367391         9.9972 
  67   0.0000       0.389516        10.5993 
  68   0.0000       0.398896        10.8545 
  69   0.0000       0.420658        11.4467 
  70   0.0000       0.447681        12.1820 
  71   0.0000       0.472647        12.8614 
  72   0.0000       0.492207        13.3936 
  73   0.0000       0.500730        13.6256 
  74   0.0000       0.518669        14.1137 
  75   0.0000       0.542355        14.7582 
  76   0.0000       0.610473        16.6118 
  77   0.0000       0.657497        17.8914 
  78   0.0000       0.674781        18.3617 
  79   0.0000       0.683497        18.5989 
  80   0.0000       0.736717        20.0471 
  81   0.0000       0.758081        20.6284 
  82   0.0000       0.776754        21.1365 
  83   0.0000       0.804618        21.8948 
  84   0.0000       0.864795        23.5323 
  85   0.0000       0.878193        23.8968 
  86   0.0000       0.892599        24.2889 
  87   0.0000       0.918370        24.9901 
  88   0.0000       0.942413        25.6444 
  89   0.0000       0.961641        26.1676 
  90   0.0000       0.978114        26.6158 
  91   0.0000       0.999987        27.2110 
  92   0.0000       1.068166        29.0663 
  93   0.0000       1.092438        29.7267 
  94   0.0000       1.127614        30.6839 
  95   0.0000       1.136481        30.9252 
  96   0.0000       1.190556        32.3967 
  97   0.0000       1.203527        32.7496 
  98   0.0000       1.234245        33.5855 
  99   0.0000       1.258412        34.2431 
 100   0.0000       1.275964        34.7207 
 101   0.0000       1.294899        35.2360 
 102   0.0000       1.299489        35.3609 
 103   0.0000       1.314403        35.7667 
 104   0.0000       1.319026        35.8925 
 105   0.0000       1.336973        36.3809 
 106   0.0000       1.352682        36.8083 
 107   0.0000       1.359355        36.9899 
 108   0.0000       1.381063        37.5806 
 109   0.0000       1.396890        38.0113 
 110   0.0000       1.408300        38.3218 
 111   0.0000       1.419997        38.6401 
 112   0.0000       1.445619        39.3373 
 113   0.0000       1.467547        39.9340 
 114   0.0000       1.484770        40.4027 
 115   0.0000       1.544391        42.0250 
 116   0.0000       1.554369        42.2965 
 117   0.0000       1.571145        42.7530 
 118   0.0000       1.595485        43.4154 
 119   0.0000       1.615313        43.9549 
 120   0.0000       1.621103        44.1125 
 121   0.0000       1.662521        45.2395 
 122   0.0000       1.691887        46.0386 
 123   0.0000       1.724431        46.9242 
 124   0.0000       1.732244        47.1368 
 125   0.0000       1.742852        47.4254 
 126   0.0000       1.822160        49.5835 
 127   0.0000       1.843814        50.1727 
 128   0.0000       1.855380        50.4875 
 129   0.0000       1.880685        51.1760 
 130   0.0000       1.919462        52.2312 
 131   0.0000       1.963922        53.4410 
 132   0.0000       2.005957        54.5849 
 133   0.0000       2.043260        55.5999 
 134   0.0000       2.045385        55.6578 
 135   0.0000       2.063660        56.1551 
 136   0.0000       2.089893        56.8689 
 137   0.0000       2.116779        57.6005 
 138   0.0000       2.124369        57.8070 
 139   0.0000       2.144939        58.3668 
 140   0.0000       2.167984        58.9938 
 141   0.0000       2.185128        59.4604 
 142   0.0000       2.189745        59.5860 
 143   0.0000       2.269292        61.7506 
 144   0.0000       2.271273        61.8045 
 145   0.0000       2.289869        62.3105 
 146   0.0000       2.312819        62.9350 
 147   0.0000       2.328640        63.3655 
 148   0.0000       2.360115        64.2220 
 149   0.0000       2.387312        64.9621 
 150   0.0000       2.395840        65.1941 
 151   0.0000       2.406603        65.4870 
 152   0.0000       2.421634        65.8960 
 153   0.0000       2.441361        66.4328 
 154   0.0000       2.479659        67.4750 
 155   0.0000       2.527384        68.7736 
 156   0.0000       2.555028        69.5259 
 157   0.0000       2.563203        69.7483 
 158   0.0000       2.643424        71.9312 
 159   0.0000       2.649095        72.0856 
 160   0.0000       2.681174        72.9584 
 161   0.0000       2.692192        73.2583 
 162   0.0000       2.742757        74.6342 
 163   0.0000       2.755780        74.9886 
 164   0.0000       2.787818        75.8604 
 165   0.0000       2.822457        76.8029 
 166   0.0000       2.851473        77.5925 
 167   0.0000       2.871862        78.1473 
 168   0.0000       2.874025        78.2062 
 169   0.0000       2.896123        78.8075 
 170   0.0000       2.924369        79.5761 
 171   0.0000       2.944320        80.1190 
 172   0.0000       2.947144        80.1959 
 173   0.0000       2.992712        81.4358 
 174   0.0000       3.001519        81.6755 
 175   0.0000       3.042087        82.7794 
 176   0.0000       3.064838        83.3985 
 177   0.0000       3.074184        83.6528 
 178   0.0000       3.111589        84.6706 
 179   0.0000       3.137578        85.3778 
 180   0.0000       3.195413        86.9516 
 181   0.0000       3.205540        87.2272 
 182   0.0000       3.252816        88.5136 
 183   0.0000       3.297402        89.7269 
 184   0.0000       3.333680        90.7140 
 185   0.0000       3.347647        91.0941 
 186   0.0000       3.373305        91.7923 
 187   0.0000       3.444390        93.7266 
 188   0.0000       3.458453        94.1093 
 189   0.0000       3.497269        95.1655 
 190   0.0000       3.519942        95.7825 
 191   0.0000       3.536935        96.2449 
 192   0.0000       3.573809        97.2483 
 193   0.0000       3.626059        98.6701 
 194   0.0000       3.646565        99.2281 
 195   0.0000       3.686229       100.3074 
 196   0.0000       3.750727       102.0625 
 197   0.0000       3.853611       104.8621 
 198   0.0000       3.950529       107.4994 
 199   0.0000       3.986470       108.4774 
 200   0.0000       4.015477       109.2667 
 201   0.0000       4.094270       111.4108 
 202   0.0000       4.123855       112.2158 
 203   0.0000       4.144597       112.7802 
 204   0.0000       4.174397       113.5911 
 205   0.0000       4.216480       114.7363 
 206   0.0000       4.240652       115.3940 
 207   0.0000       4.314032       117.3908 
 208   0.0000       4.354003       118.4785 
 209   0.0000       4.382377       119.2505 
 210   0.0000       4.419962       120.2733 
 211   0.0000       4.437658       120.7548 
 212   0.0000       4.455528       121.2411 
 213   0.0000       4.475088       121.7733 
 214   0.0000       4.518170       122.9457 
 215   0.0000       4.548635       123.7747 
 216   0.0000       4.586570       124.8069 
 217   0.0000       4.644971       126.3961 
 218   0.0000       4.695240       127.7640 
 219   0.0000       4.723379       128.5297 
 220   0.0000       4.758947       129.4975 
 221   0.0000       4.774331       129.9162 
 222   0.0000       4.802897       130.6935 
 223   0.0000       4.837609       131.6380 
 224   0.0000       4.874934       132.6537 
 225   0.0000       4.904302       133.4528 
 226   0.0000       4.911188       133.6402 
 227   0.0000       4.957626       134.9039 
 228   0.0000       4.999779       136.0509 
 229   0.0000       5.050673       137.4358 
 230   0.0000       5.064524       137.8127 
 231   0.0000       5.147484       140.0702 
 232   0.0000       5.190108       141.2300 
 233   0.0000       5.237197       142.5114 
 234   0.0000       5.338020       145.2549 
 235   0.0000       5.385511       146.5472 
 236   0.0000       5.614445       152.7768 
 237   0.0000       5.681756       154.6084 
 238   0.0000       5.748311       156.4195 
 239   0.0000       5.969692       162.4436 
 240   0.0000      21.945349       597.1633 
 241   0.0000      22.043629       599.8376 
 242   0.0000      22.819476       620.9495 
 243   0.0000      31.349981       853.0764 
 244   0.0000      31.460389       856.0807 
 245   0.0000      31.992307       870.5549 

                    ********************************
                    * MULLIKEN POPULATION ANALYSIS *
                    ********************************

-----------------------
MULLIKEN ATOMIC CHARGES
-----------------------
   0 C :   -0.175053
   1 N :   -0.219605
   2 C :   -0.248808
   3 C :    0.421949
   4 N :   -0.337539
   5 N :   -0.377359
   6 H :    0.258231
   7 H :    0.257792
   8 H :    0.231108
   9 H :    0.271200
  10 H :    0.259352
  11 H :    0.141049
  12 H :    0.154997
  13 H :    0.149426
  14 H :    0.088389
  15 H :    0.124869
Sum of atomic charges:    1.0000000

--------------------------------
MULLIKEN REDUCED ORBITAL CHARGES
--------------------------------
  0 C s       :     3.294199  s :     3.294199
      pz      :     0.745081  p :     2.774326
      px      :     1.017196
      py      :     1.012050
      dz2     :     0.024945  d :     0.098718
      dxz     :     0.030453
      dyz     :     0.013208
      dx2y2   :     0.023316
      dxy     :     0.006797
      f0      :     0.001671  f :     0.007809
      f+1     :     0.001837
      f-1     :     0.001434
      f+2     :     0.000820
      f-2     :     0.000528
      f+3     :     0.000774
      f-3     :     0.000745
  1 N s       :     3.441052  s :     3.441052
      pz      :     1.079504  p :     3.719336
      px      :     1.465030
      py      :     1.174802
      dz2     :     0.015983  d :     0.055214
      dxz     :     0.016261
      dyz     :     0.013234
      dx2y2   :     0.005377
      dxy     :     0.004358
      f0      :     0.000923  f :     0.004003
      f+1     :     0.000680
      f-1     :     0.000609
      f+2     :     0.000471
      f-2     :     0.000472
      f+3     :     0.000542
      f-3     :     0.000307
  2 C s       :     3.284075  s :     3.284075
      pz      :     1.017390  p :     2.929170
      px      :     0.901860
      py      :     1.009919
      dz2     :     0.005711  d :     0.032201
      dxz     :     0.006527
      dyz     :     0.002027
      dx2y2   :     0.013762
      dxy     :     0.004174
      f0      :     0.000516  f :     0.003362
      f+1     :     0.000579
      f-1     :     0.000380
      f+2     :     0.000455
      f-2     :     0.000119
      f+3     :     0.000665
      f-3     :     0.000648
  3 C s       :     3.012219  s :     3.012219
      pz      :     0.738604  p :     2.305961
      px      :     0.792332
      py      :     0.775025
      dz2     :     0.047231  d :     0.238671
      dxz     :     0.060844
      dyz     :     0.052866
      dx2y2   :     0.055767
      dxy     :     0.021963
      f0      :     0.004364  f :     0.021201
      f+1     :     0.002843
      f-1     :     0.002919
      f+2     :     0.002917
      f-2     :     0.003479
      f+3     :     0.002082
      f-3     :     0.002598
  4 N s       :     3.459922  s :     3.459922
      pz      :     1.210207  p :     3.846805
      px      :     1.313545
      py      :     1.323053
      dz2     :     0.002497  d :     0.027466
      dxz     :     0.005950
      dyz     :     0.005841
      dx2y2   :     0.008648
      dxy     :     0.004531
      f0      :     0.000261  f :     0.003345
      f+1     :     0.000527
      f-1     :     0.000390
      f+2     :     0.000292
      f-2     :     0.000613
      f+3     :     0.000556
      f-3     :     0.000707
  5 N s       :     3.479030  s :     3.479030
      pz      :     1.096298  p :     3.868658
      px      :     1.327980
      py      :     1.444379
      dz2     :     0.006989  d :     0.026574
      dxz     :     0.008639
      dyz     :     0.004377
      dx2y2   :     0.002398
      dxy     :     0.004171
      f0      :     0.000512  f :     0.003097
      f+1     :     0.000737
      f-1     :     0.000449
      f+2     :     0.000266
      f-2     :     0.000343
      f+3     :     0.000478
      f-3     :     0.000312
  6 H s       :     0.703955  s :     0.703955
      pz      :     0.005534  p :     0.037813
      px      :     0.015076
      py      :     0.017203
  7 H s       :     0.704087  s :     0.704087
      pz      :     0.016263  p :     0.038121
      px      :     0.012339
      py      :     0.009519
  8 H s       :     0.730136  s :     0.730136
      pz      :     0.005923  p :     0.038756
      px      :     0.013616
      py      :     0.019218
  9 H s       :     0.690818  s :     0.690818
      pz      :     0.016065  p :     0.037981
      px      :     0.013625
      py      :     0.008291
 10 H s       :     0.702801  s :     0.702801
      pz      :     0.016359  p :     0.037846
      px      :     0.008735
      py      :     0.012753
 11 H s       :     0.837287  s :     0.837287
      pz      :     0.003814  p :     0.021664
      px      :     0.004693
      py      :     0.013157
 12 H s       :     0.823288  s :     0.823288
      pz      :     0.006594  p :     0.021715
      px      :     0.010586
      py      :     0.004534
 13 H s       :     0.828067  s :     0.828067
      pz      :     0.012329  p :     0.022507
      px      :     0.004883
      py      :     0.005295
 14 H s       :     0.889250  s :     0.889250
      pz      :     0.006466  p :     0.022361
      px      :     0.010728
      py      :     0.005167
 15 H s       :     0.852948  s :     0.852948
      pz      :     0.004739  p :     0.022183
      px      :     0.004661
      py      :     0.012783


                     *******************************
                     * LOEWDIN POPULATION ANALYSIS *
                     *******************************

----------------------
LOEWDIN ATOMIC CHARGES
----------------------
   0 C :   -0.275219
   1 N :    0.180201
   2 C :   -0.278108
   3 C :   -0.415128
   4 N :    0.098427
   5 N :    0.050763
   6 H :    0.191287
   7 H :    0.186191
   8 H :    0.201575
   9 H :    0.196986
  10 H :    0.199087
  11 H :    0.141150
  12 H :    0.148008
  13 H :    0.136455
  14 H :    0.113438
  15 H :    0.124887

-------------------------------
LOEWDIN REDUCED ORBITAL CHARGES
-------------------------------
  0 C s       :     2.791513  s :     2.791513
      pz      :     0.869285  p :     2.982672
      px      :     1.068090
      py      :     1.045297
      dz2     :     0.110621  d :     0.447868
      dxz     :     0.133674
      dyz     :     0.059990
      dx2y2   :     0.102535
      dxy     :     0.041048
      f0      :     0.009925  f :     0.053165
      f+1     :     0.010491
      f-1     :     0.011286
      f+2     :     0.005823
      f-2     :     0.006366
      f+3     :     0.005006
      f-3     :     0.004269
  1 N s       :     2.925614  s :     2.925614
      pz      :     1.152846  p :     3.661444
      px      :     1.324421
      py      :     1.184177
      dz2     :     0.072956  d :     0.217604
      dxz     :     0.052112
      dyz     :     0.057501
      dx2y2   :     0.016421
      dxy     :     0.018614
      f0      :     0.003548  f :     0.015137
      f+1     :     0.002404
      f-1     :     0.002547
      f+2     :     0.002177
      f-2     :     0.002564
      f+3     :     0.001525
      f-3     :     0.000371
  2 C s       :     2.825561  s :     2.825561
      pz      :     1.066682  p :     3.178954
      px      :     1.037623
      py      :     1.074648
      dz2     :     0.053156  d :     0.247107
      dxz     :     0.053165
      dyz     :     0.020117
      dx2y2   :     0.082683
      dxy     :     0.037986
      f0      :     0.002740  f :     0.026486
      f+1     :     0.002857
      f-1     :     0.003677
      f+2     :     0.003623
      f-2     :     0.004711
      f+3     :     0.004433
      f-3     :     0.004444
  3 C s       :     2.709864  s :     2.709864
      pz      :     0.935471  p :     2.707069
      px      :     0.875632
      py      :     0.895966
      dz2     :     0.178366  d :     0.872412
      dxz     :     0.202272
      dyz     :     0.206812
      dx2y2   :     0.181964
      dxy     :     0.102998
      f0      :     0.027787  f :     0.125784
      f+1     :     0.016192
      f-1     :     0.016531
      f+2     :     0.020311
      f-2     :     0.021526
      f+3     :     0.011030
      f-3     :     0.012408
  4 N s       :     2.963981  s :     2.963981
      pz      :     1.170604  p :     3.786426
      px      :     1.291273
      py      :     1.324549
      dz2     :     0.020526  d :     0.138905
      dxz     :     0.034741
      dyz     :     0.030119
      dx2y2   :     0.028744
      dxy     :     0.024775
      f0      :     0.001548  f :     0.012261
      f+1     :     0.001276
      f-1     :     0.001740
      f+2     :     0.000705
      f-2     :     0.001884
      f+3     :     0.002603
      f-3     :     0.002504
  5 N s       :     2.993517  s :     2.993517
      pz      :     1.162826  p :     3.817461
      px      :     1.301256
      py      :     1.353379
      dz2     :     0.042113  d :     0.127777
      dxz     :     0.042857
      dyz     :     0.019912
      dx2y2   :     0.006416
      dxy     :     0.016479
      f0      :     0.002286  f :     0.010481
      f+1     :     0.002083
      f-1     :     0.001713
      f+2     :     0.001596
      f-2     :     0.001310
      f+3     :     0.000962
      f-3     :     0.000532
  6 H s       :     0.703492  s :     0.703492
      pz      :     0.015438  p :     0.105222
      px      :     0.040981
      py      :     0.048803
  7 H s       :     0.705601  s :     0.705601
      pz      :     0.042363  p :     0.108208
      px      :     0.038752
      py      :     0.027093
  8 H s       :     0.694576  s :     0.694576
      pz      :     0.017131  p :     0.103849
      px      :     0.035308
      py      :     0.051410
  9 H s       :     0.696078  s :     0.696078
      pz      :     0.046537  p :     0.106936
      px      :     0.037163
      py      :     0.023235
 10 H s       :     0.695688  s :     0.695688
      pz      :     0.048837  p :     0.105224
      px      :     0.023864
      py      :     0.032524
 11 H s       :     0.798919  s :     0.798919
      pz      :     0.010103  p :     0.059931
      px      :     0.014210
      py      :     0.035618
 12 H s       :     0.792714  s :     0.792714
      pz      :     0.016779  p :     0.059278
      px      :     0.028647
      py      :     0.013852
 13 H s       :     0.798889  s :     0.798889
      pz      :     0.034571  p :     0.064656
      px      :     0.013821
      py      :     0.016265
 14 H s       :     0.822587  s :     0.822587
      pz      :     0.020317  p :     0.063975
      px      :     0.027736
      py      :     0.015922
 15 H s       :     0.810699  s :     0.810699
      pz      :     0.014385  p :     0.064415
      px      :     0.014091
      py      :     0.035939


                      *****************************
                      * MAYER POPULATION ANALYSIS *
                      *****************************

  NA   - Mulliken gross atomic population
  ZA   - Total nuclear charge
  QA   - Mulliken gross atomic charge
  VA   - Mayer's total valence
  BVA  - Mayer's bonded valence
  FA   - Mayer's free valence

  ATOM       NA         ZA         QA         VA         BVA        FA
  0 C      6.1751     6.0000    -0.1751     3.8184     3.8184    -0.0000
  1 N      7.2196     7.0000    -0.2196     3.2701     3.2701     0.0000
  2 C      6.2488     6.0000    -0.2488     3.8140     3.8140    -0.0000
  3 C      5.5781     6.0000     0.4219     4.0518     4.0518    -0.0000
  4 N      7.3375     7.0000    -0.3375     3.3101     3.3101     0.0000
  5 N      7.3774     7.0000    -0.3774     3.2253     3.2253     0.0000
  6 H      0.7418     1.0000     0.2582     0.9467     0.9467     0.0000
  7 H      0.7422     1.0000     0.2578     0.9448     0.9448     0.0000
  8 H      0.7689     1.0000     0.2311     0.9520     0.9520     0.0000
  9 H      0.7288     1.0000     0.2712     0.9428     0.9428     0.0000
 10 H      0.7406     1.0000     0.2594     0.9462     0.9462    -0.0000
 11 H      0.8590     1.0000     0.1410     0.9576     0.9576    -0.0000
 12 H      0.8450     1.0000     0.1550     0.9620     0.9620    -0.0000
 13 H      0.8506     1.0000     0.1494     0.9730     0.9730    -0.0000
 14 H      0.9116     1.0000     0.0884     0.9785     0.9785     0.0000
 15 H      0.8751     1.0000     0.1249     0.9774     0.9774    -0.0000

  Mayer bond orders larger than 0.100000
B(  0-C ,  1-N ) :   0.8756 B(  0-C ,  2-C ) :   0.9542 B(  0-C , 11-H ) :   0.9661 
B(  0-C , 12-H ) :   0.9554 B(  1-N ,  3-C ) :   1.3643 B(  1-N ,  8-H ) :   0.9092 
B(  2-C , 13-H ) :   0.9662 B(  2-C , 14-H ) :   0.9557 B(  2-C , 15-H ) :   0.9689 
B(  3-C ,  4-N ) :   1.3365 B(  3-C ,  5-N ) :   1.2701 B(  4-N ,  9-H ) :   0.8914 
B(  4-N , 10-H ) :   0.9049 B(  5-N ,  6-H ) :   0.9094 B(  5-N ,  7-H ) :   0.9020 


-------
TIMINGS
-------

Total SCF time: 0 days 0 hours 0 min 7 sec 

Total time                  ....       7.979 sec
Sum of individual times     ....       7.749 sec  ( 97.1%)

Fock matrix formation       ....       6.681 sec  ( 83.7%)
  Split-RI-J                ....       2.011 sec  ( 30.1% of F)
  XC integration            ....       4.611 sec  ( 69.0% of F)
    Basis function eval.    ....       1.595 sec  ( 34.6% of XC)
    Density eval.           ....       1.185 sec  ( 25.7% of XC)
    XC-Functional eval.     ....       0.175 sec  (  3.8% of XC)
    XC-Potential eval.      ....       1.403 sec  ( 30.4% of XC)
Diagonalization             ....       0.114 sec  (  1.4%)
Density matrix formation    ....       0.008 sec  (  0.1%)
Population analysis         ....       0.014 sec  (  0.2%)
Initial guess               ....       0.229 sec  (  2.9%)
Orbital Transformation      ....       0.000 sec  (  0.0%)
Orbital Orthonormalization  ....       0.000 sec  (  0.0%)
DIIS solution               ....       0.068 sec  (  0.9%)
SOSCF solution              ....       0.076 sec  (  1.0%)
Grid generation             ....       0.560 sec  (  7.0%)

Maximum memory used throughout the entire SCF-calculation: 27.3 MB


-------------------------------------------------------------------------------
                          DFT DISPERSION CORRECTION                            
                                                                               
                              DFTD3 V3.1  Rev 1                                
                          USING Becke-Johnson damping                          
-------------------------------------------------------------------------------
The BLYP functional is recognized
Active option DFTDOPT                   ...         4   

molecular C6(AA) [au] = 1841.400616 


            DFT-D V3
 parameters
 s6 scaling factor         :     1.0000 
 a1 scaling factor         :     0.4298 
 s8 scaling factor         :     2.6996 
 a2 scaling factor         :     4.2359 
 ad hoc parameters k1-k3   :    16.0000     1.3333    -4.0000 

 Edisp/kcal,au: -15.672199717530  -0.024975237337 
 E6   /kcal   :  -6.607582069 
 E8   /kcal   :  -9.064617648 
 % E8         :  57.838834443 

-------------------------   ----------------
Dispersion correction           -0.024975237
-------------------------   ----------------


-------------------------   --------------------
FINAL SINGLE POINT ENERGY      -284.406236608247
-------------------------   --------------------


                            ***************************************
                            *     ORCA property calculations      *
                            ***************************************

                                    ---------------------
                                    Active property flags
                                    ---------------------
   (+) Dipole Moment


------------------------------------------------------------------------------
                       ORCA ELECTRIC PROPERTIES CALCULATION
------------------------------------------------------------------------------

Dipole Moment Calculation                       ... on
Quadrupole Moment Calculation                   ... off
Polarizability Calculation                      ... off
GBWName                                         ... TZVP_BLYP_A_wt_dlpno_pos.gbw
Electron density file                           ... TZVP_BLYP_A_wt_dlpno_pos.scfp
The origin for moment calculation is the CENTER OF MASS  = ( 8.802766, -2.941778 -8.222359)

-------------
DIPOLE MOMENT
-------------
                                X             Y             Z
Electronic contribution:      1.76301       1.08569       4.73120
Nuclear contribution   :     -1.95709      -1.20097      -3.70214
                        -----------------------------------------
Total Dipole Moment    :     -0.19408      -0.11528       1.02906
                        -----------------------------------------
Magnitude (a.u.)       :      1.05353
Magnitude (Debye)      :      2.67785



--------------------
Rotational spectrum 
--------------------
 
Rotational constants in cm-1:     0.241661     0.071598     0.061743 
Rotational constants in MHz :  7244.800091  2146.442409  1851.001864 

 Dipole components along the rotational axes: 
x,y,z [a.u.] :     0.947088     0.050112     0.458731 
x,y,z [Debye]:     2.407305     0.127375     1.166000 

 

Timings for individual modules:

Sum of individual times         ...       12.663 sec (=   0.211 min)
GTO integral calculation        ...        2.651 sec (=   0.044 min)  20.9 %
SCF iterations                  ...       10.012 sec (=   0.167 min)  79.1 %
                             ****ORCA TERMINATED NORMALLY****
TOTAL RUN TIME: 0 days 0 hours 0 minutes 13 seconds 212 msec
