
                                        *****************
                                        * O   R   C   A *
                                        *****************

                                            #,                                       
                                            ###                                      
                                            ####                                     
                                            #####                                    
                                            ######                                   
                                           ########,                                 
                                     ,,################,,,,,                         
                               ,,#################################,,                 
                          ,,##########################################,,             
                       ,#########################################, ''#####,          
                    ,#############################################,,   '####,        
                  ,##################################################,,,,####,       
                ,###########''''           ''''###############################       
              ,#####''   ,,,,##########,,,,          '''####'''          '####       
            ,##' ,,,,###########################,,,                        '##       
           ' ,,###''''                  '''############,,,                           
         ,,##''                                '''############,,,,        ,,,,,,###''
      ,#''                                            '''#######################'''  
     '                                                          ''''####''''         
             ,#######,   #######,   ,#######,      ##                                
            ,#'     '#,  ##    ##  ,#'     '#,    #''#        ######   ,####,        
            ##       ##  ##   ,#'  ##            #'  '#       #        #'  '#        
            ##       ##  #######   ##           ,######,      #####,   #    #        
            '#,     ,#'  ##    ##  '#,     ,#' ,#      #,         ##   #,  ,#        
             '#######'   ##     ##  '#######'  #'      '#     #####' # '####'        



                  #######################################################
                  #                        -***-                        #
                  #          Department of theory and spectroscopy      #
                  #    Directorship and core code : Frank Neese         #
                  #        Max Planck Institute fuer Kohlenforschung    #
                  #                Kaiser Wilhelm Platz 1               #
                  #                 D-45470 Muelheim/Ruhr               #
                  #                      Germany                        #
                  #                                                     #
                  #                  All rights reserved                #
                  #                        -***-                        #
                  #######################################################


                         Program Version 5.0.0 -  RELEASE  -
                                (SVN: $Rev: 19529$)
                ($Date: 2021-06-28 11:36:33 +0200 (Mo, 28 Jun 2021) $)


 With contributions from (in alphabetic order):
   Daniel Aravena         : Magnetic Suceptibility
   Michael Atanasov       : Ab Initio Ligand Field Theory (pilot matlab implementation)
   Alexander A. Auer      : GIAO ZORA, VPT2 properties, NMR spectrum
   Ute Becker             : Parallelization
   Giovanni Bistoni       : ED, misc. LED, open-shell LED, HFLD
   Martin Brehm           : Molecular dynamics
   Dmytro Bykov           : SCF Hessian
   Vijay G. Chilkuri      : MRCI spin determinant printing, contributions to CSF-ICE
   Dipayan Datta          : RHF DLPNO-CCSD density
   Achintya Kumar Dutta   : EOM-CC, STEOM-CC
   Dmitry Ganyushin       : Spin-Orbit,Spin-Spin,Magnetic field MRCI
   Miquel Garcia          : C-PCM Hessian, Gaussian charge scheme
   Yang Guo               : DLPNO-NEVPT2, F12-NEVPT2, CIM, IAO-localization
   Andreas Hansen         : Spin unrestricted coupled pair/coupled cluster methods
   Benjamin Helmich-Paris : MC-RPA, TRAH-SCF, COSX integrals
   Lee Huntington         : MR-EOM, pCC
   Robert Izsak           : Overlap fitted RIJCOSX, COSX-SCS-MP3, EOM
   Marcus Kettner         : VPT2
   Christian Kollmar      : KDIIS, OOCD, Brueckner-CCSD(T), CCSD density, CASPT2, CASPT2-K
   Simone Kossmann        : Meta GGA functionals, TD-DFT gradient, OOMP2, MP2 Hessian
   Martin Krupicka        : Initial AUTO-CI
   Lucas Lang             : DCDCAS
   Marvin Lechner         : AUTO-CI (C++ implementation), FIC-MRCC
   Dagmar Lenk            : GEPOL surface, SMD
   Dimitrios Liakos       : Extrapolation schemes; Compound Job, initial MDCI parallelization
   Dimitrios Manganas     : Further ROCIS development; embedding schemes
   Dimitrios Pantazis     : SARC Basis sets
   Anastasios Papadopoulos: AUTO-CI, single reference methods and gradients
   Taras Petrenko         : DFT Hessian,TD-DFT gradient, ASA, ECA, R-Raman, ABS, FL, XAS/XES, NRVS
   Peter Pinski           : DLPNO-MP2, DLPNO-MP2 Gradient
   Christoph Reimann      : Effective Core Potentials
   Marius Retegan         : Local ZFS, SOC
   Christoph Riplinger    : Optimizer, TS searches, QM/MM, DLPNO-CCSD(T), (RO)-DLPNO pert. Triples
   Tobias Risthaus        : Range-separated hybrids, TD-DFT gradient, RPA, STAB
   Michael Roemelt        : Original ROCIS implementation
   Masaaki Saitow         : Open-shell DLPNO-CCSD energy and density
   Barbara Sandhoefer     : DKH picture change effects
   Avijit Sen             : IP-ROCIS
   Kantharuban Sivalingam : CASSCF convergence, NEVPT2, FIC-MRCI
   Bernardo de Souza      : ESD, SOC TD-DFT
   Georgi Stoychev        : AutoAux, RI-MP2 NMR
   Willem Van den Heuvel  : Paramagnetic NMR
   Boris Wezisla          : Elementary symmetry handling
   Frank Wennmohs         : Technical directorship


 We gratefully acknowledge several colleagues who have allowed us to
 interface, adapt or use parts of their codes:
   Stefan Grimme, W. Hujo, H. Kruse, P. Pracht,  : VdW corrections, initial TS optimization,
                  C. Bannwarth, S. Ehlert          DFT functionals, gCP, sTDA/sTD-DF
   Ed Valeev, F. Pavosevic, A. Kumar             : LibInt (2-el integral package), F12 methods
   Garnet Chan, S. Sharma, J. Yang, R. Olivares  : DMRG
   Ulf Ekstrom                                   : XCFun DFT Library
   Mihaly Kallay                                 : mrcc  (arbitrary order and MRCC methods)
   Jiri Pittner, Ondrej Demel                    : Mk-CCSD
   Frank Weinhold                                : gennbo (NPA and NBO analysis)
   Christopher J. Cramer and Donald G. Truhlar   : smd solvation model
   Lars Goerigk                                  : TD-DFT with DH, B97 family of functionals
   V. Asgeirsson, H. Jonsson                     : NEB implementation
   FAccTs GmbH                                   : IRC, NEB, NEB-TS, DLPNO-Multilevel, CI-OPT
                                                   MM, QMMM, 2- and 3-layer-ONIOM, Crystal-QMMM,
                                                   LR-CPCM, SF, NACMEs, symmetry and pop. for TD-DFT,
                                                   nearIR, NL-DFT gradient (VV10), updates on ESD,
                                                   ML-optimized integration grids
   S Lehtola, MJT Oliveira, MAL Marques          : LibXC Library
   Liviu Ungur et al                             : ANISO software


 Your calculation uses the libint2 library for the computation of 2-el integrals
 For citations please refer to: http://libint.valeyev.net

 Your ORCA version has been built with support for libXC version: 5.1.0
 For citations please refer to: https://tddft.org/programs/libxc/

 This ORCA versions uses:
   CBLAS   interface :  Fast vector & matrix operations
   LAPACKE interface :  Fast linear algebra routines
   SCALAPACK package :  Parallel linear algebra routines
   Shared memory     :  Shared parallel matrices
   BLAS/LAPACK       :  OpenBLAS 0.3.15  USE64BITINT DYNAMIC_ARCH NO_AFFINITY Haswell SINGLE_THREADED
        Core in use  :  Haswell
   Copyright (c) 2011-2014, The OpenBLAS Project


Your calculation utilizes the atom-pairwise dispersion correction
with the zero-damping scheme (D30)
Cite in your paper:
S.Grimme, J.Antony, S.Ehrlich and H.Krieg, J.Chem.Phys., 132, (2010), 154104 
   

XCFun DFT library Copyright 2009-2010 Ulf Ekstrom and contributors.
See http://admol.org/xcfun for more information.
This is free software; see the source code for copying conditions.
There is ABSOLUTELY NO WARRANTY; not even for MERCHANTABILITY or FITNESS FOR A PARTICULAR PURPOSE.
For details see the documentation.
Scientific users of this library should cite U. Ekstrom, L. Visscher, R. Bast, A. J. Thorvaldsen and K. Ruud;
J.Chem.Theor.Comp. 2010, DOI: 10.1021/ct100117s
XCFun Version 0.99 

================================================================================

----- Orbital basis set information -----
Your calculation utilizes the basis: def2-SVPD
   F. Weigend and R. Ahlrichs, Phys. Chem. Chem. Phys. 7, 3297 (2005).
   D. Rappoport and F. Furche, J. Chem. Phys. 133 134105 (2010).

----- AuxJ basis set information -----
Your calculation utilizes the auxiliary basis: def2/J
   F. Weigend, Phys. Chem. Chem. Phys. 8, 1057 (2006).

================================================================================
                                        WARNINGS
                       Please study these warnings very carefully!
================================================================================


INFO   : the flag for use of the SHARK integral package has been found!

================================================================================
                                       INPUT FILE
================================================================================
NAME = A_wt_dlpno_pos.com
|  1> !wB97X-D3 RIJCOSX def2-SVPD def2/J TightSCF 
|  2> *xyz 1 1 
|  3> C          0.81607       -2.10149       -2.18655
|  4> H          1.69623       -2.36869       -1.60046
|  5> N          1.10055       -2.46749       -3.59927
|  6> C          0.51624       -0.61363       -2.03937
|  7> H         -0.02007       -2.71285       -1.84084
|  8> C         -0.86862       -0.19392       -2.54630
|  9> H          1.70061       -1.75723       -4.07838
| 10> H          0.29386       -2.35977       -4.25632
| 11> H          1.50132       -3.42848       -3.69491
| 12> H          1.29904       -0.05680       -2.55898
| 13> H          0.61239       -0.36558       -0.97917
| 14> H         -0.95781       -0.43872       -3.58410
| 15> H         -0.99113        0.86113       -2.41690
| 16> H         -1.62334       -0.71130       -1.99167
| 17> *
| 18> %MaxCore 64000
| 19> 
| 20> %pal nprocs 18
| 21> end  
| 22> 
| 23> %scf
| 24>   MaxIter 150
| 25> end
| 26> 
| 27> 
| 28>                          ****END OF INPUT****
================================================================================

                       ****************************
                       * Single Point Calculation *
                       ****************************

---------------------------------
CARTESIAN COORDINATES (ANGSTROEM)
---------------------------------
  C      0.816070   -2.101490   -2.186550
  H      1.696230   -2.368690   -1.600460
  N      1.100550   -2.467490   -3.599270
  C      0.516240   -0.613630   -2.039370
  H     -0.020070   -2.712850   -1.840840
  C     -0.868620   -0.193920   -2.546300
  H      1.700610   -1.757230   -4.078380
  H      0.293860   -2.359770   -4.256320
  H      1.501320   -3.428480   -3.694910
  H      1.299040   -0.056800   -2.558980
  H      0.612390   -0.365580   -0.979170
  H     -0.957810   -0.438720   -3.584100
  H     -0.991130    0.861130   -2.416900
  H     -1.623340   -0.711300   -1.991670

----------------------------
CARTESIAN COORDINATES (A.U.)
----------------------------
  NO LB      ZA    FRAG     MASS         X           Y           Z
   0 C     6.0000    0    12.011    1.542149   -3.971241   -4.131981
   1 H     1.0000    0     1.008    3.205410   -4.476175   -3.024431
   2 N     7.0000    0    14.007    2.079738   -4.662880   -6.801635
   3 C     6.0000    0    12.011    0.975552   -1.159593   -3.853851
   4 H     1.0000    0     1.008   -0.037927   -5.126544   -3.478683
   5 C     6.0000    0    12.011   -1.641454   -0.366456   -4.811810
   6 H     1.0000    0     1.008    3.213687   -3.320683   -7.707021
   7 H     1.0000    0     1.008    0.555315   -4.459319   -8.043279
   8 H     1.0000    0     1.008    2.837084   -6.478888   -6.982368
   9 H     1.0000    0     1.008    2.454830   -0.107336   -4.835771
  10 H     1.0000    0     1.008    1.157249   -0.690846   -1.850363
  11 H     1.0000    0     1.008   -1.809999   -0.829061   -6.772967
  12 H     1.0000    0     1.008   -1.872964    1.627300   -4.567279
  13 H     1.0000    0     1.008   -3.067668   -1.344162   -3.763711

--------------------------------
INTERNAL COORDINATES (ANGSTROEM)
--------------------------------
 C      0   0   0     0.000000000000     0.00000000     0.00000000
 H      1   0   0     1.090678208135     0.00000000     0.00000000
 N      1   2   0     1.486829737663   107.20969654     0.00000000
 C      1   2   3     1.524889294637   110.23327792   238.23497714
 H      1   2   3     1.091973696249   108.09753525   116.23750786
 C      4   1   2     1.533287881841   114.37861567   193.55274078
 H      3   1   2     1.045986454645   112.19915537   280.57074603
 H      3   1   2     1.045976604423   115.08391716   173.58599447
 H      3   1   2     1.045593316065   112.73631811    47.10374094
 H      4   1   2     1.092167588331   108.09604278    69.98497648
 H      4   1   2     1.093068005661   107.32191021   315.56219081
 H      6   4   1     1.070005016857   109.47075271   300.66968503
 H      6   4   1     1.069992318944   109.47154438   180.66922009
 H      6   4   1     1.069999429766   109.47125794    60.66890086

---------------------------
INTERNAL COORDINATES (A.U.)
---------------------------
 C      0   0   0     0.000000000000     0.00000000     0.00000000
 H      1   0   0     2.061083113611     0.00000000     0.00000000
 N      1   2   0     2.809701011954   107.20969654     0.00000000
 C      1   2   3     2.881623151413   110.23327792   238.23497714
 H      1   2   3     2.063531231357   108.09753525   116.23750786
 C      4   1   2     2.897494181139   114.37861567   193.55274078
 H      3   1   2     1.976627939070   112.19915537   280.57074603
 H      3   1   2     1.976609324848   115.08391716   173.58599447
 H      3   1   2     1.975885014822   112.73631811    47.10374094
 H      4   1   2     2.063897634290   108.09604278    69.98497648
 H      4   1   2     2.065599176451   107.32191021   315.56219081
 H      6   4   1     2.022016443782   109.47075271   300.66968503
 H      6   4   1     2.021992448204   109.47154438   180.66922009
 H      6   4   1     2.022005885710   109.47125794    60.66890086

---------------------
BASIS SET INFORMATION
---------------------
There are 3 groups of distinct atoms

 Group   1 Type C   : 8s4p2d contracted to 4s2p2d pattern {5111/31/11}
 Group   2 Type H   : 4s2p contracted to 2s2p pattern {31/11}
 Group   3 Type N   : 8s4p2d contracted to 4s2p2d pattern {5111/31/11}

Atom   0C    basis set group =>   1
Atom   1H    basis set group =>   2
Atom   2N    basis set group =>   3
Atom   3C    basis set group =>   1
Atom   4H    basis set group =>   2
Atom   5C    basis set group =>   1
Atom   6H    basis set group =>   2
Atom   7H    basis set group =>   2
Atom   8H    basis set group =>   2
Atom   9H    basis set group =>   2
Atom  10H    basis set group =>   2
Atom  11H    basis set group =>   2
Atom  12H    basis set group =>   2
Atom  13H    basis set group =>   2
---------------------------------
AUXILIARY/J BASIS SET INFORMATION
---------------------------------
There are 3 groups of distinct atoms

 Group   1 Type C   : 12s5p4d2f1g contracted to 6s4p3d1f1g pattern {711111/2111/211/2/1}
 Group   2 Type H   : 5s2p1d contracted to 3s1p1d pattern {311/2/1}
 Group   3 Type N   : 12s5p4d2f1g contracted to 6s4p3d1f1g pattern {711111/2111/211/2/1}

Atom   0C    basis set group =>   1
Atom   1H    basis set group =>   2
Atom   2N    basis set group =>   3
Atom   3C    basis set group =>   1
Atom   4H    basis set group =>   2
Atom   5C    basis set group =>   1
Atom   6H    basis set group =>   2
Atom   7H    basis set group =>   2
Atom   8H    basis set group =>   2
Atom   9H    basis set group =>   2
Atom  10H    basis set group =>   2
Atom  11H    basis set group =>   2
Atom  12H    basis set group =>   2
Atom  13H    basis set group =>   2


           ************************************************************
           *        Program running with 18 parallel MPI-processes    *
           *              working on a common directory               *
           ************************************************************
------------------------------------------------------------------------------
                           ORCA GTO INTEGRAL CALCULATION
                           -- RI-GTO INTEGRALS CHOSEN --
------------------------------------------------------------------------------
------------------------------------------------------------------------------
                   ___                                                        
                  /   \      - P O W E R E D   B Y -                         
                 /     \                                                     
                 |  |  |   _    _      __       _____    __    __             
                 |  |  |  | |  | |    /  \     |  _  \  |  |  /  |          
                  \  \/   | |  | |   /    \    | | | |  |  | /  /          
                 / \  \   | |__| |  /  /\  \   | |_| |  |  |/  /          
                |  |  |   |  __  | /  /__\  \  |    /   |      \           
                |  |  |   | |  | | |   __   |  |    \   |  |\   \          
                \     /   | |  | | |  |  |  |  | |\  \  |  | \   \       
                 \___/    |_|  |_| |__|  |__|  |_| \__\ |__|  \__/        
                                                                              
                      - O R C A' S   B I G   F R I E N D -                    
                                      &                                       
                       - I N T E G R A L  F E E D E R -                       
                                                                              
 v1 FN, 2020, v2 2021                                                         
------------------------------------------------------------------------------


Reading SHARK input file A_wt_dlpno_pos.SHARKINP.tmp ... ok
----------------------
SHARK INTEGRAL PACKAGE
----------------------

Number of atoms                             ...     14
Number of basis functions                   ...    160
Number of shells                            ...     72
Maximum angular momentum                    ...      2
Integral batch strategy                     ... SHARK/LIBINT Hybrid
RI-J (if used) integral strategy            ... SPLIT-RIJ (Revised 2003 algorithm where possible)
Printlevel                                  ...      1
Contraction scheme used                     ... SEGMENTED contraction
Coulomb Range Separation                    ... NOT USED
Exchange Range Separation                   ... Long Range
   Mu parameter                             ...  0.250000
   Scaling (regular/separated)              ...  0.195728  0.804272
Finite Nucleus Model                        ... NOT USED
Auxiliary Coulomb fitting basis             ... AVAILABLE
   # of basis functions in Aux-J            ...    306
   # of shells in Aux-J                     ...    110
   Maximum angular momentum in Aux-J        ...      4
Auxiliary J/K fitting basis                 ... NOT available
Auxiliary Correlation fitting basis         ... NOT available
Auxiliary 'external' fitting basis          ... NOT available
Integral threshold                          ...     2.500000e-11
Primitive cut-off                           ...     2.500000e-12
Primitive pair pre-selection threshold      ...     2.500000e-12

Calculating pre-screening integrals         ... done (  0.0 sec) Dimension = 72
Organizing shell pair data                  ... done (  0.0 sec)
Shell pair information
Total number of shell pairs                 ...      2628
Shell pairs after pre-screening             ...      2618
Total number of primitive shell pairs       ...      6868
Primitive shell pairs kept                  ...      5969
          la=0 lb=0:    663 shell pairs
          la=1 lb=0:   1002 shell pairs
          la=1 lb=1:    405 shell pairs
          la=2 lb=0:    288 shell pairs
          la=2 lb=1:    224 shell pairs
          la=2 lb=2:     36 shell pairs

Calculating one electron integrals          ... done (  0.0 sec)
Calculating RI/J V-Matrix + Cholesky decomp.... done (  0.0 sec)
Calculating Nuclear repulsion               ... done (  0.0 sec) ENN=    141.484261949210 Eh

SHARK setup successfully completed in   0.2 seconds

Maximum memory used throughout the entire GTOINT-calculation: 8.9 MB


           ************************************************************
           *        Program running with 18 parallel MPI-processes    *
           *              working on a common directory               *
           ************************************************************
-------------------------------------------------------------------------------
                                 ORCA SCF
-------------------------------------------------------------------------------

------------
SCF SETTINGS
------------
Hamiltonian:
 Density Functional     Method          .... DFT(GTOs)
 Exchange Functional    Exchange        .... WB97X-D3
 Correlation Functional Correlation     .... WB97X-D3
 Gradients option       PostSCFGGA      .... off
 Hybrid DFT is turned on
   Fraction HF Exchange ScalHFX         ....  0.195728
   Scaling of DF-GGA-X  ScalDFX         ....  0.000000
   Scaling of DF-GGA-C  ScalDFC         ....  1.000000
   Scaling of DF-LDA-C  ScalLDAC        ....  1.000000
   Perturbative correction              ....  0.000000
   Density functional embedding theory  .... OFF
 Long-range corrected/Screened/Range-Separated Hybrid DFT is turned on
   Amount of maximum screened exact exchange              ....  0.804272
   Range separation parameter mu (erf(mu*r12)/r12)        ....  0.250000
 RI-approximation to the Coulomb term is turned on
   Number of AuxJ basis functions       .... 306
   RIJ-COSX (HFX calculated with COS-X)).... on


General Settings:
 Integral files         IntName         .... A_wt_dlpno_pos
 Hartree-Fock type      HFTyp           .... RHF
 Total Charge           Charge          ....    1
 Multiplicity           Mult            ....    1
 Number of Electrons    NEL             ....   34
 Basis Dimension        Dim             ....  160
 Nuclear Repulsion      ENuc            ....    141.4842619492 Eh

Convergence Acceleration:
 DIIS                   CNVDIIS         .... on
   Start iteration      DIISMaxIt       ....    12
   Startup error        DIISStart       ....  0.200000
   # of expansion vecs  DIISMaxEq       ....     5
   Bias factor          DIISBfac        ....   1.050
   Max. coefficient     DIISMaxC        ....  10.000
 Trust-Rad. Augm. Hess. CNVTRAH         .... auto
   Auto Start mean grad. ratio tolernc. ....  1.125000
   Auto Start start iteration           ....    20
   Auto Start num. interpolation iter.  ....    10
   Max. Number of Micro iterations      ....    16
   Max. Number of Macro iterations      .... Maxiter - #DIIS iter
   Number of Davidson start vectors     ....     2
   Converg. threshold I  (grad. norm)   ....   1.000e-05
   Converg. threshold II (energy diff.) ....   1.000e-08
   Grad. Scal. Fac. for Micro threshold ....   0.100
   Minimum threshold for Micro iter.    ....   0.010
   NR start threshold (gradient norm)   ....   0.001
   Initial trust radius                 ....   0.400
   Minimum AH scaling param. (alpha)    ....   1.000
   Maximum AH scaling param. (alpha)    .... 1000.000
   Orbital update algorithm             .... Taylor
   White noise on init. David. guess    .... on
   Maximum white noise                  ....   0.010
   Quad. conv. algorithm                .... NR
 SOSCF                  CNVSOSCF        .... on
   Start iteration      SOSCFMaxIt      ....   150
   Startup grad/error   SOSCFStart      ....  0.003300
 Level Shifting         CNVShift        .... on
   Level shift para.    LevelShift      ....    0.2500
   Turn off err/grad.   ShiftErr        ....    0.0010
 Zerner damping         CNVZerner       .... off
 Static damping         CNVDamp         .... on
   Fraction old density DampFac         ....    0.7000
   Max. Damping (<1)    DampMax         ....    0.9800
   Min. Damping (>=0)   DampMin         ....    0.0000
   Turn off err/grad.   DampErr         ....    0.1000
 Fernandez-Rico         CNVRico         .... off

SCF Procedure:
 Maximum # iterations   MaxIter         ....   150
 SCF integral mode      SCFMode         .... Direct
   Integral package                     .... SHARK and LIBINT hybrid scheme
 Reset frequency        DirectResetFreq ....    20
 Integral Threshold     Thresh          ....  2.500e-11 Eh
 Primitive CutOff       TCut            ....  2.500e-12 Eh

Convergence Tolerance:
 Convergence Check Mode ConvCheckMode   .... Total+1el-Energy
 Convergence forced     ConvForced      .... 0
 Energy Change          TolE            ....  1.000e-08 Eh
 1-El. energy change                    ....  1.000e-05 Eh
 Orbital Gradient       TolG            ....  1.000e-05
 Orbital Rotation angle TolX            ....  1.000e-05
 DIIS Error             TolErr          ....  5.000e-07


Diagonalization of the overlap matrix:
Smallest eigenvalue                        ... 9.852e-05
Time for diagonalization                   ...    0.007 sec
Threshold for overlap eigenvalues          ... 1.000e-08
Number of eigenvalues below threshold      ... 0
Time for construction of square roots      ...    0.015 sec
Total time needed                          ...    0.023 sec

Time for model grid setup =    0.043 sec

------------------------------
INITIAL GUESS: MODEL POTENTIAL
------------------------------
Loading Hartree-Fock densities                     ... done
Calculating cut-offs                               ... done
Initializing the effective Hamiltonian             ... done
Setting up the integral package (SHARK)            ... done
Starting the Coulomb interaction                   ... done (   0.0 sec)
Reading the grid                                   ... done
Mapping shells                                     ... done
Starting the XC term evaluation                    ... done (   0.0 sec)
  promolecular density results
     # of electrons  =     34.997688039
     EX              =    -24.872012519
     EC              =     -1.128926338
     EX+EC           =    -26.000938857
Transforming the Hamiltonian                       ... done (   0.0 sec)
Diagonalizing the Hamiltonian                      ... done (   0.0 sec)
Back transforming the eigenvectors                 ... done (   0.0 sec)
Now organizing SCF variables                       ... done
                      ------------------
                      INITIAL GUESS DONE (   0.1 sec)
                      ------------------
-------------------
DFT GRID GENERATION
-------------------

General Integration Accuracy     IntAcc      ... 4.388
Radial Grid Type                 RadialGrid  ... OptM3 with GC (2021)
Angular Grid (max. ang.)         AngularGrid ... 4 (Lebedev-302)
Angular grid pruning method      GridPruning ... 4 (adaptive)
Weight generation scheme         WeightScheme... Becke
Basis function cutoff            BFCut       ... 1.0000e-11
Integration weight cutoff        WCut        ... 1.0000e-14
Angular grids for H and He will be reduced by one unit
Partially contracted basis set               ... off
Rotationally invariant grid construction     ... off

Total number of grid points                  ...    58179
Total number of batches                      ...      916
Average number of points per batch           ...       63
Average number of grid points per atom       ...     4156
Time for grid setup =    0.269 sec

--------------------
COSX GRID GENERATION
--------------------

GRIDX 1
-------
General Integration Accuracy     IntAcc      ... 3.816
Radial Grid Type                 RadialGrid  ... OptM3 with GC (2021)
Angular Grid (max. ang.)         AngularGrid ... 1 (Lebedev-50)
Angular grid pruning method      GridPruning ... 4 (adaptive)
Weight generation scheme         WeightScheme... Becke
Basis function cutoff            BFCut       ... 1.0000e-11
Integration weight cutoff        WCut        ... 1.0000e-14
Angular grids for H and He will be reduced by one unit
Partially contracted basis set               ... on
Rotationally invariant grid construction     ... off

Total number of grid points                  ...     7282
Total number of batches                      ...      123
Average number of points per batch           ...       59
Average number of grid points per atom       ...      520
UseSFitting                                  ... on

GRIDX 2
-------
General Integration Accuracy     IntAcc      ... 4.020
Radial Grid Type                 RadialGrid  ... OptM3 with GC (2021)
Angular Grid (max. ang.)         AngularGrid ... 2 (Lebedev-110)
Angular grid pruning method      GridPruning ... 4 (adaptive)
Weight generation scheme         WeightScheme... Becke
Basis function cutoff            BFCut       ... 1.0000e-11
Integration weight cutoff        WCut        ... 1.0000e-14
Angular grids for H and He will be reduced by one unit
Partially contracted basis set               ... on
Rotationally invariant grid construction     ... off

Total number of grid points                  ...    15720
Total number of batches                      ...      253
Average number of points per batch           ...       62
Average number of grid points per atom       ...     1123
UseSFitting                                  ... on

GRIDX 3
-------
General Integration Accuracy     IntAcc      ... 4.338
Radial Grid Type                 RadialGrid  ... OptM3 with GC (2021)
Angular Grid (max. ang.)         AngularGrid ... 3 (Lebedev-194)
Angular grid pruning method      GridPruning ... 4 (adaptive)
Weight generation scheme         WeightScheme... Becke
Basis function cutoff            BFCut       ... 1.0000e-11
Integration weight cutoff        WCut        ... 1.0000e-14
Angular grids for H and He will be reduced by one unit
Partially contracted basis set               ... on
Rotationally invariant grid construction     ... off

Total number of grid points                  ...    36243
Total number of batches                      ...      575
Average number of points per batch           ...       63
Average number of grid points per atom       ...     2589
UseSFitting                                  ... on

Time for X-Grid setup             =    0.200 sec

--------------
SCF ITERATIONS
--------------
ITER       Energy         Delta-E        Max-DP      RMS-DP      [F,P]     Damp
               ***  Starting incremental Fock matrix formation  ***
  0   -174.5752257610   0.000000000000 0.10237891  0.00250698  0.1620886 0.7000
                      *** Initiating the SOSCF procedure ***
                      *** Re-Reading the Fockian *** 
                      *** Removing any level shift *** 
ITER      Energy       Delta-E        Grad      Rot      Max-DP    RMS-DP
  1   -174.61748184  -0.0422560802  0.003168  0.003168  0.200654  0.005767
               *** Restarting incremental Fock matrix formation ***
  2   -174.66857151  -0.0510896719  0.015963  0.018610  0.144924  0.002922
  3   -174.67506435  -0.0064928413  0.010486  0.007463  0.048965  0.001089
  4   -174.68272186  -0.0076575096  0.000505  0.000596  0.008394  0.000133
  5   -174.68273382  -0.0000119540  0.000536  0.000385  0.001742  0.000044
  6   -174.68274300  -0.0000091837  0.000047  0.000035  0.000248  0.000011
  7   -174.68274313  -0.0000001314  0.000025  0.000022  0.000077  0.000003
                  ***Gradient check signals convergence***
              ***Rediagonalizing the Fockian in SOSCF/NRSCF***

               *****************************************************
               *                     SUCCESS                       *
               *           SCF CONVERGED AFTER   8 CYCLES          *
               *****************************************************

Old exchange energy                            =     -8.615357172 Eh
New exchange energy                            =     -8.615337115 Eh
Exchange energy change after final integration =      0.000020057 Eh
Total energy after final integration           =   -174.682723112 Eh
Final COS-X integration done in                =     0.843 sec

----------------
TOTAL SCF ENERGY
----------------

Total Energy       :         -174.68272311 Eh           -4753.35855 eV

Components:
Nuclear Repulsion  :          141.48426195 Eh            3849.98250 eV
Electronic Energy  :         -316.16698506 Eh           -8603.34105 eV
One Electron Energy:         -506.33495619 Eh          -13778.07462 eV
Two Electron Energy:          190.16797113 Eh            5174.73357 eV
Max COSX asymmetry :            0.00000277 Eh               0.00008 eV

Virial components:
Potential Energy   :         -347.19803502 Eh           -9447.73885 eV
Kinetic Energy     :          172.51531191 Eh            4694.38029 eV
Virial Ratio       :            2.01256359


DFT components:
N(Alpha)           :       16.999971867141 electrons
N(Beta)            :       16.999971867141 electrons
N(Total)           :       33.999943734281 electrons
E(XC)              :      -17.989725010971 Eh       
DFET-embed. en.    :        0.000000000000 Eh       

---------------
SCF CONVERGENCE
---------------

  Last Energy change         ...   -3.6316e-08  Tolerance :   1.0000e-08
  Last MAX-Density change    ...    8.8818e-16  Tolerance :   1.0000e-07
  Last RMS-Density change    ...    2.5676e-17  Tolerance :   5.0000e-09
  Last Orbital Gradient      ...    2.3185e-06  Tolerance :   1.0000e-05
  Last Orbital Rotation      ...    3.9961e-06  Tolerance :   1.0000e-05

             **** THE GBW FILE WAS UPDATED (A_wt_dlpno_pos.gbw) ****
             **** DENSITY A_wt_dlpno_pos.scfp WAS UPDATED ****
             **** ENERGY FILE WAS UPDATED (A_wt_dlpno_pos.en.tmp) ****
             **** THE GBW FILE WAS UPDATED (A_wt_dlpno_pos.gbw) ****
             **** DENSITY A_wt_dlpno_pos.scfp WAS UPDATED ****
----------------
ORBITAL ENERGIES
----------------

  NO   OCC          E(Eh)            E(eV) 
   0   2.0000     -14.772632      -401.9838 
   1   2.0000     -10.537490      -286.7397 
   2   2.0000     -10.469293      -284.8840 
   3   2.0000     -10.433484      -283.9095 
   4   2.0000      -1.314976       -35.7823 
   5   2.0000      -1.083623       -29.4869 
   6   2.0000      -0.992887       -27.0178 
   7   2.0000      -0.911194       -24.7948 
   8   2.0000      -0.881447       -23.9854 
   9   2.0000      -0.862995       -23.4833 
  10   2.0000      -0.795707       -21.6523 
  11   2.0000      -0.726338       -19.7647 
  12   2.0000      -0.708147       -19.2696 
  13   2.0000      -0.683018       -18.5859 
  14   2.0000      -0.619587       -16.8598 
  15   2.0000      -0.613301       -16.6888 
  16   2.0000      -0.609067       -16.5735 
  17   0.0000      -0.111286        -3.0282 
  18   0.0000      -0.055138        -1.5004 
  19   0.0000      -0.053997        -1.4693 
  20   0.0000      -0.039549        -1.0762 
  21   0.0000      -0.012299        -0.3347 
  22   0.0000      -0.005671        -0.1543 
  23   0.0000       0.012493         0.3400 
  24   0.0000       0.020220         0.5502 
  25   0.0000       0.024552         0.6681 
  26   0.0000       0.038430         1.0457 
  27   0.0000       0.056098         1.5265 
  28   0.0000       0.065978         1.7953 
  29   0.0000       0.077857         2.1186 
  30   0.0000       0.083334         2.2676 
  31   0.0000       0.093140         2.5345 
  32   0.0000       0.105915         2.8821 
  33   0.0000       0.116373         3.1667 
  34   0.0000       0.126058         3.4302 
  35   0.0000       0.132090         3.5943 
  36   0.0000       0.154268         4.1978 
  37   0.0000       0.163197         4.4408 
  38   0.0000       0.169106         4.6016 
  39   0.0000       0.189057         5.1445 
  40   0.0000       0.198863         5.4113 
  41   0.0000       0.217684         5.9235 
  42   0.0000       0.218670         5.9503 
  43   0.0000       0.226531         6.1642 
  44   0.0000       0.233830         6.3628 
  45   0.0000       0.239594         6.5197 
  46   0.0000       0.248902         6.7730 
  47   0.0000       0.266983         7.2650 
  48   0.0000       0.281759         7.6671 
  49   0.0000       0.287842         7.8326 
  50   0.0000       0.288783         7.8582 
  51   0.0000       0.305454         8.3118 
  52   0.0000       0.307098         8.3566 
  53   0.0000       0.312867         8.5136 
  54   0.0000       0.320580         8.7234 
  55   0.0000       0.323597         8.8055 
  56   0.0000       0.339826         9.2471 
  57   0.0000       0.350550         9.5390 
  58   0.0000       0.357028         9.7152 
  59   0.0000       0.374066        10.1788 
  60   0.0000       0.380430        10.3520 
  61   0.0000       0.382113        10.3978 
  62   0.0000       0.400743        10.9048 
  63   0.0000       0.408752        11.1227 
  64   0.0000       0.414539        11.2802 
  65   0.0000       0.419162        11.4060 
  66   0.0000       0.423076        11.5125 
  67   0.0000       0.434864        11.8332 
  68   0.0000       0.438068        11.9204 
  69   0.0000       0.445220        12.1151 
  70   0.0000       0.460673        12.5355 
  71   0.0000       0.464655        12.6439 
  72   0.0000       0.479125        13.0377 
  73   0.0000       0.490077        13.3357 
  74   0.0000       0.500222        13.6117 
  75   0.0000       0.501993        13.6599 
  76   0.0000       0.516189        14.0462 
  77   0.0000       0.546145        14.8614 
  78   0.0000       0.553847        15.0710 
  79   0.0000       0.567035        15.4298 
  80   0.0000       0.581657        15.8277 
  81   0.0000       0.615858        16.7584 
  82   0.0000       0.634935        17.2775 
  83   0.0000       0.663285        18.0489 
  84   0.0000       0.798669        21.7329 
  85   0.0000       0.825753        22.4699 
  86   0.0000       0.831674        22.6310 
  87   0.0000       0.851746        23.1772 
  88   0.0000       0.867468        23.6050 
  89   0.0000       0.898656        24.4537 
  90   0.0000       0.909316        24.7437 
  91   0.0000       0.938730        25.5441 
  92   0.0000       0.947347        25.7786 
  93   0.0000       0.971778        26.4434 
  94   0.0000       0.983423        26.7603 
  95   0.0000       0.991432        26.9782 
  96   0.0000       0.999750        27.2046 
  97   0.0000       1.023138        27.8410 
  98   0.0000       1.070143        29.1201 
  99   0.0000       1.077007        29.3068 
 100   0.0000       1.117947        30.4209 
 101   0.0000       1.159712        31.5574 
 102   0.0000       1.180327        32.1183 
 103   0.0000       1.229506        33.4566 
 104   0.0000       1.253702        34.1150 
 105   0.0000       1.292360        35.1669 
 106   0.0000       1.322105        35.9763 
 107   0.0000       1.362719        37.0815 
 108   0.0000       1.437858        39.1261 
 109   0.0000       1.494688        40.6725 
 110   0.0000       1.519948        41.3599 
 111   0.0000       1.532307        41.6962 
 112   0.0000       1.555808        42.3357 
 113   0.0000       1.572762        42.7970 
 114   0.0000       1.645623        44.7797 
 115   0.0000       1.650912        44.9236 
 116   0.0000       1.682162        45.7739 
 117   0.0000       1.720705        46.8228 
 118   0.0000       1.754658        47.7467 
 119   0.0000       1.791721        48.7552 
 120   0.0000       1.795898        48.8689 
 121   0.0000       1.816870        49.4396 
 122   0.0000       1.846997        50.2593 
 123   0.0000       1.864786        50.7434 
 124   0.0000       1.868970        50.8573 
 125   0.0000       1.919165        52.2231 
 126   0.0000       1.928498        52.4771 
 127   0.0000       1.954710        53.1904 
 128   0.0000       1.959469        53.3199 
 129   0.0000       1.997960        54.3673 
 130   0.0000       2.005699        54.5779 
 131   0.0000       2.033248        55.3275 
 132   0.0000       2.039992        55.5110 
 133   0.0000       2.138949        58.2038 
 134   0.0000       2.142832        58.3094 
 135   0.0000       2.184549        59.4446 
 136   0.0000       2.206818        60.0506 
 137   0.0000       2.247557        61.1591 
 138   0.0000       2.319979        63.1298 
 139   0.0000       2.374778        64.6210 
 140   0.0000       2.390462        65.0478 
 141   0.0000       2.412510        65.6477 
 142   0.0000       2.501452        68.0680 
 143   0.0000       2.511435        68.3396 
 144   0.0000       2.522104        68.6299 
 145   0.0000       2.582893        70.2841 
 146   0.0000       2.627090        71.4867 
 147   0.0000       2.637706        71.7756 
 148   0.0000       2.691793        73.2474 
 149   0.0000       2.721004        74.0423 
 150   0.0000       2.833556        77.1050 
 151   0.0000       2.952233        80.3344 
 152   0.0000       2.980994        81.1170 
 153   0.0000       3.006958        81.8235 
 154   0.0000       3.070173        83.5436 
 155   0.0000       3.112626        84.6989 
 156   0.0000       3.128698        85.1362 
 157   0.0000       3.160179        85.9929 
 158   0.0000       3.343775        90.9887 
 159   0.0000       3.371637        91.7469 

                    ********************************
                    * MULLIKEN POPULATION ANALYSIS *
                    ********************************

-----------------------
MULLIKEN ATOMIC CHARGES
-----------------------
   0 C :    0.599188
   1 H :   -0.012832
   2 N :   -1.000628
   3 C :   -0.377894
   4 H :   -0.020049
   5 C :    0.657284
   6 H :    0.492108
   7 H :    0.376361
   8 H :    0.427062
   9 H :   -0.041860
  10 H :   -0.022100
  11 H :   -0.127808
  12 H :    0.011906
  13 H :    0.039263
Sum of atomic charges:    1.0000000

--------------------------------
MULLIKEN REDUCED ORBITAL CHARGES
--------------------------------
  0 C s       :     2.684284  s :     2.684284
      pz      :     0.641236  p :     2.561555
      px      :     0.907840
      py      :     1.012478
      dz2     :    -0.005762  d :     0.154973
      dxz     :     0.006369
      dyz     :     0.112255
      dx2y2   :     0.011980
      dxy     :     0.030132
  1 H s       :     1.012728  s :     1.012728
      pz      :     0.011534  p :     0.000104
      px      :     0.015444
      py      :    -0.026874
  2 N s       :     4.237525  s :     4.237525
      pz      :     1.254424  p :     3.673678
      px      :     1.254694
      py      :     1.164560
      dz2     :     0.025114  d :     0.089426
      dxz     :     0.049964
      dyz     :     0.023212
      dx2y2   :     0.000568
      dxy     :    -0.009432
  3 C s       :     2.927076  s :     2.927076
      pz      :     0.990403  p :     3.002215
      px      :     1.076353
      py      :     0.935459
      dz2     :     0.095363  d :     0.448603
      dxz     :     0.092011
      dyz     :     0.040424
      dx2y2   :     0.058208
      dxy     :     0.162598
  4 H s       :     0.990938  s :     0.990938
      pz      :     0.012779  p :     0.029112
      px      :    -0.002384
      py      :     0.018716
  5 C s       :     2.461060  s :     2.461060
      pz      :     0.931653  p :     2.801013
      px      :     0.949205
      py      :     0.920155
      dz2     :     0.022636  d :     0.080644
      dxz     :     0.037817
      dyz     :    -0.016711
      dx2y2   :     0.021642
      dxy     :     0.015260
  6 H s       :     0.492791  s :     0.492791
      pz      :     0.009936  p :     0.015101
      px      :     0.024475
      py      :    -0.019311
  7 H s       :     0.588580  s :     0.588580
      pz      :     0.019576  p :     0.035059
      px      :     0.000045
      py      :     0.015439
  8 H s       :     0.572886  s :     0.572886
      pz      :    -0.008600  p :     0.000052
      px      :     0.002672
      py      :     0.005980
  9 H s       :     1.001197  s :     1.001197
      pz      :    -0.005578  p :     0.040664
      px      :     0.026346
      py      :     0.019896
 10 H s       :     0.988781  s :     0.988781
      pz      :     0.057046  p :     0.033319
      px      :    -0.010914
      py      :    -0.012813
 11 H s       :     1.055277  s :     1.055277
      pz      :     0.074303  p :     0.072531
      px      :    -0.000186
      py      :    -0.001586
 12 H s       :     0.961987  s :     0.961987
      pz      :    -0.019209  p :     0.026107
      px      :    -0.006421
      py      :     0.051737
 13 H s       :     0.925482  s :     0.925482
      pz      :     0.016972  p :     0.035255
      px      :     0.029341
      py      :    -0.011058


                     *******************************
                     * LOEWDIN POPULATION ANALYSIS *
                     *******************************

----------------------
LOEWDIN ATOMIC CHARGES
----------------------
   0 C :    0.084695
   1 H :    0.052843
   2 N :    0.306112
   3 C :   -0.047796
   4 H :    0.055591
   5 C :    0.147662
   6 H :    0.113070
   7 H :    0.108173
   8 H :    0.123391
   9 H :    0.029086
  10 H :    0.045616
  11 H :   -0.023857
  12 H :    0.005587
  13 H :   -0.000172

-------------------------------
LOEWDIN REDUCED ORBITAL CHARGES
-------------------------------
  0 C s       :     2.677016  s :     2.677016
      pz      :     0.725587  p :     2.601533
      px      :     0.936945
      py      :     0.939002
      dz2     :     0.135472  d :     0.636756
      dxz     :     0.113246
      dyz     :     0.165487
      dx2y2   :     0.096927
      dxy     :     0.125624
  1 H s       :     0.719239  s :     0.719239
      pz      :     0.060925  p :     0.227918
      px      :     0.104676
      py      :     0.062317
  2 N s       :     2.910008  s :     2.910008
      pz      :     1.136150  p :     3.390570
      px      :     1.143926
      py      :     1.110493
      dz2     :     0.100087  d :     0.393310
      dxz     :     0.132918
      dyz     :     0.093580
      dx2y2   :     0.032210
      dxy     :     0.034514
  3 C s       :     2.690234  s :     2.690234
      pz      :     0.935519  p :     2.716315
      px      :     0.921039
      py      :     0.859757
      dz2     :     0.121313  d :     0.641247
      dxz     :     0.107837
      dyz     :     0.072899
      dx2y2   :     0.155062
      dxy     :     0.184137
  4 H s       :     0.717524  s :     0.717524
      pz      :     0.048534  p :     0.226885
      px      :     0.103858
      py      :     0.074494
  5 C s       :     2.699373  s :     2.699373
      pz      :     0.929120  p :     2.770963
      px      :     0.898356
      py      :     0.943487
      dz2     :     0.090094  d :     0.382002
      dxz     :     0.090368
      dyz     :     0.024130
      dx2y2   :     0.101992
      dxy     :     0.075418
  6 H s       :     0.600064  s :     0.600064
      pz      :     0.081430  p :     0.286866
      px      :     0.096729
      py      :     0.108708
  7 H s       :     0.601934  s :     0.601934
      pz      :     0.093901  p :     0.289892
      px      :     0.123203
      py      :     0.072788
  8 H s       :     0.605686  s :     0.605686
      pz      :     0.061905  p :     0.270923
      px      :     0.075238
      py      :     0.133780
  9 H s       :     0.725414  s :     0.725414
      pz      :     0.084330  p :     0.245501
      px      :     0.088860
      py      :     0.072311
 10 H s       :     0.714348  s :     0.714348
      pz      :     0.119712  p :     0.240036
      px      :     0.060926
      py      :     0.059398
 11 H s       :     0.745463  s :     0.745463
      pz      :     0.127471  p :     0.278393
      px      :     0.068653
      py      :     0.082270
 12 H s       :     0.730381  s :     0.730381
      pz      :     0.070804  p :     0.264032
      px      :     0.063986
      py      :     0.129242
 13 H s       :     0.734267  s :     0.734267
      pz      :     0.086734  p :     0.265905
      px      :     0.090478
      py      :     0.088694


                      *****************************
                      * MAYER POPULATION ANALYSIS *
                      *****************************

  NA   - Mulliken gross atomic population
  ZA   - Total nuclear charge
  QA   - Mulliken gross atomic charge
  VA   - Mayer's total valence
  BVA  - Mayer's bonded valence
  FA   - Mayer's free valence

  ATOM       NA         ZA         QA         VA         BVA        FA
  0 C      5.4008     6.0000     0.5992     3.8006     3.8006     0.0000
  1 H      1.0128     1.0000    -0.0128     1.0205     1.0205     0.0000
  2 N      8.0006     7.0000    -1.0006     2.9652     2.9652    -0.0000
  3 C      6.3779     6.0000    -0.3779     4.9955     4.9955    -0.0000
  4 H      1.0200     1.0000    -0.0200     1.0978     1.0978    -0.0000
  5 C      5.3427     6.0000     0.6573     3.8207     3.8207    -0.0000
  6 H      0.5079     1.0000     0.4921     0.5741     0.5741    -0.0000
  7 H      0.6236     1.0000     0.3764     0.7813     0.7813    -0.0000
  8 H      0.5729     1.0000     0.4271     0.6504     0.6504    -0.0000
  9 H      1.0419     1.0000    -0.0419     1.1032     1.1032     0.0000
 10 H      1.0221     1.0000    -0.0221     1.1512     1.1512    -0.0000
 11 H      1.1278     1.0000    -0.1278     1.1547     1.1547    -0.0000
 12 H      0.9881     1.0000     0.0119     1.0315     1.0315    -0.0000
 13 H      0.9607     1.0000     0.0393     1.0590     1.0590    -0.0000

  Mayer bond orders larger than 0.100000
B(  0-C ,  1-H ) :   0.9159 B(  0-C ,  2-N ) :   0.6436 B(  0-C ,  3-C ) :   1.1309 
B(  0-C ,  4-H ) :   0.9145 B(  0-C , 10-H ) :   0.1053 B(  1-H ,  2-N ) :   0.1025 
B(  2-N ,  4-H ) :   0.1242 B(  2-N ,  6-H ) :   0.5963 B(  2-N ,  7-H ) :   0.7681 
B(  2-N ,  8-H ) :   0.6532 B(  3-C ,  5-C ) :   1.2388 B(  3-C ,  9-H ) :   0.9620 
B(  3-C , 10-H ) :   0.9885 B(  3-C , 11-H ) :   0.1704 B(  3-C , 12-H ) :   0.1818 
B(  3-C , 13-H ) :   0.1635 B(  5-C , 11-H ) :   0.8451 B(  5-C , 12-H ) :   0.8213 
B(  5-C , 13-H ) :   0.8139 

-------
TIMINGS
-------

Total SCF time: 0 days 0 hours 0 min 6 sec 

Total time                  ....       6.102 sec
Sum of individual times     ....       5.662 sec  ( 92.8%)

Fock matrix formation       ....       5.034 sec  ( 82.5%)
  Split-RI-J                ....       0.353 sec  (  7.0% of F)
  Chain of spheres X        ....       4.073 sec  ( 80.9% of F)
  XC integration            ....       0.576 sec  ( 11.4% of F)
    Basis function eval.    ....       0.153 sec  ( 26.6% of XC)
    Density eval.           ....       0.107 sec  ( 18.7% of XC)
    XC-Functional eval.     ....       0.047 sec  (  8.1% of XC)
    XC-Potential eval.      ....       0.164 sec  ( 28.4% of XC)
Diagonalization             ....       0.015 sec  (  0.2%)
Density matrix formation    ....       0.005 sec  (  0.1%)
Population analysis         ....       0.008 sec  (  0.1%)
Initial guess               ....       0.041 sec  (  0.7%)
Orbital Transformation      ....       0.000 sec  (  0.0%)
Orbital Orthonormalization  ....       0.000 sec  (  0.0%)
DIIS solution               ....       0.008 sec  (  0.1%)
SOSCF solution              ....       0.039 sec  (  0.6%)
Grid generation             ....       0.513 sec  (  8.4%)

Maximum memory used throughout the entire SCF-calculation: 50.8 MB


-------------------------------------------------------------------------------
                          DFT DISPERSION CORRECTION                            
                                                                               
                              DFTD3 V3.1  Rev 1                                
                              USING zero damping                               
-------------------------------------------------------------------------------
The omegaB97X-D3 functional is recognized. Fit by Chai et al.
Active option DFTDOPT                   ...         3   

molecular C6(AA) [au] = 1175.024419 


            DFT-D V3
 parameters
 s6 scaling factor         :     1.0000 
 rs6 scaling factor        :     1.2810 
 s8 scaling factor         :     1.0000 
 rs8 scaling factor        :     1.0940 
 Damping factor alpha6     :    14.0000 
 Damping factor alpha8     :    16.0000 
 ad hoc parameters k1-k3   :    16.0000     1.3333    -4.0000 

 Edisp/kcal,au: -1.782489268245  -0.002840577157 
 E6   /kcal   :  -0.670352860 
 E8   /kcal   :  -1.112136408 
 % E8         :  62.392319996 

-------------------------   ----------------
Dispersion correction           -0.002840577
-------------------------   ----------------


-------------------------   --------------------
FINAL SINGLE POINT ENERGY      -174.685563689131
-------------------------   --------------------


                            ***************************************
                            *     ORCA property calculations      *
                            ***************************************

                                    ---------------------
                                    Active property flags
                                    ---------------------
   (+) Dipole Moment


------------------------------------------------------------------------------
                       ORCA ELECTRIC PROPERTIES CALCULATION
------------------------------------------------------------------------------

Dipole Moment Calculation                       ... on
Quadrupole Moment Calculation                   ... off
Polarizability Calculation                      ... off
GBWName                                         ... A_wt_dlpno_pos.gbw
Electron density file                           ... A_wt_dlpno_pos.scfp
The origin for moment calculation is the CENTER OF MASS  = ( 0.770852, -2.607257 -4.996957)

-------------
DIPOLE MOMENT
-------------
                                X             Y             Z
Electronic contribution:      1.49146      -1.84931      -0.71218
Nuclear contribution   :     -0.52914       0.42437      -0.52967
                        -----------------------------------------
Total Dipole Moment    :      0.96232      -1.42494      -1.24186
                        -----------------------------------------
Magnitude (a.u.)       :      2.12102
Magnitude (Debye)      :      5.39121



--------------------
Rotational spectrum 
--------------------
 
Rotational constants in cm-1:     0.462856     0.150885     0.132529 
Rotational constants in MHz : 13876.083919  4523.416930  3973.119974 

 Dipole components along the rotational axes: 
x,y,z [a.u.] :     2.021669    -0.615985     0.179313 
x,y,z [Debye]:     5.138675    -1.565710     0.455777 

 

Timings for individual modules:

Sum of individual times         ...        7.229 sec (=   0.120 min)
GTO integral calculation        ...        0.678 sec (=   0.011 min)   9.4 %
SCF iterations                  ...        6.551 sec (=   0.109 min)  90.6 %
                             ****ORCA TERMINATED NORMALLY****
TOTAL RUN TIME: 0 days 0 hours 0 minutes 7 seconds 793 msec
