
                                        *****************
                                        * O   R   C   A *
                                        *****************

                                            #,                                       
                                            ###                                      
                                            ####                                     
                                            #####                                    
                                            ######                                   
                                           ########,                                 
                                     ,,################,,,,,                         
                               ,,#################################,,                 
                          ,,##########################################,,             
                       ,#########################################, ''#####,          
                    ,#############################################,,   '####,        
                  ,##################################################,,,,####,       
                ,###########''''           ''''###############################       
              ,#####''   ,,,,##########,,,,          '''####'''          '####       
            ,##' ,,,,###########################,,,                        '##       
           ' ,,###''''                  '''############,,,                           
         ,,##''                                '''############,,,,        ,,,,,,###''
      ,#''                                            '''#######################'''  
     '                                                          ''''####''''         
             ,#######,   #######,   ,#######,      ##                                
            ,#'     '#,  ##    ##  ,#'     '#,    #''#        ######   ,####,        
            ##       ##  ##   ,#'  ##            #'  '#       #        #'  '#        
            ##       ##  #######   ##           ,######,      #####,   #    #        
            '#,     ,#'  ##    ##  '#,     ,#' ,#      #,         ##   #,  ,#        
             '#######'   ##     ##  '#######'  #'      '#     #####' # '####'        



                  #######################################################
                  #                        -***-                        #
                  #          Department of theory and spectroscopy      #
                  #    Directorship and core code : Frank Neese         #
                  #        Max Planck Institute fuer Kohlenforschung    #
                  #                Kaiser Wilhelm Platz 1               #
                  #                 D-45470 Muelheim/Ruhr               #
                  #                      Germany                        #
                  #                                                     #
                  #                  All rights reserved                #
                  #                        -***-                        #
                  #######################################################


                         Program Version 5.0.0 -  RELEASE  -
                                (SVN: $Rev: 19529$)
                ($Date: 2021-06-28 11:36:33 +0200 (Mo, 28 Jun 2021) $)


 With contributions from (in alphabetic order):
   Daniel Aravena         : Magnetic Suceptibility
   Michael Atanasov       : Ab Initio Ligand Field Theory (pilot matlab implementation)
   Alexander A. Auer      : GIAO ZORA, VPT2 properties, NMR spectrum
   Ute Becker             : Parallelization
   Giovanni Bistoni       : ED, misc. LED, open-shell LED, HFLD
   Martin Brehm           : Molecular dynamics
   Dmytro Bykov           : SCF Hessian
   Vijay G. Chilkuri      : MRCI spin determinant printing, contributions to CSF-ICE
   Dipayan Datta          : RHF DLPNO-CCSD density
   Achintya Kumar Dutta   : EOM-CC, STEOM-CC
   Dmitry Ganyushin       : Spin-Orbit,Spin-Spin,Magnetic field MRCI
   Miquel Garcia          : C-PCM Hessian, Gaussian charge scheme
   Yang Guo               : DLPNO-NEVPT2, F12-NEVPT2, CIM, IAO-localization
   Andreas Hansen         : Spin unrestricted coupled pair/coupled cluster methods
   Benjamin Helmich-Paris : MC-RPA, TRAH-SCF, COSX integrals
   Lee Huntington         : MR-EOM, pCC
   Robert Izsak           : Overlap fitted RIJCOSX, COSX-SCS-MP3, EOM
   Marcus Kettner         : VPT2
   Christian Kollmar      : KDIIS, OOCD, Brueckner-CCSD(T), CCSD density, CASPT2, CASPT2-K
   Simone Kossmann        : Meta GGA functionals, TD-DFT gradient, OOMP2, MP2 Hessian
   Martin Krupicka        : Initial AUTO-CI
   Lucas Lang             : DCDCAS
   Marvin Lechner         : AUTO-CI (C++ implementation), FIC-MRCC
   Dagmar Lenk            : GEPOL surface, SMD
   Dimitrios Liakos       : Extrapolation schemes; Compound Job, initial MDCI parallelization
   Dimitrios Manganas     : Further ROCIS development; embedding schemes
   Dimitrios Pantazis     : SARC Basis sets
   Anastasios Papadopoulos: AUTO-CI, single reference methods and gradients
   Taras Petrenko         : DFT Hessian,TD-DFT gradient, ASA, ECA, R-Raman, ABS, FL, XAS/XES, NRVS
   Peter Pinski           : DLPNO-MP2, DLPNO-MP2 Gradient
   Christoph Reimann      : Effective Core Potentials
   Marius Retegan         : Local ZFS, SOC
   Christoph Riplinger    : Optimizer, TS searches, QM/MM, DLPNO-CCSD(T), (RO)-DLPNO pert. Triples
   Tobias Risthaus        : Range-separated hybrids, TD-DFT gradient, RPA, STAB
   Michael Roemelt        : Original ROCIS implementation
   Masaaki Saitow         : Open-shell DLPNO-CCSD energy and density
   Barbara Sandhoefer     : DKH picture change effects
   Avijit Sen             : IP-ROCIS
   Kantharuban Sivalingam : CASSCF convergence, NEVPT2, FIC-MRCI
   Bernardo de Souza      : ESD, SOC TD-DFT
   Georgi Stoychev        : AutoAux, RI-MP2 NMR
   Willem Van den Heuvel  : Paramagnetic NMR
   Boris Wezisla          : Elementary symmetry handling
   Frank Wennmohs         : Technical directorship


 We gratefully acknowledge several colleagues who have allowed us to
 interface, adapt or use parts of their codes:
   Stefan Grimme, W. Hujo, H. Kruse, P. Pracht,  : VdW corrections, initial TS optimization,
                  C. Bannwarth, S. Ehlert          DFT functionals, gCP, sTDA/sTD-DF
   Ed Valeev, F. Pavosevic, A. Kumar             : LibInt (2-el integral package), F12 methods
   Garnet Chan, S. Sharma, J. Yang, R. Olivares  : DMRG
   Ulf Ekstrom                                   : XCFun DFT Library
   Mihaly Kallay                                 : mrcc  (arbitrary order and MRCC methods)
   Jiri Pittner, Ondrej Demel                    : Mk-CCSD
   Frank Weinhold                                : gennbo (NPA and NBO analysis)
   Christopher J. Cramer and Donald G. Truhlar   : smd solvation model
   Lars Goerigk                                  : TD-DFT with DH, B97 family of functionals
   V. Asgeirsson, H. Jonsson                     : NEB implementation
   FAccTs GmbH                                   : IRC, NEB, NEB-TS, DLPNO-Multilevel, CI-OPT
                                                   MM, QMMM, 2- and 3-layer-ONIOM, Crystal-QMMM,
                                                   LR-CPCM, SF, NACMEs, symmetry and pop. for TD-DFT,
                                                   nearIR, NL-DFT gradient (VV10), updates on ESD,
                                                   ML-optimized integration grids
   S Lehtola, MJT Oliveira, MAL Marques          : LibXC Library
   Liviu Ungur et al                             : ANISO software


 Your calculation uses the libint2 library for the computation of 2-el integrals
 For citations please refer to: http://libint.valeyev.net

 Your ORCA version has been built with support for libXC version: 5.1.0
 For citations please refer to: https://tddft.org/programs/libxc/

 This ORCA versions uses:
   CBLAS   interface :  Fast vector & matrix operations
   LAPACKE interface :  Fast linear algebra routines
   SCALAPACK package :  Parallel linear algebra routines
   Shared memory     :  Shared parallel matrices
   BLAS/LAPACK       :  OpenBLAS 0.3.15  USE64BITINT DYNAMIC_ARCH NO_AFFINITY Haswell SINGLE_THREADED
        Core in use  :  Haswell
   Copyright (c) 2011-2014, The OpenBLAS Project


Your calculation utilizes the atom-pairwise dispersion correction
with the Becke-Johnson damping scheme (D3BJ)
Cite in your paper:
S.Grimme, S.Ehrlich, L.Goerigk, J Comput Chem, (2011), 32, 1456–1465 
S.Grimme, J.Antony, S.Ehrlich and H.Krieg, J.Chem.Phys., 132, (2010), 154104 
   

================================================================================

----- Orbital basis set information -----
Your calculation utilizes the basis: def2-SVPD
   F. Weigend and R. Ahlrichs, Phys. Chem. Chem. Phys. 7, 3297 (2005).
   D. Rappoport and F. Furche, J. Chem. Phys. 133 134105 (2010).

----- AuxJ basis set information -----
Your calculation utilizes the auxiliary basis: def2/J
   F. Weigend, Phys. Chem. Chem. Phys. 8, 1057 (2006).

================================================================================
                                        WARNINGS
                       Please study these warnings very carefully!
================================================================================


INFO   : the flag for use of the SHARK integral package has been found!

================================================================================
                                       INPUT FILE
================================================================================
NAME = 18Feb_SVPD_B3LYP_C3_wt_wb97_typm1_pos.com
|  1> !B3LYP D3BJ RIJCOSX def2-SVPD def2/J TightSCF 
|  2> *xyz 0 1
|  3> C          1.96337       -1.74915       -1.89689
|  4> N          2.73849       -2.01517       -3.09711
|  5> C          4.04974       -2.15472       -3.15204
|  6> N          4.65821       -1.98629       -4.31866
|  7> C          4.76423       -2.45444       -2.05049
|  8> H          4.28736       -2.77626       -1.21750
|  9> H          5.75082       -2.65835       -2.12599
| 10> H          2.34518       -1.69027       -3.97145
| 11> H          4.10900       -1.59268       -5.07176
| 12> H          5.64910       -2.15646       -4.42724
| 13> H          0.92556       -1.68522       -2.14942
| 14> H          2.28268       -0.82430       -1.46378
| 15> H          2.11118       -2.54207       -1.19381
| 16> *
| 17> %MaxCore 64000
| 18> 
| 19> %pal nprocs 8
| 20> end  
| 21> 
| 22> %scf
| 23>   MaxIter 150
| 24> end
| 25> 
| 26> 
| 27>                          ****END OF INPUT****
================================================================================

                       ****************************
                       * Single Point Calculation *
                       ****************************

---------------------------------
CARTESIAN COORDINATES (ANGSTROEM)
---------------------------------
  C      1.963370   -1.749150   -1.896890
  N      2.738490   -2.015170   -3.097110
  C      4.049740   -2.154720   -3.152040
  N      4.658210   -1.986290   -4.318660
  C      4.764230   -2.454440   -2.050490
  H      4.287360   -2.776260   -1.217500
  H      5.750820   -2.658350   -2.125990
  H      2.345180   -1.690270   -3.971450
  H      4.109000   -1.592680   -5.071760
  H      5.649100   -2.156460   -4.427240
  H      0.925560   -1.685220   -2.149420
  H      2.282680   -0.824300   -1.463780
  H      2.111180   -2.542070   -1.193810

----------------------------
CARTESIAN COORDINATES (A.U.)
----------------------------
  NO LB      ZA    FRAG     MASS         X           Y           Z
   0 C     6.0000    0    12.011    3.710232   -3.305414   -3.584603
   1 N     7.0000    0    14.007    5.174996   -3.808119   -5.852690
   2 C     6.0000    0    12.011    7.652900   -4.071831   -5.956492
   3 N     7.0000    0    14.007    8.802741   -3.753544   -8.161085
   4 C     6.0000    0    12.011    9.003090   -4.638219   -3.874865
   5 H     1.0000    0     1.008    8.101936   -5.246371   -2.300742
   6 H     1.0000    0     1.008   10.867475   -5.023553   -4.017539
   7 H     1.0000    0     1.008    4.431748   -3.194147   -7.504953
   8 H     1.0000    0     1.008    7.764885   -3.009729   -9.584237
   9 H     1.0000    0     1.008   10.675252   -4.075119   -8.366271
  10 H     1.0000    0     1.008    1.749055   -3.184604   -4.061815
  11 H     1.0000    0     1.008    4.313640   -1.557701   -2.766143
  12 H     1.0000    0     1.008    3.989552   -4.803816   -2.255974

--------------------------------
INTERNAL COORDINATES (ANGSTROEM)
--------------------------------
 C      0   0   0     0.000000000000     0.00000000     0.00000000
 N      1   0   0     1.453308536822     0.00000000     0.00000000
 C      2   1   0     1.319798495945   125.70558414     0.00000000
 N      3   2   1     1.326501651036   118.61421616   200.38175597
 C      3   2   1     1.346751811211   121.10321023    20.01727886
 H      5   3   2     1.012346506588   119.59453702    13.56866466
 H      5   3   2     1.010266977685   120.12495650   173.22985716
 H      2   1   3     1.012286126399   116.57303880   207.34688220
 H      4   3   2     1.011790524862   117.06612917    10.99918763
 H      4   3   2     1.011242027113   121.50248980   185.08027543
 H      1   2   3     1.070003757891   109.47098058   179.99987936
 H      1   2   3     1.069995640505   109.47152212    59.99999776
 H      1   2   3     1.069995985460   109.47133183   300.00016595

---------------------------
INTERNAL COORDINATES (A.U.)
---------------------------
 C      0   0   0     0.000000000000     0.00000000     0.00000000
 N      1   0   0     2.746355122684     0.00000000     0.00000000
 C      2   1   0     2.494057709298   125.70558414     0.00000000
 N      3   2   1     2.506724836652   118.61421616   200.38175597
 C      3   2   1     2.544992093551   121.10321023    20.01727886
 H      5   3   2     1.913057650082   119.59453702    13.56866466
 H      5   3   2     1.909127909968   120.12495650   173.22985716
 H      2   1   3     1.912943548062   116.57303880   207.34688220
 H      4   3   2     1.912006996885   117.06612917    10.99918763
 H      4   3   2     1.910970486355   121.50248980   185.08027543
 H      1   2   3     2.022014064680   109.47098058   179.99987936
 H      1   2   3     2.021998725044   109.47152212    59.99999776
 H      1   2   3     2.021999376914   109.47133183   300.00016595

---------------------
BASIS SET INFORMATION
---------------------
There are 3 groups of distinct atoms

 Group   1 Type C   : 8s4p2d contracted to 4s2p2d pattern {5111/31/11}
 Group   2 Type N   : 8s4p2d contracted to 4s2p2d pattern {5111/31/11}
 Group   3 Type H   : 4s2p contracted to 2s2p pattern {31/11}

Atom   0C    basis set group =>   1
Atom   1N    basis set group =>   2
Atom   2C    basis set group =>   1
Atom   3N    basis set group =>   2
Atom   4C    basis set group =>   1
Atom   5H    basis set group =>   3
Atom   6H    basis set group =>   3
Atom   7H    basis set group =>   3
Atom   8H    basis set group =>   3
Atom   9H    basis set group =>   3
Atom  10H    basis set group =>   3
Atom  11H    basis set group =>   3
Atom  12H    basis set group =>   3
---------------------------------
AUXILIARY/J BASIS SET INFORMATION
---------------------------------
There are 3 groups of distinct atoms

 Group   1 Type C   : 12s5p4d2f1g contracted to 6s4p3d1f1g pattern {711111/2111/211/2/1}
 Group   2 Type N   : 12s5p4d2f1g contracted to 6s4p3d1f1g pattern {711111/2111/211/2/1}
 Group   3 Type H   : 5s2p1d contracted to 3s1p1d pattern {311/2/1}

Atom   0C    basis set group =>   1
Atom   1N    basis set group =>   2
Atom   2C    basis set group =>   1
Atom   3N    basis set group =>   2
Atom   4C    basis set group =>   1
Atom   5H    basis set group =>   3
Atom   6H    basis set group =>   3
Atom   7H    basis set group =>   3
Atom   8H    basis set group =>   3
Atom   9H    basis set group =>   3
Atom  10H    basis set group =>   3
Atom  11H    basis set group =>   3
Atom  12H    basis set group =>   3


           ************************************************************
           *        Program running with 8 parallel MPI-processes     *
           *              working on a common directory               *
           ************************************************************
------------------------------------------------------------------------------
                           ORCA GTO INTEGRAL CALCULATION
                           -- RI-GTO INTEGRALS CHOSEN --
------------------------------------------------------------------------------
------------------------------------------------------------------------------
                   ___                                                        
                  /   \      - P O W E R E D   B Y -                         
                 /     \                                                     
                 |  |  |   _    _      __       _____    __    __             
                 |  |  |  | |  | |    /  \     |  _  \  |  |  /  |          
                  \  \/   | |  | |   /    \    | | | |  |  | /  /          
                 / \  \   | |__| |  /  /\  \   | |_| |  |  |/  /          
                |  |  |   |  __  | /  /__\  \  |    /   |      \           
                |  |  |   | |  | | |   __   |  |    \   |  |\   \          
                \     /   | |  | | |  |  |  |  | |\  \  |  | \   \       
                 \___/    |_|  |_| |__|  |__|  |_| \__\ |__|  \__/        
                                                                              
                      - O R C A' S   B I G   F R I E N D -                    
                                      &                                       
                       - I N T E G R A L  F E E D E R -                       
                                                                              
 v1 FN, 2020, v2 2021                                                         
------------------------------------------------------------------------------


Reading SHARK input file 18Feb_SVPD_B3LYP_C3_wt_wb97_typm1_pos.SHARKINP.tmp ... ok
----------------------
SHARK INTEGRAL PACKAGE
----------------------

Number of atoms                             ...     13
Number of basis functions                   ...    164
Number of shells                            ...     72
Maximum angular momentum                    ...      2
Integral batch strategy                     ... SHARK/LIBINT Hybrid
RI-J (if used) integral strategy            ... SPLIT-RIJ (Revised 2003 algorithm where possible)
Printlevel                                  ...      1
Contraction scheme used                     ... SEGMENTED contraction
Coulomb Range Separation                    ... NOT USED
Exchange Range Separation                   ... NOT USED
Finite Nucleus Model                        ... NOT USED
Auxiliary Coulomb fitting basis             ... AVAILABLE
   # of basis functions in Aux-J            ...    333
   # of shells in Aux-J                     ...    115
   Maximum angular momentum in Aux-J        ...      4
Auxiliary J/K fitting basis                 ... NOT available
Auxiliary Correlation fitting basis         ... NOT available
Auxiliary 'external' fitting basis          ... NOT available
Integral threshold                          ...     2.500000e-11
Primitive cut-off                           ...     2.500000e-12
Primitive pair pre-selection threshold      ...     2.500000e-12

Calculating pre-screening integrals         ... done (  0.0 sec) Dimension = 72
Organizing shell pair data                  ... done (  0.0 sec)
Shell pair information
Total number of shell pairs                 ...      2628
Shell pairs after pre-screening             ...      2604
Total number of primitive shell pairs       ...      7110
Primitive shell pairs kept                  ...      6008
          la=0 lb=0:    658 shell pairs
          la=1 lb=0:    926 shell pairs
          la=1 lb=1:    347 shell pairs
          la=2 lb=0:    358 shell pairs
          la=2 lb=1:    260 shell pairs
          la=2 lb=2:     55 shell pairs

Calculating one electron integrals          ... done (  0.0 sec)
Calculating RI/J V-Matrix + Cholesky decomp.... done (  0.0 sec)
Calculating Nuclear repulsion               ... done (  0.0 sec) ENN=    185.231664504046 Eh

SHARK setup successfully completed in   0.2 seconds

Maximum memory used throughout the entire GTOINT-calculation: 8.9 MB


           ************************************************************
           *        Program running with 8 parallel MPI-processes     *
           *              working on a common directory               *
           ************************************************************
-------------------------------------------------------------------------------
                                 ORCA SCF
-------------------------------------------------------------------------------

------------
SCF SETTINGS
------------
Hamiltonian:
 Density Functional     Method          .... DFT(GTOs)
 Exchange Functional    Exchange        .... B88
   X-Alpha parameter    XAlpha          ....  0.666667
   Becke's b parameter  XBeta           ....  0.004200
 Correlation Functional Correlation     .... LYP
 LDA part of GGA corr.  LDAOpt          .... VWN-5
 Gradients option       PostSCFGGA      .... off
 Hybrid DFT is turned on
   Fraction HF Exchange ScalHFX         ....  0.200000
   Scaling of DF-GGA-X  ScalDFX         ....  0.720000
   Scaling of DF-GGA-C  ScalDFC         ....  0.810000
   Scaling of DF-LDA-C  ScalLDAC        ....  1.000000
   Perturbative correction              ....  0.000000
   Density functional embedding theory  .... OFF
   NL short-range parameter             ....  4.800000
 RI-approximation to the Coulomb term is turned on
   Number of AuxJ basis functions       .... 333
   RIJ-COSX (HFX calculated with COS-X)).... on


General Settings:
 Integral files         IntName         .... 18Feb_SVPD_B3LYP_C3_wt_wb97_typm1_pos
 Hartree-Fock type      HFTyp           .... RHF
 Total Charge           Charge          ....    0
 Multiplicity           Mult            ....    1
 Number of Electrons    NEL             ....   40
 Basis Dimension        Dim             ....  164
 Nuclear Repulsion      ENuc            ....    185.2316645040 Eh

Convergence Acceleration:
 DIIS                   CNVDIIS         .... on
   Start iteration      DIISMaxIt       ....    12
   Startup error        DIISStart       ....  0.200000
   # of expansion vecs  DIISMaxEq       ....     5
   Bias factor          DIISBfac        ....   1.050
   Max. coefficient     DIISMaxC        ....  10.000
 Trust-Rad. Augm. Hess. CNVTRAH         .... auto
   Auto Start mean grad. ratio tolernc. ....  1.125000
   Auto Start start iteration           ....    20
   Auto Start num. interpolation iter.  ....    10
   Max. Number of Micro iterations      ....    16
   Max. Number of Macro iterations      .... Maxiter - #DIIS iter
   Number of Davidson start vectors     ....     2
   Converg. threshold I  (grad. norm)   ....   1.000e-05
   Converg. threshold II (energy diff.) ....   1.000e-08
   Grad. Scal. Fac. for Micro threshold ....   0.100
   Minimum threshold for Micro iter.    ....   0.010
   NR start threshold (gradient norm)   ....   0.001
   Initial trust radius                 ....   0.400
   Minimum AH scaling param. (alpha)    ....   1.000
   Maximum AH scaling param. (alpha)    .... 1000.000
   Orbital update algorithm             .... Taylor
   White noise on init. David. guess    .... on
   Maximum white noise                  ....   0.010
   Quad. conv. algorithm                .... NR
 SOSCF                  CNVSOSCF        .... on
   Start iteration      SOSCFMaxIt      ....   150
   Startup grad/error   SOSCFStart      ....  0.003300
 Level Shifting         CNVShift        .... on
   Level shift para.    LevelShift      ....    0.2500
   Turn off err/grad.   ShiftErr        ....    0.0010
 Zerner damping         CNVZerner       .... off
 Static damping         CNVDamp         .... on
   Fraction old density DampFac         ....    0.7000
   Max. Damping (<1)    DampMax         ....    0.9800
   Min. Damping (>=0)   DampMin         ....    0.0000
   Turn off err/grad.   DampErr         ....    0.1000
 Fernandez-Rico         CNVRico         .... off

SCF Procedure:
 Maximum # iterations   MaxIter         ....   150
 SCF integral mode      SCFMode         .... Direct
   Integral package                     .... SHARK and LIBINT hybrid scheme
 Reset frequency        DirectResetFreq ....    20
 Integral Threshold     Thresh          ....  2.500e-11 Eh
 Primitive CutOff       TCut            ....  2.500e-12 Eh

Convergence Tolerance:
 Convergence Check Mode ConvCheckMode   .... Total+1el-Energy
 Convergence forced     ConvForced      .... 0
 Energy Change          TolE            ....  1.000e-08 Eh
 1-El. energy change                    ....  1.000e-05 Eh
 Orbital Gradient       TolG            ....  1.000e-05
 Orbital Rotation angle TolX            ....  1.000e-05
 DIIS Error             TolErr          ....  5.000e-07


Diagonalization of the overlap matrix:
Smallest eigenvalue                        ... 6.513e-05
Time for diagonalization                   ...    0.008 sec
Threshold for overlap eigenvalues          ... 1.000e-08
Number of eigenvalues below threshold      ... 0
Time for construction of square roots      ...    0.007 sec
Total time needed                          ...    0.016 sec

Time for model grid setup =    0.054 sec

------------------------------
INITIAL GUESS: MODEL POTENTIAL
------------------------------
Loading Hartree-Fock densities                     ... done
Calculating cut-offs                               ... done
Initializing the effective Hamiltonian             ... done
Setting up the integral package (SHARK)            ... done
Starting the Coulomb interaction                   ... done (   0.0 sec)
Reading the grid                                   ... done
Mapping shells                                     ... done
Starting the XC term evaluation                    ... done (   0.0 sec)
  promolecular density results
     # of electrons  =     39.995540322
     EX              =    -31.043912429
     EC              =     -1.319430594
     EX+EC           =    -32.363343022
Transforming the Hamiltonian                       ... done (   0.0 sec)
Diagonalizing the Hamiltonian                      ... done (   0.0 sec)
Back transforming the eigenvectors                 ... done (   0.0 sec)
Now organizing SCF variables                       ... done
                      ------------------
                      INITIAL GUESS DONE (   0.1 sec)
                      ------------------
-------------------
DFT GRID GENERATION
-------------------

General Integration Accuracy     IntAcc      ... 4.388
Radial Grid Type                 RadialGrid  ... OptM3 with GC (2021)
Angular Grid (max. ang.)         AngularGrid ... 4 (Lebedev-302)
Angular grid pruning method      GridPruning ... 4 (adaptive)
Weight generation scheme         WeightScheme... Becke
Basis function cutoff            BFCut       ... 1.0000e-11
Integration weight cutoff        WCut        ... 1.0000e-14
Angular grids for H and He will be reduced by one unit
Partially contracted basis set               ... off
Rotationally invariant grid construction     ... off

Total number of grid points                  ...    57648
Total number of batches                      ...      907
Average number of points per batch           ...       63
Average number of grid points per atom       ...     4434
Time for grid setup =    0.312 sec

--------------------
COSX GRID GENERATION
--------------------

GRIDX 1
-------
General Integration Accuracy     IntAcc      ... 3.816
Radial Grid Type                 RadialGrid  ... OptM3 with GC (2021)
Angular Grid (max. ang.)         AngularGrid ... 1 (Lebedev-50)
Angular grid pruning method      GridPruning ... 4 (adaptive)
Weight generation scheme         WeightScheme... Becke
Basis function cutoff            BFCut       ... 1.0000e-11
Integration weight cutoff        WCut        ... 1.0000e-14
Angular grids for H and He will be reduced by one unit
Partially contracted basis set               ... on
Rotationally invariant grid construction     ... off

Total number of grid points                  ...     7218
Total number of batches                      ...      121
Average number of points per batch           ...       59
Average number of grid points per atom       ...      555
UseSFitting                                  ... on

GRIDX 2
-------
General Integration Accuracy     IntAcc      ... 4.020
Radial Grid Type                 RadialGrid  ... OptM3 with GC (2021)
Angular Grid (max. ang.)         AngularGrid ... 2 (Lebedev-110)
Angular grid pruning method      GridPruning ... 4 (adaptive)
Weight generation scheme         WeightScheme... Becke
Basis function cutoff            BFCut       ... 1.0000e-11
Integration weight cutoff        WCut        ... 1.0000e-14
Angular grids for H and He will be reduced by one unit
Partially contracted basis set               ... on
Rotationally invariant grid construction     ... off

Total number of grid points                  ...    15951
Total number of batches                      ...      256
Average number of points per batch           ...       62
Average number of grid points per atom       ...     1227
UseSFitting                                  ... on

GRIDX 3
-------
General Integration Accuracy     IntAcc      ... 4.338
Radial Grid Type                 RadialGrid  ... OptM3 with GC (2021)
Angular Grid (max. ang.)         AngularGrid ... 3 (Lebedev-194)
Angular grid pruning method      GridPruning ... 4 (adaptive)
Weight generation scheme         WeightScheme... Becke
Basis function cutoff            BFCut       ... 1.0000e-11
Integration weight cutoff        WCut        ... 1.0000e-14
Angular grids for H and He will be reduced by one unit
Partially contracted basis set               ... on
Rotationally invariant grid construction     ... off

Total number of grid points                  ...    36553
Total number of batches                      ...      578
Average number of points per batch           ...       63
Average number of grid points per atom       ...     2812
UseSFitting                                  ... on

Time for X-Grid setup             =    0.245 sec

--------------
SCF ITERATIONS
--------------
ITER       Energy         Delta-E        Max-DP      RMS-DP      [F,P]     Damp
               ***  Starting incremental Fock matrix formation  ***
  0   -228.0394029326   0.000000000000 0.12734366  0.00404426  0.2443873 0.7000
  1   -228.1618946150  -0.122491682347 0.11882234  0.00280642  0.1272952 0.7000
                               ***Turning on DIIS***
  2   -228.2106033426  -0.048708727629 0.31127381  0.00547657  0.0468980 0.0000
  3   -228.2759842492  -0.065380906575 0.05031462  0.00148776  0.0723604 0.0000
  4   -228.2976926165  -0.021708367333 0.02067626  0.00058225  0.0167901 0.0000
  5   -228.2989851717  -0.001292555205 0.00742135  0.00024166  0.0047596 0.0000
                      *** Initiating the SOSCF procedure ***
                           *** Shutting down DIIS ***
                      *** Re-Reading the Fockian *** 
                      *** Removing any level shift *** 
ITER      Energy       Delta-E        Grad      Rot      Max-DP    RMS-DP
  6   -228.29909838  -0.0001132111  0.000571  0.000571  0.004132  0.000114
               *** Restarting incremental Fock matrix formation ***
  7   -228.29909137   0.0000070156  0.000279  0.000884  0.003367  0.000122
  8   -228.29909306  -0.0000016903  0.000103  0.000304  0.000841  0.000037
  9   -228.29909356  -0.0000005038  0.000089  0.000281  0.000643  0.000026
 10   -228.29909370  -0.0000001379  0.000047  0.000088  0.000166  0.000006
 11   -228.29909372  -0.0000000192  0.000020  0.000026  0.000160  0.000007
 12   -228.29909374  -0.0000000180  0.000003  0.000005  0.000033  0.000001
 13   -228.29909373   0.0000000015  0.000003  0.000005  0.000028  0.000001
                 **** Energy Check signals convergence ****
              ***Rediagonalizing the Fockian in SOSCF/NRSCF***

               *****************************************************
               *                     SUCCESS                       *
               *           SCF CONVERGED AFTER  14 CYCLES          *
               *****************************************************

Old exchange energy                            =     -6.339087983 Eh
New exchange energy                            =     -6.339121805 Eh
Exchange energy change after final integration =     -0.000033822 Eh
Total energy after final integration           =   -228.299127558 Eh
Final COS-X integration done in                =     0.923 sec

----------------
TOTAL SCF ENERGY
----------------

Total Energy       :         -228.29912756 Eh           -6212.33509 eV

Components:
Nuclear Repulsion  :          185.23166450 Eh            5040.40984 eV
Electronic Energy  :         -413.53079206 Eh          -11252.74493 eV
One Electron Energy:         -673.99943102 Eh          -18340.45693 eV
Two Electron Energy:          260.46863896 Eh            7087.71200 eV
Max COSX asymmetry :            0.00000413 Eh               0.00011 eV

Virial components:
Potential Energy   :         -454.72240062 Eh          -12373.62558 eV
Kinetic Energy     :          226.42327307 Eh            6161.29049 eV
Virial Ratio       :            2.00828472


DFT components:
N(Alpha)           :       20.000006216317 electrons
N(Beta)            :       20.000006216317 electrons
N(Total)           :       40.000012432635 electrons
E(X)               :      -25.163880600255 Eh       
E(C)               :       -1.563784272600 Eh       
E(XC)              :      -26.727664872855 Eh       
DFET-embed. en.    :        0.000000000000 Eh       

---------------
SCF CONVERGENCE
---------------

  Last Energy change         ...   -8.6831e-10  Tolerance :   1.0000e-08
  Last MAX-Density change    ...    5.7732e-15  Tolerance :   1.0000e-07
  Last RMS-Density change    ...    5.7178e-17  Tolerance :   5.0000e-09
  Last Orbital Gradient      ...    8.0777e-07  Tolerance :   1.0000e-05
  Last Orbital Rotation      ...    2.2321e-06  Tolerance :   1.0000e-05

             **** THE GBW FILE WAS UPDATED (18Feb_SVPD_B3LYP_C3_wt_wb97_typm1_pos.gbw) ****
             **** DENSITY 18Feb_SVPD_B3LYP_C3_wt_wb97_typm1_pos.scfp WAS UPDATED ****
             **** ENERGY FILE WAS UPDATED (18Feb_SVPD_B3LYP_C3_wt_wb97_typm1_pos.en.tmp) ****
             **** THE GBW FILE WAS UPDATED (18Feb_SVPD_B3LYP_C3_wt_wb97_typm1_pos.gbw) ****
             **** DENSITY 18Feb_SVPD_B3LYP_C3_wt_wb97_typm1_pos.scfp WAS UPDATED ****
----------------
ORBITAL ENERGIES
----------------

  NO   OCC          E(Eh)            E(eV) 
   0   2.0000     -14.334163      -390.0524 
   1   2.0000     -14.331975      -389.9929 
   2   2.0000     -10.227912      -278.3156 
   3   2.0000     -10.208939      -277.7993 
   4   2.0000     -10.097208      -274.7590 
   5   2.0000      -0.964957       -26.2578 
   6   2.0000      -0.876848       -23.8603 
   7   2.0000      -0.714379       -19.4392 
   8   2.0000      -0.690465       -18.7885 
   9   2.0000      -0.567104       -15.4317 
  10   2.0000      -0.546850       -14.8805 
  11   2.0000      -0.524615       -14.2755 
  12   2.0000      -0.453421       -12.3382 
  13   2.0000      -0.449185       -12.2230 
  14   2.0000      -0.417067       -11.3490 
  15   2.0000      -0.384058       -10.4507 
  16   2.0000      -0.373221       -10.1559 
  17   2.0000      -0.366007        -9.9596 
  18   2.0000      -0.252262        -6.8644 
  19   2.0000      -0.165916        -4.5148 
  20   0.0000       0.010496         0.2856 
  21   0.0000       0.036084         0.9819 
  22   0.0000       0.050417         1.3719 
  23   0.0000       0.072021         1.9598 
  24   0.0000       0.083759         2.2792 
  25   0.0000       0.090971         2.4755 
  26   0.0000       0.097041         2.6406 
  27   0.0000       0.113100         3.0776 
  28   0.0000       0.132330         3.6009 
  29   0.0000       0.140765         3.8304 
  30   0.0000       0.149923         4.0796 
  31   0.0000       0.161262         4.3882 
  32   0.0000       0.167577         4.5600 
  33   0.0000       0.178785         4.8650 
  34   0.0000       0.192452         5.2369 
  35   0.0000       0.193931         5.2771 
  36   0.0000       0.227117         6.1802 
  37   0.0000       0.236561         6.4371 
  38   0.0000       0.247340         6.7305 
  39   0.0000       0.254121         6.9150 
  40   0.0000       0.266384         7.2487 
  41   0.0000       0.273155         7.4329 
  42   0.0000       0.289907         7.8888 
  43   0.0000       0.295882         8.0514 
  44   0.0000       0.307687         8.3726 
  45   0.0000       0.316806         8.6207 
  46   0.0000       0.321618         8.7517 
  47   0.0000       0.336356         9.1527 
  48   0.0000       0.351512         9.5651 
  49   0.0000       0.356505         9.7010 
  50   0.0000       0.365569         9.9476 
  51   0.0000       0.373261        10.1570 
  52   0.0000       0.376107        10.2344 
  53   0.0000       0.380687        10.3590 
  54   0.0000       0.396907        10.8004 
  55   0.0000       0.402307        10.9473 
  56   0.0000       0.420112        11.4318 
  57   0.0000       0.432267        11.7626 
  58   0.0000       0.438627        11.9356 
  59   0.0000       0.447476        12.1765 
  60   0.0000       0.458808        12.4848 
  61   0.0000       0.462215        12.5775 
  62   0.0000       0.475135        12.9291 
  63   0.0000       0.480681        13.0800 
  64   0.0000       0.485555        13.2126 
  65   0.0000       0.492434        13.3998 
  66   0.0000       0.498060        13.5529 
  67   0.0000       0.516353        14.0507 
  68   0.0000       0.526224        14.3193 
  69   0.0000       0.534527        14.5452 
  70   0.0000       0.550305        14.9745 
  71   0.0000       0.555866        15.1259 
  72   0.0000       0.579637        15.7727 
  73   0.0000       0.590163        16.0591 
  74   0.0000       0.605206        16.4685 
  75   0.0000       0.618644        16.8342 
  76   0.0000       0.638146        17.3648 
  77   0.0000       0.648954        17.6589 
  78   0.0000       0.657310        17.8863 
  79   0.0000       0.676255        18.4018 
  80   0.0000       0.683287        18.5932 
  81   0.0000       0.699946        19.0465 
  82   0.0000       0.729185        19.8421 
  83   0.0000       0.741536        20.1782 
  84   0.0000       0.755898        20.5690 
  85   0.0000       0.780231        21.2312 
  86   0.0000       0.799935        21.7673 
  87   0.0000       0.846573        23.0364 
  88   0.0000       0.890882        24.2421 
  89   0.0000       0.924079        25.1455 
  90   0.0000       0.948569        25.8119 
  91   0.0000       0.963570        26.2201 
  92   0.0000       0.987620        26.8745 
  93   0.0000       0.988753        26.9053 
  94   0.0000       1.023815        27.8594 
  95   0.0000       1.042021        28.3548 
  96   0.0000       1.087482        29.5919 
  97   0.0000       1.106529        30.1102 
  98   0.0000       1.122800        30.5530 
  99   0.0000       1.141012        31.0485 
 100   0.0000       1.173597        31.9352 
 101   0.0000       1.191803        32.4306 
 102   0.0000       1.209724        32.9183 
 103   0.0000       1.248586        33.9757 
 104   0.0000       1.268992        34.5310 
 105   0.0000       1.301748        35.4224 
 106   0.0000       1.334644        36.3175 
 107   0.0000       1.357269        36.9332 
 108   0.0000       1.386159        37.7193 
 109   0.0000       1.516393        41.2631 
 110   0.0000       1.550805        42.1995 
 111   0.0000       1.576119        42.8884 
 112   0.0000       1.599124        43.5144 
 113   0.0000       1.611562        43.8528 
 114   0.0000       1.664545        45.2946 
 115   0.0000       1.673430        45.5364 
 116   0.0000       1.704801        46.3900 
 117   0.0000       1.736903        47.2635 
 118   0.0000       1.744910        47.4814 
 119   0.0000       1.791747        48.7559 
 120   0.0000       1.811822        49.3022 
 121   0.0000       1.829467        49.7823 
 122   0.0000       1.891271        51.4641 
 123   0.0000       1.927785        52.4577 
 124   0.0000       1.949014        53.0354 
 125   0.0000       1.962657        53.4066 
 126   0.0000       1.983273        53.9676 
 127   0.0000       1.987965        54.0953 
 128   0.0000       2.024818        55.0981 
 129   0.0000       2.040130        55.5148 
 130   0.0000       2.042730        55.5855 
 131   0.0000       2.083089        56.6837 
 132   0.0000       2.117197        57.6119 
 133   0.0000       2.142483        58.2999 
 134   0.0000       2.163253        58.8651 
 135   0.0000       2.195194        59.7343 
 136   0.0000       2.234573        60.8058 
 137   0.0000       2.293170        62.4003 
 138   0.0000       2.323401        63.2230 
 139   0.0000       2.349893        63.9438 
 140   0.0000       2.389977        65.0346 
 141   0.0000       2.436098        66.2896 
 142   0.0000       2.452838        66.7451 
 143   0.0000       2.459680        66.9313 
 144   0.0000       2.491547        67.7984 
 145   0.0000       2.568191        69.8840 
 146   0.0000       2.626191        71.4623 
 147   0.0000       2.676978        72.8443 
 148   0.0000       2.692805        73.2749 
 149   0.0000       2.724021        74.1244 
 150   0.0000       2.781907        75.6995 
 151   0.0000       2.854965        77.6875 
 152   0.0000       2.887446        78.5714 
 153   0.0000       2.972070        80.8741 
 154   0.0000       3.114776        84.7574 
 155   0.0000       3.152395        85.7810 
 156   0.0000       3.175287        86.4039 
 157   0.0000       3.200884        87.1005 
 158   0.0000       3.208614        87.3108 
 159   0.0000       3.318719        90.3069 
 160   0.0000       3.360381        91.4406 
 161   0.0000       3.410447        92.8030 
 162   0.0000       3.691211       100.4430 
 163   0.0000       3.744406       101.8905 

                    ********************************
                    * MULLIKEN POPULATION ANALYSIS *
                    ********************************

-----------------------
MULLIKEN ATOMIC CHARGES
-----------------------
   0 C :    1.324592
   1 N :   -0.383904
   2 C :    0.575025
   3 N :    0.192799
   4 C :    0.507147
   5 H :   -0.194731
   6 H :   -0.680397
   7 H :   -0.356425
   8 H :   -0.172262
   9 H :   -0.155827
  10 H :   -0.425816
  11 H :   -0.160158
  12 H :   -0.070043
Sum of atomic charges:   -0.0000000

--------------------------------
MULLIKEN REDUCED ORBITAL CHARGES
--------------------------------
  0 C s       :     2.349518  s :     2.349518
      pz      :     0.799938  p :     2.343746
      px      :     0.693252
      py      :     0.850556
      dz2     :    -0.000742  d :    -0.017855
      dxz     :    -0.011834
      dyz     :     0.038217
      dx2y2   :    -0.017794
      dxy     :    -0.025702
  1 N s       :     3.389413  s :     3.389413
      pz      :     1.074260  p :     3.737727
      px      :     1.045178
      py      :     1.618289
      dz2     :     0.055026  d :     0.256764
      dxz     :     0.048011
      dyz     :     0.057288
      dx2y2   :     0.060008
      dxy     :     0.036430
  2 C s       :     2.707456  s :     2.707456
      pz      :     0.701861  p :     2.376701
      px      :     0.823301
      py      :     0.851540
      dz2     :     0.152630  d :     0.340818
      dxz     :    -0.054938
      dyz     :     0.105047
      dx2y2   :     0.096869
      dxy     :     0.041211
  3 N s       :     3.206788  s :     3.206788
      pz      :     1.019722  p :     3.596763
      px      :     1.000559
      py      :     1.576482
      dz2     :     0.007477  d :     0.003650
      dxz     :    -0.014920
      dyz     :     0.012736
      dx2y2   :    -0.008349
      dxy     :     0.006706
  4 C s       :     2.822777  s :     2.822777
      pz      :     0.872316  p :     2.583529
      px      :     0.623723
      py      :     1.087490
      dz2     :     0.047139  d :     0.086547
      dxz     :    -0.017697
      dyz     :     0.029670
      dx2y2   :     0.019134
      dxy     :     0.008302
  5 H s       :     1.130771  s :     1.130771
      pz      :     0.014041  p :     0.063960
      px      :    -0.033694
      py      :     0.083613
  6 H s       :     1.562406  s :     1.562406
      pz      :     0.017814  p :     0.117991
      px      :     0.030670
      py      :     0.069506
  7 H s       :     1.278667  s :     1.278667
      pz      :     0.025913  p :     0.077759
      px      :    -0.008489
      py      :     0.060335
  8 H s       :     1.124100  s :     1.124100
      pz      :     0.019348  p :     0.048162
      px      :    -0.040363
      py      :     0.069177
  9 H s       :     1.115737  s :     1.115737
      pz      :    -0.018277  p :     0.040090
      px      :    -0.004557
      py      :     0.062923
 10 H s       :     1.386439  s :     1.386439
      pz      :     0.052054  p :     0.039378
      px      :     0.031326
      py      :    -0.044002
 11 H s       :     1.129607  s :     1.129607
      pz      :     0.011985  p :     0.030551
      px      :    -0.009484
      py      :     0.028050
 12 H s       :     1.052100  s :     1.052100
      pz      :     0.000461  p :     0.017943
      px      :    -0.024460
      py      :     0.041941


                     *******************************
                     * LOEWDIN POPULATION ANALYSIS *
                     *******************************

----------------------
LOEWDIN ATOMIC CHARGES
----------------------
   0 C :    0.215459
   1 N :   -0.045283
   2 C :   -0.250023
   3 N :    0.188088
   4 C :    0.167788
   5 H :   -0.118420
   6 H :   -0.111833
   7 H :    0.009617
   8 H :   -0.013405
   9 H :    0.008799
  10 H :   -0.016255
  11 H :   -0.014828
  12 H :   -0.019703

-------------------------------
LOEWDIN REDUCED ORBITAL CHARGES
-------------------------------
  0 C s       :     2.686302  s :     2.686302
      pz      :     0.834659  p :     2.648601
      px      :     0.881165
      py      :     0.932776
      dz2     :     0.096520  d :     0.449638
      dxz     :     0.077328
      dyz     :     0.150084
      dx2y2   :     0.092274
      dxy     :     0.033432
  1 N s       :     2.915640  s :     2.915640
      pz      :     1.045286  p :     3.500637
      px      :     1.080726
      py      :     1.374625
      dz2     :     0.129131  d :     0.629006
      dxz     :     0.187582
      dyz     :     0.093036
      dx2y2   :     0.109060
      dxy     :     0.110198
  2 C s       :     2.631972  s :     2.631972
      pz      :     0.905726  p :     2.524263
      px      :     0.876284
      py      :     0.742253
      dz2     :     0.253274  d :     1.093789
      dxz     :     0.272409
      dyz     :     0.218629
      dx2y2   :     0.150840
      dxy     :     0.198637
  3 N s       :     2.926519  s :     2.926519
      pz      :     1.094640  p :     3.532364
      px      :     1.063595
      py      :     1.374129
      dz2     :     0.107009  d :     0.353029
      dxz     :     0.092883
      dyz     :     0.084919
      dx2y2   :     0.044213
      dxy     :     0.024006
  4 C s       :     2.730761  s :     2.730761
      pz      :     0.921096  p :     2.785684
      px      :     0.915821
      py      :     0.948767
      dz2     :     0.096464  d :     0.315767
      dxz     :     0.084793
      dyz     :     0.051992
      dx2y2   :     0.052156
      dxy     :     0.030363
  5 H s       :     0.762914  s :     0.762914
      pz      :     0.110397  p :     0.355507
      px      :     0.115395
      py      :     0.129715
  6 H s       :     0.777396  s :     0.777396
      pz      :     0.082557  p :     0.334436
      px      :     0.129266
      py      :     0.122614
  7 H s       :     0.656144  s :     0.656144
      pz      :     0.129212  p :     0.334239
      px      :     0.088182
      py      :     0.116845
  8 H s       :     0.663466  s :     0.663466
      pz      :     0.113719  p :     0.349939
      px      :     0.104721
      py      :     0.131499
  9 H s       :     0.653818  s :     0.653818
      pz      :     0.076659  p :     0.337383
      px      :     0.145432
      py      :     0.115292
 10 H s       :     0.754193  s :     0.754193
      pz      :     0.065437  p :     0.262062
      px      :     0.120908
      py      :     0.075718
 11 H s       :     0.749265  s :     0.749265
      pz      :     0.067681  p :     0.265563
      px      :     0.078672
      py      :     0.119210
 12 H s       :     0.739762  s :     0.739762
      pz      :     0.080942  p :     0.279941
      px      :     0.087356
      py      :     0.111643


                      *****************************
                      * MAYER POPULATION ANALYSIS *
                      *****************************

  NA   - Mulliken gross atomic population
  ZA   - Total nuclear charge
  QA   - Mulliken gross atomic charge
  VA   - Mayer's total valence
  BVA  - Mayer's bonded valence
  FA   - Mayer's free valence

  ATOM       NA         ZA         QA         VA         BVA        FA
  0 C      4.6754     6.0000     1.3246     3.2530     3.2530    -0.0000
  1 N      7.3839     7.0000    -0.3839     4.2583     4.2583     0.0000
  2 C      5.4250     6.0000     0.5750     3.6470     3.6470    -0.0000
  3 N      6.8072     7.0000     0.1928     3.8149     3.8149    -0.0000
  4 C      5.4929     6.0000     0.5071     3.6480     3.6480    -0.0000
  5 H      1.1947     1.0000    -0.1947     1.1068     1.1068    -0.0000
  6 H      1.6804     1.0000    -0.6804     1.0072     1.0072    -0.0000
  7 H      1.3564     1.0000    -0.3564     1.0205     1.0205     0.0000
  8 H      1.1723     1.0000    -0.1723     0.9588     0.9588     0.0000
  9 H      1.1558     1.0000    -0.1558     0.9158     0.9158    -0.0000
 10 H      1.4258     1.0000    -0.4258     0.8841     0.8841    -0.0000
 11 H      1.1602     1.0000    -0.1602     0.9892     0.9892    -0.0000
 12 H      1.0700     1.0000    -0.0700     0.9596     0.9596    -0.0000

  Mayer bond orders larger than 0.100000
B(  0-C ,  1-N ) :   0.9570 B(  0-C ,  7-H ) :  -0.1153 B(  0-C , 10-H ) :   0.7501 
B(  0-C , 11-H ) :   0.7876 B(  0-C , 12-H ) :   0.8020 B(  1-N ,  2-C ) :   1.0215 
B(  1-N ,  3-N ) :   0.1514 B(  1-N ,  4-C ) :   0.3410 B(  1-N ,  7-H ) :   1.2508 
B(  1-N , 10-H ) :   0.1793 B(  1-N , 11-H ) :   0.1741 B(  1-N , 12-H ) :   0.1089 
B(  2-C ,  3-N ) :   0.9446 B(  2-C ,  4-C ) :   1.6035 B(  2-C ,  5-H ) :   0.2438 
B(  2-C ,  6-H ) :   0.1308 B(  2-C ,  7-H ) :  -0.1589 B(  2-C ,  9-H ) :  -0.1060 
B(  3-N ,  4-C ) :   0.2298 B(  3-N ,  8-H ) :   1.1503 B(  3-N ,  9-H ) :   1.2519 
B(  4-C ,  5-H ) :   0.6780 B(  4-C ,  6-H ) :   0.8435 B(  8-H ,  9-H ) :  -0.1689 


-------
TIMINGS
-------

Total SCF time: 0 days 0 hours 0 min 9 sec 

Total time                  ....       9.060 sec
Sum of individual times     ....       8.871 sec  ( 97.9%)

Fock matrix formation       ....       8.061 sec  ( 89.0%)
  Split-RI-J                ....       0.708 sec  (  8.8% of F)
  Chain of spheres X        ....       5.544 sec  ( 68.8% of F)
  XC integration            ....       1.767 sec  ( 21.9% of F)
    Basis function eval.    ....       0.557 sec  ( 31.5% of XC)
    Density eval.           ....       0.376 sec  ( 21.3% of XC)
    XC-Functional eval.     ....       0.106 sec  (  6.0% of XC)
    XC-Potential eval.      ....       0.503 sec  ( 28.4% of XC)
Diagonalization             ....       0.049 sec  (  0.5%)
Density matrix formation    ....       0.006 sec  (  0.1%)
Population analysis         ....       0.007 sec  (  0.1%)
Initial guess               ....       0.066 sec  (  0.7%)
Orbital Transformation      ....       0.000 sec  (  0.0%)
Orbital Orthonormalization  ....       0.000 sec  (  0.0%)
DIIS solution               ....       0.031 sec  (  0.3%)
SOSCF solution              ....       0.040 sec  (  0.4%)
Grid generation             ....       0.611 sec  (  6.7%)

Maximum memory used throughout the entire SCF-calculation: 51.0 MB


-------------------------------------------------------------------------------
                          DFT DISPERSION CORRECTION                            
                                                                               
                              DFTD3 V3.1  Rev 1                                
                          USING Becke-Johnson damping                          
-------------------------------------------------------------------------------
The B3LYP functional is recognized
Active option DFTDOPT                   ...         4   

molecular C6(AA) [au] = 1312.088290 


            DFT-D V3
 parameters
 s6 scaling factor         :     1.0000 
 a1 scaling factor         :     0.3981 
 s8 scaling factor         :     1.9889 
 a2 scaling factor         :     4.4211 
 ad hoc parameters k1-k3   :    16.0000     1.3333    -4.0000 

 Edisp/kcal,au: -9.863965994460  -0.015719228713 
 E6   /kcal   :  -4.865893581 
 E8   /kcal   :  -4.998072413 
 % E8         :  50.670008554 

-------------------------   ----------------
Dispersion correction           -0.015719229
-------------------------   ----------------


-------------------------   --------------------
FINAL SINGLE POINT ENERGY      -228.314846786337
-------------------------   --------------------


                            ***************************************
                            *     ORCA property calculations      *
                            ***************************************

                                    ---------------------
                                    Active property flags
                                    ---------------------
   (+) Dipole Moment


------------------------------------------------------------------------------
                       ORCA ELECTRIC PROPERTIES CALCULATION
------------------------------------------------------------------------------

Dipole Moment Calculation                       ... on
Quadrupole Moment Calculation                   ... off
Polarizability Calculation                      ... off
GBWName                                         ... 18Feb_SVPD_B3LYP_C3_wt_wb97_typm1_pos.gbw
Electron density file                           ... 18Feb_SVPD_B3LYP_C3_wt_wb97_typm1_pos.scfp
The origin for moment calculation is the CENTER OF MASS  = ( 6.832710, -3.890804 -5.527791)

-------------
DIPOLE MOMENT
-------------
                                X             Y             Z
Electronic contribution:      0.79410      -0.13497      -2.54045
Nuclear contribution   :     -1.37336       0.51269       1.66180
                        -----------------------------------------
Total Dipole Moment    :     -0.57927       0.37772      -0.87865
                        -----------------------------------------
Magnitude (a.u.)       :      1.11814
Magnitude (Debye)      :      2.84210



--------------------
Rotational spectrum 
--------------------
 
Rotational constants in cm-1:     0.331915     0.135033     0.098638 
Rotational constants in MHz :  9950.555862  4048.179255  2957.099162 

 Dipole components along the rotational axes: 
x,y,z [a.u.] :     0.068116    -1.111715    -0.098467 
x,y,z [Debye]:     0.173136    -2.825755    -0.250283 

 

Timings for individual modules:

Sum of individual times         ...        9.930 sec (=   0.166 min)
GTO integral calculation        ...        0.512 sec (=   0.009 min)   5.2 %
SCF iterations                  ...        9.418 sec (=   0.157 min)  94.8 %
                             ****ORCA TERMINATED NORMALLY****
TOTAL RUN TIME: 0 days 0 hours 0 minutes 10 seconds 464 msec
