
                                        *****************
                                        * O   R   C   A *
                                        *****************

                                            #,                                       
                                            ###                                      
                                            ####                                     
                                            #####                                    
                                            ######                                   
                                           ########,                                 
                                     ,,################,,,,,                         
                               ,,#################################,,                 
                          ,,##########################################,,             
                       ,#########################################, ''#####,          
                    ,#############################################,,   '####,        
                  ,##################################################,,,,####,       
                ,###########''''           ''''###############################       
              ,#####''   ,,,,##########,,,,          '''####'''          '####       
            ,##' ,,,,###########################,,,                        '##       
           ' ,,###''''                  '''############,,,                           
         ,,##''                                '''############,,,,        ,,,,,,###''
      ,#''                                            '''#######################'''  
     '                                                          ''''####''''         
             ,#######,   #######,   ,#######,      ##                                
            ,#'     '#,  ##    ##  ,#'     '#,    #''#        ######   ,####,        
            ##       ##  ##   ,#'  ##            #'  '#       #        #'  '#        
            ##       ##  #######   ##           ,######,      #####,   #    #        
            '#,     ,#'  ##    ##  '#,     ,#' ,#      #,         ##   #,  ,#        
             '#######'   ##     ##  '#######'  #'      '#     #####' # '####'        



                  #######################################################
                  #                        -***-                        #
                  #          Department of theory and spectroscopy      #
                  #    Directorship and core code : Frank Neese         #
                  #        Max Planck Institute fuer Kohlenforschung    #
                  #                Kaiser Wilhelm Platz 1               #
                  #                 D-45470 Muelheim/Ruhr               #
                  #                      Germany                        #
                  #                                                     #
                  #                  All rights reserved                #
                  #                        -***-                        #
                  #######################################################


                         Program Version 5.0.0 -  RELEASE  -
                                (SVN: $Rev: 19529$)
                ($Date: 2021-06-28 11:36:33 +0200 (Mo, 28 Jun 2021) $)


 With contributions from (in alphabetic order):
   Daniel Aravena         : Magnetic Suceptibility
   Michael Atanasov       : Ab Initio Ligand Field Theory (pilot matlab implementation)
   Alexander A. Auer      : GIAO ZORA, VPT2 properties, NMR spectrum
   Ute Becker             : Parallelization
   Giovanni Bistoni       : ED, misc. LED, open-shell LED, HFLD
   Martin Brehm           : Molecular dynamics
   Dmytro Bykov           : SCF Hessian
   Vijay G. Chilkuri      : MRCI spin determinant printing, contributions to CSF-ICE
   Dipayan Datta          : RHF DLPNO-CCSD density
   Achintya Kumar Dutta   : EOM-CC, STEOM-CC
   Dmitry Ganyushin       : Spin-Orbit,Spin-Spin,Magnetic field MRCI
   Miquel Garcia          : C-PCM Hessian, Gaussian charge scheme
   Yang Guo               : DLPNO-NEVPT2, F12-NEVPT2, CIM, IAO-localization
   Andreas Hansen         : Spin unrestricted coupled pair/coupled cluster methods
   Benjamin Helmich-Paris : MC-RPA, TRAH-SCF, COSX integrals
   Lee Huntington         : MR-EOM, pCC
   Robert Izsak           : Overlap fitted RIJCOSX, COSX-SCS-MP3, EOM
   Marcus Kettner         : VPT2
   Christian Kollmar      : KDIIS, OOCD, Brueckner-CCSD(T), CCSD density, CASPT2, CASPT2-K
   Simone Kossmann        : Meta GGA functionals, TD-DFT gradient, OOMP2, MP2 Hessian
   Martin Krupicka        : Initial AUTO-CI
   Lucas Lang             : DCDCAS
   Marvin Lechner         : AUTO-CI (C++ implementation), FIC-MRCC
   Dagmar Lenk            : GEPOL surface, SMD
   Dimitrios Liakos       : Extrapolation schemes; Compound Job, initial MDCI parallelization
   Dimitrios Manganas     : Further ROCIS development; embedding schemes
   Dimitrios Pantazis     : SARC Basis sets
   Anastasios Papadopoulos: AUTO-CI, single reference methods and gradients
   Taras Petrenko         : DFT Hessian,TD-DFT gradient, ASA, ECA, R-Raman, ABS, FL, XAS/XES, NRVS
   Peter Pinski           : DLPNO-MP2, DLPNO-MP2 Gradient
   Christoph Reimann      : Effective Core Potentials
   Marius Retegan         : Local ZFS, SOC
   Christoph Riplinger    : Optimizer, TS searches, QM/MM, DLPNO-CCSD(T), (RO)-DLPNO pert. Triples
   Tobias Risthaus        : Range-separated hybrids, TD-DFT gradient, RPA, STAB
   Michael Roemelt        : Original ROCIS implementation
   Masaaki Saitow         : Open-shell DLPNO-CCSD energy and density
   Barbara Sandhoefer     : DKH picture change effects
   Avijit Sen             : IP-ROCIS
   Kantharuban Sivalingam : CASSCF convergence, NEVPT2, FIC-MRCI
   Bernardo de Souza      : ESD, SOC TD-DFT
   Georgi Stoychev        : AutoAux, RI-MP2 NMR
   Willem Van den Heuvel  : Paramagnetic NMR
   Boris Wezisla          : Elementary symmetry handling
   Frank Wennmohs         : Technical directorship


 We gratefully acknowledge several colleagues who have allowed us to
 interface, adapt or use parts of their codes:
   Stefan Grimme, W. Hujo, H. Kruse, P. Pracht,  : VdW corrections, initial TS optimization,
                  C. Bannwarth, S. Ehlert          DFT functionals, gCP, sTDA/sTD-DF
   Ed Valeev, F. Pavosevic, A. Kumar             : LibInt (2-el integral package), F12 methods
   Garnet Chan, S. Sharma, J. Yang, R. Olivares  : DMRG
   Ulf Ekstrom                                   : XCFun DFT Library
   Mihaly Kallay                                 : mrcc  (arbitrary order and MRCC methods)
   Jiri Pittner, Ondrej Demel                    : Mk-CCSD
   Frank Weinhold                                : gennbo (NPA and NBO analysis)
   Christopher J. Cramer and Donald G. Truhlar   : smd solvation model
   Lars Goerigk                                  : TD-DFT with DH, B97 family of functionals
   V. Asgeirsson, H. Jonsson                     : NEB implementation
   FAccTs GmbH                                   : IRC, NEB, NEB-TS, DLPNO-Multilevel, CI-OPT
                                                   MM, QMMM, 2- and 3-layer-ONIOM, Crystal-QMMM,
                                                   LR-CPCM, SF, NACMEs, symmetry and pop. for TD-DFT,
                                                   nearIR, NL-DFT gradient (VV10), updates on ESD,
                                                   ML-optimized integration grids
   S Lehtola, MJT Oliveira, MAL Marques          : LibXC Library
   Liviu Ungur et al                             : ANISO software


 Your calculation uses the libint2 library for the computation of 2-el integrals
 For citations please refer to: http://libint.valeyev.net

 Your ORCA version has been built with support for libXC version: 5.1.0
 For citations please refer to: https://tddft.org/programs/libxc/

 This ORCA versions uses:
   CBLAS   interface :  Fast vector & matrix operations
   LAPACKE interface :  Fast linear algebra routines
   SCALAPACK package :  Parallel linear algebra routines
   Shared memory     :  Shared parallel matrices
   BLAS/LAPACK       :  OpenBLAS 0.3.15  USE64BITINT DYNAMIC_ARCH NO_AFFINITY Haswell SINGLE_THREADED
        Core in use  :  Haswell
   Copyright (c) 2011-2014, The OpenBLAS Project




***************************************
The coordinates will be read from file: D3.xyz
***************************************


Your calculation utilizes the atom-pairwise dispersion correction
with the Becke-Johnson damping scheme (D3BJ)
Cite in your paper:
S.Grimme, S.Ehrlich, L.Goerigk, J Comput Chem, (2011), 32, 1456–1465 
S.Grimme, J.Antony, S.Ehrlich and H.Krieg, J.Chem.Phys., 132, (2010), 154104 
   

================================================================================

----- Orbital basis set information -----
Your calculation utilizes the basis: def2-TZVPD
   F. Weigend and R. Ahlrichs, Phys. Chem. Chem. Phys. 7, 3297 (2005).
   D. Rappoport and F. Furche, J. Chem. Phys. 133 134105 (2010).

----- AuxJ basis set information -----
Your calculation utilizes the auxiliary basis: def2/J
   F. Weigend, Phys. Chem. Chem. Phys. 8, 1057 (2006).

================================================================================
                                        WARNINGS
                       Please study these warnings very carefully!
================================================================================


INFO   : the flag for use of the SHARK integral package has been found!

================================================================================
                                       INPUT FILE
================================================================================
NAME = 28Oct_TZVPD_PBE0_D3_wb97.com
|  1> !PBE0 D3BJ RIJCOSX def2-TZVPD def2/J TightSCF xyzfile                                                                                         
|  2> 
|  3> *xyzfile 0 1 D3.xyz
|  4> 
|  5> %MaxCore 64000
|  6> 
|  7> %pal nprocs 4                                                                                                                                                  
|  8> end  
|  9> 
| 10> %scf
| 11>   MaxIter 150
| 12> end
| 13> 
| 14> 
| 15>                          ****END OF INPUT****
================================================================================

                       ****************************
                       * Single Point Calculation *
                       ****************************

---------------------------------
CARTESIAN COORDINATES (ANGSTROEM)
---------------------------------
  C      3.905947    2.819855   -3.752920
  N      5.295615    3.131515   -4.105334
  C      3.803511    1.374716   -3.260807
  C      3.939934    0.320362   -4.367729
  H      4.105043   -0.655085   -3.907733
  H      3.022801    0.280517   -4.957117
  C      5.105846    0.668022   -5.305463
  C      5.708619    3.468885   -5.324190
  N      6.904696    3.038954   -5.717084
  C      4.981884    4.293570   -6.097457
  H      5.000546    4.101311   -7.087761
  H      4.084693    4.596899   -5.739652
  H      5.963358    2.526112   -3.642391
  H      7.047164    2.066861   -5.473604
  H      7.198145    3.307994   -6.645225
  H      3.282025    2.949187   -4.640259
  H      3.565254    3.514574   -2.982523
  H      4.574833    1.215157   -2.500443
  H      2.843514    1.260845   -2.751465
  F      4.809132    1.150187   -6.414361
  O      6.267366    0.564999   -4.819481

----------------------------
CARTESIAN COORDINATES (A.U.)
----------------------------
  NO LB      ZA    FRAG     MASS         X           Y           Z
   0 C     6.0000    0    12.011    7.381171    5.328753   -7.091990
   1 N     7.0000    0    14.007   10.007263    5.917705   -7.757957
   2 C     6.0000    0    12.011    7.187595    2.597836   -6.162033
   3 C     6.0000    0    12.011    7.445396    0.605397   -8.253812
   4 H     1.0000    0     1.008    7.757407   -1.237930   -7.384545
   5 H     1.0000    0     1.008    5.712267    0.530101   -9.367594
   6 C     6.0000    0    12.011    9.648650    1.262379  -10.025871
   7 C     6.0000    0    12.011   10.787727    6.555244  -10.061262
   8 N     7.0000    0    14.007   13.047984    5.742790  -10.803723
   9 C     6.0000    0    12.011    9.414397    8.113671  -11.522523
  10 H     1.0000    0     1.008    9.449663    7.750356  -13.393928
  11 H     1.0000    0     1.008    7.718951    8.686880  -10.846370
  12 H     1.0000    0     1.008   11.269114    4.773660   -6.883122
  13 H     1.0000    0     1.008   13.317210    3.905801  -10.343612
  14 H     1.0000    0     1.008   13.602523    6.251203  -12.557656
  15 H     1.0000    0     1.008    6.202128    5.573156   -8.768819
  16 H     1.0000    0     1.008    6.737353    6.641582   -5.636151
  17 H     1.0000    0     1.008    8.645182    2.296314   -4.725153
  18 H     1.0000    0     1.008    5.373463    2.382653   -5.199515
  19 F     9.0000    0    18.998    9.087942    2.173538  -12.121386
  20 O     8.0000    0    15.999   11.843606    1.067694   -9.107499

--------------------------------
INTERNAL COORDINATES (ANGSTROEM)
--------------------------------
 C      0   0   0     0.000000000000     0.00000000     0.00000000
 N      1   0   0     1.467141978358     0.00000000     0.00000000
 C      1   2   0     1.530063517905   109.95648736     0.00000000
 C      3   1   2     1.534779619809   114.26304417   287.08499053
 H      4   3   1     1.091033620284   108.87872696   165.98404284
 H      4   3   1     1.090916052212   109.87805700   285.05600920
 C      4   3   1     1.536086504513   110.62627363    44.77550193
 C      2   1   3     1.330414023142   124.60886225   117.82427755
 N      8   2   1     1.330340554584   117.88637737   216.04032271
 C      8   2   1     1.343945232509   120.98842718    40.55760065
 H     10   8   2     1.008967339645   115.96355102   215.01872382
 H     10   8   2     1.012415453042   117.36824842   356.14625482
 H      2   1   3     1.013266581664   112.80126275   337.30529129
 H      9   8   2     1.012197712497   111.46140142    44.03797432
 H      9   8   2     1.009921403817   116.52360736   180.07724841
 H      1   2   3     1.092418234860   108.70639248   240.06343406
 H      1   2   3     1.091887397005   109.26080405   121.65715898
 H      3   1   2     1.094783130927   108.29253614    49.74675079
 H      3   1   2     1.092698650205   107.88852219   164.36908434
 F      7   4   3     1.245061367518   116.77397318   256.40244270
 O      7   4   3     1.263298100477   116.39547193    69.30146499

---------------------------
INTERNAL COORDINATES (A.U.)
---------------------------
 C      0   0   0     0.000000000000     0.00000000     0.00000000
 N      1   0   0     2.772496538677     0.00000000     0.00000000
 C      1   2   0     2.891401016345   109.95648736     0.00000000
 C      3   1   2     2.900313157364   114.26304417   287.08499053
 H      4   3   1     2.061754745237   108.87872696   165.98404284
 H      4   3   1     2.061532573779   109.87805700   285.05600920
 C      4   3   1     2.902782811542   110.62627363    44.77550193
 C      2   1   3     2.514118148466   124.60886225   117.82427755
 N      8   2   1     2.513979313013   117.88637737   216.04032271
 C      8   2   1     2.539688428430   120.98842718    40.55760065
 H     10   8   2     1.906671950000   115.96355102   215.01872382
 H     10   8   2     1.913187940000   117.36824842   356.14625482
 H      2   1   3     1.914796340000   112.80126275   337.30529129
 H      9   8   2     1.912776470000   111.46140142    44.03797432
 H      9   8   2     1.908474870000   116.52360736   180.07724841
 H      1   2   3     2.064371287587   108.70639248   240.06343406
 H      1   2   3     2.063368149420   109.26080405   121.65715898
 H      3   1   2     2.068840293488   108.29253614    49.74675079
 H      3   1   2     2.064901195792   107.88852219   164.36908434
 F      7   4   3     2.352825004535   116.77397318   256.40244270
 O      7   4   3     2.387287435404   116.39547193    69.30146499

---------------------
BASIS SET INFORMATION
---------------------
There are 5 groups of distinct atoms

 Group   1 Type C   : 12s6p3d1f contracted to 6s3p3d1f pattern {621111/411/111/1}
 Group   2 Type N   : 12s6p3d1f contracted to 6s3p3d1f pattern {621111/411/111/1}
 Group   3 Type H   : 5s2p contracted to 3s2p pattern {311/11}
 Group   4 Type F   : 12s7p3d1f contracted to 6s4p3d1f pattern {621111/4111/111/1}
 Group   5 Type O   : 12s7p3d1f contracted to 6s4p3d1f pattern {621111/4111/111/1}

Atom   0C    basis set group =>   1
Atom   1N    basis set group =>   2
Atom   2C    basis set group =>   1
Atom   3C    basis set group =>   1
Atom   4H    basis set group =>   3
Atom   5H    basis set group =>   3
Atom   6C    basis set group =>   1
Atom   7C    basis set group =>   1
Atom   8N    basis set group =>   2
Atom   9C    basis set group =>   1
Atom  10H    basis set group =>   3
Atom  11H    basis set group =>   3
Atom  12H    basis set group =>   3
Atom  13H    basis set group =>   3
Atom  14H    basis set group =>   3
Atom  15H    basis set group =>   3
Atom  16H    basis set group =>   3
Atom  17H    basis set group =>   3
Atom  18H    basis set group =>   3
Atom  19F    basis set group =>   4
Atom  20O    basis set group =>   5
---------------------------------
AUXILIARY/J BASIS SET INFORMATION
---------------------------------
There are 5 groups of distinct atoms

 Group   1 Type C   : 12s5p4d2f1g contracted to 6s4p3d1f1g pattern {711111/2111/211/2/1}
 Group   2 Type N   : 12s5p4d2f1g contracted to 6s4p3d1f1g pattern {711111/2111/211/2/1}
 Group   3 Type H   : 5s2p1d contracted to 3s1p1d pattern {311/2/1}
 Group   4 Type F   : 12s5p4d2f1g contracted to 6s4p3d1f1g pattern {711111/2111/211/2/1}
 Group   5 Type O   : 12s5p4d2f1g contracted to 6s4p3d1f1g pattern {711111/2111/211/2/1}

Atom   0C    basis set group =>   1
Atom   1N    basis set group =>   2
Atom   2C    basis set group =>   1
Atom   3C    basis set group =>   1
Atom   4H    basis set group =>   3
Atom   5H    basis set group =>   3
Atom   6C    basis set group =>   1
Atom   7C    basis set group =>   1
Atom   8N    basis set group =>   2
Atom   9C    basis set group =>   1
Atom  10H    basis set group =>   3
Atom  11H    basis set group =>   3
Atom  12H    basis set group =>   3
Atom  13H    basis set group =>   3
Atom  14H    basis set group =>   3
Atom  15H    basis set group =>   3
Atom  16H    basis set group =>   3
Atom  17H    basis set group =>   3
Atom  18H    basis set group =>   3
Atom  19F    basis set group =>   4
Atom  20O    basis set group =>   5


           ************************************************************
           *        Program running with 4 parallel MPI-processes     *
           *              working on a common directory               *
           ************************************************************
------------------------------------------------------------------------------
                           ORCA GTO INTEGRAL CALCULATION
                           -- RI-GTO INTEGRALS CHOSEN --
------------------------------------------------------------------------------
------------------------------------------------------------------------------
                   ___                                                        
                  /   \      - P O W E R E D   B Y -                         
                 /     \                                                     
                 |  |  |   _    _      __       _____    __    __             
                 |  |  |  | |  | |    /  \     |  _  \  |  |  /  |          
                  \  \/   | |  | |   /    \    | | | |  |  | /  /          
                 / \  \   | |__| |  /  /\  \   | |_| |  |  |/  /          
                |  |  |   |  __  | /  /__\  \  |    /   |      \           
                |  |  |   | |  | | |   __   |  |    \   |  |\   \          
                \     /   | |  | | |  |  |  |  | |\  \  |  | \   \       
                 \___/    |_|  |_| |__|  |__|  |_| \__\ |__|  \__/        
                                                                              
                      - O R C A' S   B I G   F R I E N D -                    
                                      &                                       
                       - I N T E G R A L  F E E D E R -                       
                                                                              
 v1 FN, 2020, v2 2021                                                         
------------------------------------------------------------------------------


Reading SHARK input file 28Oct_TZVPD_PBE0_D3_wb97.SHARKINP.tmp ... ok
----------------------
SHARK INTEGRAL PACKAGE
----------------------

Number of atoms                             ...     21
Number of basis functions                   ...    475
Number of shells                            ...    187
Maximum angular momentum                    ...      3
Integral batch strategy                     ... SHARK/LIBINT Hybrid
RI-J (if used) integral strategy            ... SPLIT-RIJ (Revised 2003 algorithm where possible)
Printlevel                                  ...      1
Contraction scheme used                     ... SEGMENTED contraction
Coulomb Range Separation                    ... NOT USED
Exchange Range Separation                   ... NOT USED
Finite Nucleus Model                        ... NOT USED
Auxiliary Coulomb fitting basis             ... AVAILABLE
   # of basis functions in Aux-J            ...    611
   # of shells in Aux-J                     ...    205
   Maximum angular momentum in Aux-J        ...      4
Auxiliary J/K fitting basis                 ... NOT available
Auxiliary Correlation fitting basis         ... NOT available
Auxiliary 'external' fitting basis          ... NOT available
Integral threshold                          ...     2.500000e-11
Primitive cut-off                           ...     2.500000e-12
Primitive pair pre-selection threshold      ...     2.500000e-12

Calculating pre-screening integrals         ... done (  0.1 sec) Dimension = 187
Organizing shell pair data                  ... done (  0.2 sec)
Shell pair information
Total number of shell pairs                 ...     17578
Shell pairs after pre-screening             ...     16568
Total number of primitive shell pairs       ...     45103
Primitive shell pairs kept                  ...     33342
          la=0 lb=0:   3946 shell pairs
          la=1 lb=0:   4757 shell pairs
          la=1 lb=1:   1448 shell pairs
          la=2 lb=0:   2642 shell pairs
          la=2 lb=1:   1588 shell pairs
          la=2 lb=2:    459 shell pairs
          la=3 lb=0:    849 shell pairs
          la=3 lb=1:    528 shell pairs
          la=3 lb=2:    296 shell pairs
          la=3 lb=3:     55 shell pairs

Calculating one electron integrals          ... done (  0.0 sec)
Calculating RI/J V-Matrix + Cholesky decomp.... done (  0.0 sec)
Calculating Nuclear repulsion               ... done (  0.0 sec) ENN=    598.167589649396 Eh

SHARK setup successfully completed in   0.5 seconds

Maximum memory used throughout the entire GTOINT-calculation: 25.9 MB


           ************************************************************
           *        Program running with 4 parallel MPI-processes     *
           *              working on a common directory               *
           ************************************************************
-------------------------------------------------------------------------------
                                 ORCA SCF
-------------------------------------------------------------------------------

------------
SCF SETTINGS
------------
Hamiltonian:
 Density Functional     Method          .... DFT(GTOs)
 Exchange Functional    Exchange        .... PBE
   PBE kappa parameter   XKappa         ....  0.804000
   PBE mue parameter    XMuePBE         ....  0.219520
 Correlation Functional Correlation     .... PBE
   PBE beta parameter  CBetaPBE         ....  0.066725
 LDA part of GGA corr.  LDAOpt          .... PW91-LDA
 Gradients option       PostSCFGGA      .... off
 Hybrid DFT is turned on
   Fraction HF Exchange ScalHFX         ....  0.250000
   Scaling of DF-GGA-X  ScalDFX         ....  0.750000
   Scaling of DF-GGA-C  ScalDFC         ....  1.000000
   Scaling of DF-LDA-C  ScalLDAC        ....  1.000000
   Perturbative correction              ....  0.000000
   Density functional embedding theory  .... OFF
   NL short-range parameter             ....  6.900000
 RI-approximation to the Coulomb term is turned on
   Number of AuxJ basis functions       .... 611
   RIJ-COSX (HFX calculated with COS-X)).... on


General Settings:
 Integral files         IntName         .... 28Oct_TZVPD_PBE0_D3_wb97
 Hartree-Fock type      HFTyp           .... RHF
 Total Charge           Charge          ....    0
 Multiplicity           Mult            ....    1
 Number of Electrons    NEL             ....   78
 Basis Dimension        Dim             ....  475
 Nuclear Repulsion      ENuc            ....    598.1675896494 Eh

Convergence Acceleration:
 DIIS                   CNVDIIS         .... on
   Start iteration      DIISMaxIt       ....    12
   Startup error        DIISStart       ....  0.200000
   # of expansion vecs  DIISMaxEq       ....     5
   Bias factor          DIISBfac        ....   1.050
   Max. coefficient     DIISMaxC        ....  10.000
 Trust-Rad. Augm. Hess. CNVTRAH         .... auto
   Auto Start mean grad. ratio tolernc. ....  1.125000
   Auto Start start iteration           ....    20
   Auto Start num. interpolation iter.  ....    10
   Max. Number of Micro iterations      ....    16
   Max. Number of Macro iterations      .... Maxiter - #DIIS iter
   Number of Davidson start vectors     ....     2
   Converg. threshold I  (grad. norm)   ....   1.000e-05
   Converg. threshold II (energy diff.) ....   1.000e-08
   Grad. Scal. Fac. for Micro threshold ....   0.100
   Minimum threshold for Micro iter.    ....   0.010
   NR start threshold (gradient norm)   ....   0.001
   Initial trust radius                 ....   0.400
   Minimum AH scaling param. (alpha)    ....   1.000
   Maximum AH scaling param. (alpha)    .... 1000.000
   Orbital update algorithm             .... Taylor
   White noise on init. David. guess    .... on
   Maximum white noise                  ....   0.010
   Quad. conv. algorithm                .... NR
 SOSCF                  CNVSOSCF        .... on
   Start iteration      SOSCFMaxIt      ....   150
   Startup grad/error   SOSCFStart      ....  0.003300
 Level Shifting         CNVShift        .... on
   Level shift para.    LevelShift      ....    0.2500
   Turn off err/grad.   ShiftErr        ....    0.0010
 Zerner damping         CNVZerner       .... off
 Static damping         CNVDamp         .... on
   Fraction old density DampFac         ....    0.7000
   Max. Damping (<1)    DampMax         ....    0.9800
   Min. Damping (>=0)   DampMin         ....    0.0000
   Turn off err/grad.   DampErr         ....    0.1000
 Fernandez-Rico         CNVRico         .... off

SCF Procedure:
 Maximum # iterations   MaxIter         ....   150
 SCF integral mode      SCFMode         .... Direct
   Integral package                     .... SHARK and LIBINT hybrid scheme
 Reset frequency        DirectResetFreq ....    20
 Integral Threshold     Thresh          ....  2.500e-11 Eh
 Primitive CutOff       TCut            ....  2.500e-12 Eh

Convergence Tolerance:
 Convergence Check Mode ConvCheckMode   .... Total+1el-Energy
 Convergence forced     ConvForced      .... 0
 Energy Change          TolE            ....  1.000e-08 Eh
 1-El. energy change                    ....  1.000e-05 Eh
 Orbital Gradient       TolG            ....  1.000e-05
 Orbital Rotation angle TolX            ....  1.000e-05
 DIIS Error             TolErr          ....  5.000e-07


Diagonalization of the overlap matrix:
Smallest eigenvalue                        ... 2.825e-06
Time for diagonalization                   ...    0.044 sec
Threshold for overlap eigenvalues          ... 1.000e-08
Number of eigenvalues below threshold      ... 0
Time for construction of square roots      ...    0.035 sec
Total time needed                          ...    0.081 sec

Time for model grid setup =    0.256 sec

------------------------------
INITIAL GUESS: MODEL POTENTIAL
------------------------------
Loading Hartree-Fock densities                     ... done
Calculating cut-offs                               ... done
Initializing the effective Hamiltonian             ... done
Setting up the integral package (SHARK)            ... done
Starting the Coulomb interaction                   ... done (   0.3 sec)
Reading the grid                                   ... done
Mapping shells                                     ... done
Starting the XC term evaluation                    ... done (   0.5 sec)
  promolecular density results
     # of electrons  =     77.999910586
     EX              =    -65.274169643
     EC              =     -2.631431304
     EX+EC           =    -67.905600947
Transforming the Hamiltonian                       ... done (   0.0 sec)
Diagonalizing the Hamiltonian                      ... done (   0.0 sec)
Back transforming the eigenvectors                 ... done (   0.0 sec)
Now organizing SCF variables                       ... done
                      ------------------
                      INITIAL GUESS DONE (   1.2 sec)
                      ------------------
-------------------
DFT GRID GENERATION
-------------------

General Integration Accuracy     IntAcc      ... 4.388
Radial Grid Type                 RadialGrid  ... OptM3 with GC (2021)
Angular Grid (max. ang.)         AngularGrid ... 4 (Lebedev-302)
Angular grid pruning method      GridPruning ... 4 (adaptive)
Weight generation scheme         WeightScheme... Becke
Basis function cutoff            BFCut       ... 1.0000e-11
Integration weight cutoff        WCut        ... 1.0000e-14
Angular grids for H and He will be reduced by one unit
Partially contracted basis set               ... off
Rotationally invariant grid construction     ... off

Total number of grid points                  ...    99532
Total number of batches                      ...     1565
Average number of points per batch           ...       63
Average number of grid points per atom       ...     4740
Time for grid setup =    0.874 sec

--------------------
COSX GRID GENERATION
--------------------

GRIDX 1
-------
General Integration Accuracy     IntAcc      ... 3.816
Radial Grid Type                 RadialGrid  ... OptM3 with GC (2021)
Angular Grid (max. ang.)         AngularGrid ... 1 (Lebedev-50)
Angular grid pruning method      GridPruning ... 4 (adaptive)
Weight generation scheme         WeightScheme... Becke
Basis function cutoff            BFCut       ... 1.0000e-11
Integration weight cutoff        WCut        ... 1.0000e-14
Angular grids for H and He will be reduced by one unit
Partially contracted basis set               ... on
Rotationally invariant grid construction     ... off

Total number of grid points                  ...    12441
Total number of batches                      ...      205
Average number of points per batch           ...       60
Average number of grid points per atom       ...      592
UseSFitting                                  ... on

GRIDX 2
-------
General Integration Accuracy     IntAcc      ... 4.020
Radial Grid Type                 RadialGrid  ... OptM3 with GC (2021)
Angular Grid (max. ang.)         AngularGrid ... 2 (Lebedev-110)
Angular grid pruning method      GridPruning ... 4 (adaptive)
Weight generation scheme         WeightScheme... Becke
Basis function cutoff            BFCut       ... 1.0000e-11
Integration weight cutoff        WCut        ... 1.0000e-14
Angular grids for H and He will be reduced by one unit
Partially contracted basis set               ... on
Rotationally invariant grid construction     ... off

Total number of grid points                  ...    29579
Total number of batches                      ...      470
Average number of points per batch           ...       62
Average number of grid points per atom       ...     1409
UseSFitting                                  ... on

GRIDX 3
-------
General Integration Accuracy     IntAcc      ... 4.338
Radial Grid Type                 RadialGrid  ... OptM3 with GC (2021)
Angular Grid (max. ang.)         AngularGrid ... 3 (Lebedev-194)
Angular grid pruning method      GridPruning ... 4 (adaptive)
Weight generation scheme         WeightScheme... Becke
Basis function cutoff            BFCut       ... 1.0000e-11
Integration weight cutoff        WCut        ... 1.0000e-14
Angular grids for H and He will be reduced by one unit
Partially contracted basis set               ... on
Rotationally invariant grid construction     ... off

Total number of grid points                  ...    65745
Total number of batches                      ...     1039
Average number of points per batch           ...       63
Average number of grid points per atom       ...     3131
UseSFitting                                  ... on

Time for X-Grid setup             =    1.371 sec

--------------
SCF ITERATIONS
--------------
ITER       Energy         Delta-E        Max-DP      RMS-DP      [F,P]     Damp
               ***  Starting incremental Fock matrix formation  ***
  0   -518.9994599565   0.000000000000 0.14597886  0.00181536  0.2708073 0.7000
  1   -519.1872411872  -0.187781230657 0.19158748  0.00166319  0.1219502 0.7000
                               ***Turning on DIIS***
  2   -519.2587412482  -0.071500061041 0.32483258  0.00349695  0.0476114 0.0000
  3   -519.3697637006  -0.111022452390 0.18879523  0.00119377  0.0734986 0.0000
  4   -519.3961176322  -0.026353931595 0.09375573  0.00058057  0.0197116 0.0000
  5   -519.3978995140  -0.001781881771 0.02781195  0.00023142  0.0114564 0.0000
                      *** Initiating the SOSCF procedure ***
                           *** Shutting down DIIS ***
                      *** Re-Reading the Fockian *** 
                      *** Removing any level shift *** 
ITER      Energy       Delta-E        Grad      Rot      Max-DP    RMS-DP
  6   -519.39811854  -0.0002190293  0.000392  0.000392  0.019448  0.000236
               *** Restarting incremental Fock matrix formation ***
  7   -519.39815948  -0.0000409400  0.000214  0.000395  0.004443  0.000051
  8   -519.39815820   0.0000012848  0.000346  0.000278  0.001018  0.000010
  9   -519.39816136  -0.0000031633  0.000028  0.000101  0.000889  0.000008
 10   -519.39816128   0.0000000771  0.000048  0.000055  0.000705  0.000004
 11   -519.39816142  -0.0000001360  0.000010  0.000021  0.000723  0.000008
 12   -519.39816142   0.0000000040  0.000014  0.000015  0.000429  0.000003
                  ***Gradient check signals convergence***
              ***Rediagonalizing the Fockian in SOSCF/NRSCF***

               *****************************************************
               *                     SUCCESS                       *
               *           SCF CONVERGED AFTER  13 CYCLES          *
               *****************************************************

Old exchange energy                            =    -16.668695238 Eh
New exchange energy                            =    -16.668694802 Eh
Exchange energy change after final integration =      0.000000436 Eh
Total energy after final integration           =   -519.398160988 Eh
Final COS-X integration done in                =    21.401 sec

----------------
TOTAL SCF ENERGY
----------------

Total Energy       :         -519.39816099 Eh          -14133.54250 eV

Components:
Nuclear Repulsion  :          598.16758965 Eh           16276.96762 eV
Electronic Energy  :        -1117.56575064 Eh          -30410.51012 eV
One Electron Energy:        -1895.10869288 Eh          -51568.52923 eV
Two Electron Energy:          777.54294224 Eh           21158.01911 eV
Max COSX asymmetry :            0.00000144 Eh               0.00004 eV

Virial components:
Potential Energy   :        -1037.05250291 Eh          -28219.63326 eV
Kinetic Energy     :          517.65434192 Eh           14086.09077 eV
Virial Ratio       :            2.00336869


DFT components:
N(Alpha)           :       39.000087907595 electrons
N(Beta)            :       39.000087907595 electrons
N(Total)           :       78.000175815190 electrons
E(X)               :      -49.887913285298 Eh       
E(C)               :       -2.630547158595 Eh       
E(XC)              :      -52.518460443893 Eh       
DFET-embed. en.    :        0.000000000000 Eh       

---------------
SCF CONVERGENCE
---------------

  Last Energy change         ...   -7.0565e-09  Tolerance :   1.0000e-08
  Last MAX-Density change    ...    1.6653e-15  Tolerance :   1.0000e-07
  Last RMS-Density change    ...    1.6362e-17  Tolerance :   5.0000e-09
  Last Orbital Gradient      ...    1.4603e-06  Tolerance :   1.0000e-05
  Last Orbital Rotation      ...    2.8638e-06  Tolerance :   1.0000e-05

             **** THE GBW FILE WAS UPDATED (28Oct_TZVPD_PBE0_D3_wb97.gbw) ****
             **** DENSITY 28Oct_TZVPD_PBE0_D3_wb97.scfp WAS UPDATED ****
             **** ENERGY FILE WAS UPDATED (28Oct_TZVPD_PBE0_D3_wb97.en.tmp) ****
             **** THE GBW FILE WAS UPDATED (28Oct_TZVPD_PBE0_D3_wb97.gbw) ****
             **** DENSITY 28Oct_TZVPD_PBE0_D3_wb97.scfp WAS UPDATED ****
----------------
ORBITAL ENERGIES
----------------

  NO   OCC          E(Eh)            E(eV) 
   0   2.0000     -24.861503      -676.5159 
   1   2.0000     -19.231682      -523.3207 
   2   2.0000     -14.390043      -391.5730 
   3   2.0000     -14.364648      -390.8819 
   4   2.0000     -10.423209      -283.6299 
   5   2.0000     -10.267464      -279.3919 
   6   2.0000     -10.266973      -279.3785 
   7   2.0000     -10.261300      -279.2242 
   8   2.0000     -10.254683      -279.0441 
   9   2.0000     -10.132565      -275.7211 
  10   2.0000      -1.376275       -37.4503 
  11   2.0000      -1.086666       -29.5697 
  12   2.0000      -0.999411       -27.1953 
  13   2.0000      -0.913545       -24.8588 
  14   2.0000      -0.843841       -22.9621 
  15   2.0000      -0.762421       -20.7465 
  16   2.0000      -0.726870       -19.7791 
  17   2.0000      -0.701025       -19.0758 
  18   2.0000      -0.654203       -17.8018 
  19   2.0000      -0.590586       -16.0707 
  20   2.0000      -0.586768       -15.9668 
  21   2.0000      -0.575604       -15.6630 
  22   2.0000      -0.559921       -15.2362 
  23   2.0000      -0.532190       -14.4816 
  24   2.0000      -0.521082       -14.1794 
  25   2.0000      -0.498915       -13.5762 
  26   2.0000      -0.489706       -13.3256 
  27   2.0000      -0.451512       -12.2863 
  28   2.0000      -0.443082       -12.0569 
  29   2.0000      -0.423471       -11.5232 
  30   2.0000      -0.407068       -11.0769 
  31   2.0000      -0.404930       -11.0187 
  32   2.0000      -0.390901       -10.6370 
  33   2.0000      -0.384214       -10.4550 
  34   2.0000      -0.371906       -10.1201 
  35   2.0000      -0.346624        -9.4321 
  36   2.0000      -0.327616        -8.9149 
  37   2.0000      -0.265807        -7.2330 
  38   2.0000      -0.183277        -4.9872 
  39   0.0000      -0.049677        -1.3518 
  40   0.0000       0.002182         0.0594 
  41   0.0000       0.023409         0.6370 
  42   0.0000       0.026530         0.7219 
  43   0.0000       0.032805         0.8927 
  44   0.0000       0.047649         1.2966 
  45   0.0000       0.055941         1.5222 
  46   0.0000       0.062039         1.6882 
  47   0.0000       0.064565         1.7569 
  48   0.0000       0.069103         1.8804 
  49   0.0000       0.077692         2.1141 
  50   0.0000       0.090464         2.4617 
  51   0.0000       0.097566         2.6549 
  52   0.0000       0.106888         2.9086 
  53   0.0000       0.109175         2.9708 
  54   0.0000       0.112417         3.0590 
  55   0.0000       0.121251         3.2994 
  56   0.0000       0.123922         3.3721 
  57   0.0000       0.136700         3.7198 
  58   0.0000       0.141121         3.8401 
  59   0.0000       0.150578         4.0974 
  60   0.0000       0.161239         4.3875 
  61   0.0000       0.164588         4.4787 
  62   0.0000       0.169084         4.6010 
  63   0.0000       0.170874         4.6497 
  64   0.0000       0.178155         4.8478 
  65   0.0000       0.187889         5.1127 
  66   0.0000       0.193873         5.2755 
  67   0.0000       0.204105         5.5540 
  68   0.0000       0.206048         5.6068 
  69   0.0000       0.211931         5.7669 
  70   0.0000       0.214720         5.8428 
  71   0.0000       0.217915         5.9298 
  72   0.0000       0.223737         6.0882 
  73   0.0000       0.227228         6.1832 
  74   0.0000       0.235689         6.4134 
  75   0.0000       0.236446         6.4340 
  76   0.0000       0.244153         6.6437 
  77   0.0000       0.248634         6.7657 
  78   0.0000       0.256196         6.9715 
  79   0.0000       0.259168         7.0523 
  80   0.0000       0.266142         7.2421 
  81   0.0000       0.270835         7.3698 
  82   0.0000       0.274861         7.4794 
  83   0.0000       0.279081         7.5942 
  84   0.0000       0.281481         7.6595 
  85   0.0000       0.289266         7.8713 
  86   0.0000       0.294366         8.0101 
  87   0.0000       0.300168         8.1680 
  88   0.0000       0.306497         8.3402 
  89   0.0000       0.308162         8.3855 
  90   0.0000       0.314001         8.5444 
  91   0.0000       0.316237         8.6052 
  92   0.0000       0.318735         8.6732 
  93   0.0000       0.324935         8.8419 
  94   0.0000       0.332182         9.0391 
  95   0.0000       0.337364         9.1802 
  96   0.0000       0.339918         9.2496 
  97   0.0000       0.344801         9.3825 
  98   0.0000       0.350755         9.5445 
  99   0.0000       0.353915         9.6305 
 100   0.0000       0.358193         9.7469 
 101   0.0000       0.360087         9.7985 
 102   0.0000       0.363382         9.8881 
 103   0.0000       0.374947        10.2028 
 104   0.0000       0.382333        10.4038 
 105   0.0000       0.387678        10.5493 
 106   0.0000       0.388909        10.5828 
 107   0.0000       0.395732        10.7684 
 108   0.0000       0.397565        10.8183 
 109   0.0000       0.406628        11.0649 
 110   0.0000       0.413049        11.2396 
 111   0.0000       0.415420        11.3042 
 112   0.0000       0.418890        11.3986 
 113   0.0000       0.421604        11.4724 
 114   0.0000       0.428487        11.6597 
 115   0.0000       0.435625        11.8540 
 116   0.0000       0.438416        11.9299 
 117   0.0000       0.441497        12.0137 
 118   0.0000       0.446255        12.1432 
 119   0.0000       0.457044        12.4368 
 120   0.0000       0.463881        12.6229 
 121   0.0000       0.465110        12.6563 
 122   0.0000       0.470340        12.7986 
 123   0.0000       0.477279        12.9874 
 124   0.0000       0.482487        13.1291 
 125   0.0000       0.486802        13.2465 
 126   0.0000       0.493877        13.4391 
 127   0.0000       0.498554        13.5663 
 128   0.0000       0.500818        13.6279 
 129   0.0000       0.507562        13.8115 
 130   0.0000       0.511220        13.9110 
 131   0.0000       0.520693        14.1688 
 132   0.0000       0.523078        14.2337 
 133   0.0000       0.524738        14.2789 
 134   0.0000       0.532091        14.4789 
 135   0.0000       0.546944        14.8831 
 136   0.0000       0.549586        14.9550 
 137   0.0000       0.550508        14.9801 
 138   0.0000       0.554877        15.0990 
 139   0.0000       0.562737        15.3128 
 140   0.0000       0.568023        15.4567 
 141   0.0000       0.574038        15.6204 
 142   0.0000       0.589553        16.0426 
 143   0.0000       0.591131        16.0855 
 144   0.0000       0.598781        16.2936 
 145   0.0000       0.601065        16.3558 
 146   0.0000       0.611817        16.6484 
 147   0.0000       0.618271        16.8240 
 148   0.0000       0.624501        16.9935 
 149   0.0000       0.636282        17.3141 
 150   0.0000       0.637518        17.3477 
 151   0.0000       0.641651        17.4602 
 152   0.0000       0.650943        17.7130 
 153   0.0000       0.654180        17.8011 
 154   0.0000       0.664061        18.0700 
 155   0.0000       0.666314        18.1313 
 156   0.0000       0.670536        18.2462 
 157   0.0000       0.681600        18.5473 
 158   0.0000       0.685967        18.6661 
 159   0.0000       0.696173        18.9438 
 160   0.0000       0.701391        19.0858 
 161   0.0000       0.708265        19.2729 
 162   0.0000       0.711774        19.3684 
 163   0.0000       0.715077        19.4582 
 164   0.0000       0.719946        19.5907 
 165   0.0000       0.729337        19.8463 
 166   0.0000       0.735276        20.0079 
 167   0.0000       0.744844        20.2682 
 168   0.0000       0.750108        20.4115 
 169   0.0000       0.753575        20.5058 
 170   0.0000       0.763682        20.7809 
 171   0.0000       0.772504        21.0209 
 172   0.0000       0.778935        21.1959 
 173   0.0000       0.785176        21.3657 
 174   0.0000       0.792832        21.5741 
 175   0.0000       0.800400        21.7800 
 176   0.0000       0.806270        21.9397 
 177   0.0000       0.814448        22.1623 
 178   0.0000       0.818366        22.2689 
 179   0.0000       0.830359        22.5952 
 180   0.0000       0.832802        22.6617 
 181   0.0000       0.835710        22.7408 
 182   0.0000       0.853557        23.2265 
 183   0.0000       0.861489        23.4423 
 184   0.0000       0.866379        23.5754 
 185   0.0000       0.870847        23.6970 
 186   0.0000       0.883857        24.0510 
 187   0.0000       0.894436        24.3388 
 188   0.0000       0.908471        24.7207 
 189   0.0000       0.909502        24.7488 
 190   0.0000       0.926057        25.1993 
 191   0.0000       0.943445        25.6725 
 192   0.0000       0.945409        25.7259 
 193   0.0000       0.959276        26.1032 
 194   0.0000       0.968204        26.3462 
 195   0.0000       0.979798        26.6617 
 196   0.0000       0.986613        26.8471 
 197   0.0000       1.001243        27.2452 
 198   0.0000       1.013011        27.5654 
 199   0.0000       1.015754        27.6401 
 200   0.0000       1.031093        28.0575 
 201   0.0000       1.046448        28.4753 
 202   0.0000       1.056588        28.7512 
 203   0.0000       1.062079        28.9007 
 204   0.0000       1.073421        29.2093 
 205   0.0000       1.079780        29.3823 
 206   0.0000       1.103088        30.0165 
 207   0.0000       1.107359        30.1328 
 208   0.0000       1.122240        30.5377 
 209   0.0000       1.153601        31.3911 
 210   0.0000       1.170874        31.8611 
 211   0.0000       1.178004        32.0551 
 212   0.0000       1.187343        32.3092 
 213   0.0000       1.195634        32.5349 
 214   0.0000       1.210490        32.9391 
 215   0.0000       1.215988        33.0887 
 216   0.0000       1.244924        33.8761 
 217   0.0000       1.249280        33.9946 
 218   0.0000       1.253241        34.1024 
 219   0.0000       1.266437        34.4615 
 220   0.0000       1.278983        34.8029 
 221   0.0000       1.291191        35.1351 
 222   0.0000       1.294871        35.2352 
 223   0.0000       1.309722        35.6394 
 224   0.0000       1.329861        36.1874 
 225   0.0000       1.350758        36.7560 
 226   0.0000       1.356328        36.9076 
 227   0.0000       1.366711        37.1901 
 228   0.0000       1.393878        37.9294 
 229   0.0000       1.398675        38.0599 
 230   0.0000       1.419905        38.6376 
 231   0.0000       1.432195        38.9720 
 232   0.0000       1.443167        39.2706 
 233   0.0000       1.453858        39.5615 
 234   0.0000       1.466336        39.9010 
 235   0.0000       1.470329        40.0097 
 236   0.0000       1.504207        40.9316 
 237   0.0000       1.509861        41.0854 
 238   0.0000       1.538916        41.8760 
 239   0.0000       1.566544        42.6278 
 240   0.0000       1.592095        43.3231 
 241   0.0000       1.611488        43.8508 
 242   0.0000       1.636773        44.5389 
 243   0.0000       1.660373        45.1810 
 244   0.0000       1.708339        46.4863 
 245   0.0000       1.719669        46.7946 
 246   0.0000       1.757892        47.8347 
 247   0.0000       1.805587        49.1325 
 248   0.0000       1.812785        49.3284 
 249   0.0000       1.819266        49.5047 
 250   0.0000       1.826517        49.7021 
 251   0.0000       1.845059        50.2066 
 252   0.0000       1.855313        50.4856 
 253   0.0000       1.866615        50.7932 
 254   0.0000       1.873153        50.9711 
 255   0.0000       1.886490        51.3340 
 256   0.0000       1.894351        51.5479 
 257   0.0000       1.905800        51.8594 
 258   0.0000       1.909826        51.9690 
 259   0.0000       1.920058        52.2474 
 260   0.0000       1.927503        52.4500 
 261   0.0000       1.935357        52.6637 
 262   0.0000       1.950180        53.0671 
 263   0.0000       1.974171        53.7199 
 264   0.0000       1.980025        53.8792 
 265   0.0000       1.993880        54.2562 
 266   0.0000       2.004275        54.5391 
 267   0.0000       2.010464        54.7075 
 268   0.0000       2.037398        55.4404 
 269   0.0000       2.053602        55.8814 
 270   0.0000       2.064618        56.1811 
 271   0.0000       2.083980        56.7080 
 272   0.0000       2.089870        56.8682 
 273   0.0000       2.120632        57.7053 
 274   0.0000       2.137175        58.1555 
 275   0.0000       2.150119        58.5077 
 276   0.0000       2.179401        59.3045 
 277   0.0000       2.184640        59.4471 
 278   0.0000       2.200569        59.8805 
 279   0.0000       2.219064        60.3838 
 280   0.0000       2.238121        60.9024 
 281   0.0000       2.244510        61.0762 
 282   0.0000       2.256971        61.4153 
 283   0.0000       2.289792        62.3084 
 284   0.0000       2.306663        62.7675 
 285   0.0000       2.351811        63.9960 
 286   0.0000       2.356129        64.1135 
 287   0.0000       2.368678        64.4550 
 288   0.0000       2.370618        64.5078 
 289   0.0000       2.389097        65.0106 
 290   0.0000       2.398875        65.2767 
 291   0.0000       2.408752        65.5455 
 292   0.0000       2.432544        66.1929 
 293   0.0000       2.475147        67.3522 
 294   0.0000       2.490489        67.7697 
 295   0.0000       2.496124        67.9230 
 296   0.0000       2.519627        68.5625 
 297   0.0000       2.537331        69.0443 
 298   0.0000       2.555747        69.5454 
 299   0.0000       2.582198        70.2652 
 300   0.0000       2.588030        70.4239 
 301   0.0000       2.609821        71.0168 
 302   0.0000       2.625761        71.4506 
 303   0.0000       2.630215        71.5718 
 304   0.0000       2.635142        71.7058 
 305   0.0000       2.654749        72.2394 
 306   0.0000       2.670471        72.6672 
 307   0.0000       2.675034        72.7914 
 308   0.0000       2.694083        73.3097 
 309   0.0000       2.715056        73.8804 
 310   0.0000       2.725581        74.1668 
 311   0.0000       2.741720        74.6060 
 312   0.0000       2.767742        75.3141 
 313   0.0000       2.773088        75.4596 
 314   0.0000       2.784822        75.7789 
 315   0.0000       2.797121        76.1135 
 316   0.0000       2.803421        76.2850 
 317   0.0000       2.834297        77.1252 
 318   0.0000       2.838486        77.2391 
 319   0.0000       2.852696        77.6258 
 320   0.0000       2.870989        78.1236 
 321   0.0000       2.882376        78.4334 
 322   0.0000       2.898884        78.8826 
 323   0.0000       2.918727        79.4226 
 324   0.0000       2.956275        80.4443 
 325   0.0000       2.961255        80.5798 
 326   0.0000       2.996816        81.5475 
 327   0.0000       3.016589        82.0856 
 328   0.0000       3.037643        82.6585 
 329   0.0000       3.050425        83.0063 
 330   0.0000       3.062254        83.3282 
 331   0.0000       3.070500        83.5526 
 332   0.0000       3.075614        83.6917 
 333   0.0000       3.101343        84.3918 
 334   0.0000       3.119911        84.8971 
 335   0.0000       3.129358        85.1542 
 336   0.0000       3.174677        86.3874 
 337   0.0000       3.186243        86.7021 
 338   0.0000       3.196893        86.9919 
 339   0.0000       3.218626        87.5833 
 340   0.0000       3.234237        88.0081 
 341   0.0000       3.253874        88.5424 
 342   0.0000       3.262262        88.7707 
 343   0.0000       3.269848        88.9771 
 344   0.0000       3.292104        89.5827 
 345   0.0000       3.304174        89.9112 
 346   0.0000       3.305429        89.9453 
 347   0.0000       3.316134        90.2366 
 348   0.0000       3.325493        90.4913 
 349   0.0000       3.352498        91.2261 
 350   0.0000       3.360230        91.4365 
 351   0.0000       3.376198        91.8710 
 352   0.0000       3.391375        92.2840 
 353   0.0000       3.408700        92.7554 
 354   0.0000       3.416455        92.9665 
 355   0.0000       3.423987        93.1714 
 356   0.0000       3.433955        93.4427 
 357   0.0000       3.445826        93.7657 
 358   0.0000       3.461136        94.1823 
 359   0.0000       3.478341        94.6505 
 360   0.0000       3.499875        95.2365 
 361   0.0000       3.507471        95.4431 
 362   0.0000       3.517304        95.7107 
 363   0.0000       3.536674        96.2378 
 364   0.0000       3.563429        96.9658 
 365   0.0000       3.578727        97.3821 
 366   0.0000       3.582053        97.4726 
 367   0.0000       3.619858        98.5013 
 368   0.0000       3.626902        98.6930 
 369   0.0000       3.643274        99.1385 
 370   0.0000       3.664327        99.7114 
 371   0.0000       3.672069        99.9221 
 372   0.0000       3.702656       100.7544 
 373   0.0000       3.717401       101.1556 
 374   0.0000       3.720909       101.2511 
 375   0.0000       3.751473       102.0828 
 376   0.0000       3.757911       102.2580 
 377   0.0000       3.795971       103.2936 
 378   0.0000       3.800911       103.4280 
 379   0.0000       3.819682       103.9388 
 380   0.0000       3.860364       105.0458 
 381   0.0000       3.904436       106.2451 
 382   0.0000       3.937606       107.1477 
 383   0.0000       3.960178       107.7619 
 384   0.0000       3.968901       107.9993 
 385   0.0000       3.993827       108.6775 
 386   0.0000       4.004277       108.9619 
 387   0.0000       4.019156       109.3668 
 388   0.0000       4.075279       110.8940 
 389   0.0000       4.082434       111.0887 
 390   0.0000       4.092159       111.3533 
 391   0.0000       4.104583       111.6914 
 392   0.0000       4.131183       112.4152 
 393   0.0000       4.156955       113.1165 
 394   0.0000       4.185588       113.8957 
 395   0.0000       4.241776       115.4246 
 396   0.0000       4.249148       115.6252 
 397   0.0000       4.288057       116.6840 
 398   0.0000       4.297386       116.9378 
 399   0.0000       4.356463       118.5454 
 400   0.0000       4.379671       119.1769 
 401   0.0000       4.414856       120.1344 
 402   0.0000       4.453783       121.1936 
 403   0.0000       4.487737       122.1175 
 404   0.0000       4.517301       122.9220 
 405   0.0000       4.548677       123.7758 
 406   0.0000       4.593718       125.0014 
 407   0.0000       4.617358       125.6447 
 408   0.0000       4.661242       126.8389 
 409   0.0000       4.696072       127.7866 
 410   0.0000       4.724106       128.5495 
 411   0.0000       4.747314       129.1810 
 412   0.0000       4.771635       129.8428 
 413   0.0000       4.821229       131.1923 
 414   0.0000       4.853082       132.0591 
 415   0.0000       4.876486       132.6959 
 416   0.0000       4.901527       133.3773 
 417   0.0000       4.987947       135.7289 
 418   0.0000       4.998427       136.0141 
 419   0.0000       5.025596       136.7534 
 420   0.0000       5.065142       137.8295 
 421   0.0000       5.077481       138.1653 
 422   0.0000       5.106950       138.9672 
 423   0.0000       5.163601       140.5087 
 424   0.0000       5.200029       141.5000 
 425   0.0000       5.216704       141.9537 
 426   0.0000       5.255085       142.9981 
 427   0.0000       5.284715       143.8044 
 428   0.0000       5.295910       144.1090 
 429   0.0000       5.330758       145.0573 
 430   0.0000       5.384394       146.5168 
 431   0.0000       5.421753       147.5334 
 432   0.0000       5.480836       149.1411 
 433   0.0000       5.506263       149.8330 
 434   0.0000       5.518648       150.1701 
 435   0.0000       5.540136       150.7548 
 436   0.0000       5.569008       151.5404 
 437   0.0000       5.654920       153.8782 
 438   0.0000       5.686000       154.7239 
 439   0.0000       5.757516       156.6700 
 440   0.0000       5.863445       159.5524 
 441   0.0000       5.914711       160.9475 
 442   0.0000       6.004063       163.3788 
 443   0.0000       6.056312       164.8006 
 444   0.0000       6.121823       166.5833 
 445   0.0000       6.217359       169.1829 
 446   0.0000       6.291685       171.2055 
 447   0.0000       6.301740       171.4791 
 448   0.0000       6.634504       180.5340 
 449   0.0000       6.673025       181.5823 
 450   0.0000       6.820914       185.6065 
 451   0.0000       6.848603       186.3600 
 452   0.0000       6.917260       188.2282 
 453   0.0000       6.929223       188.5537 
 454   0.0000       7.105134       193.3405 
 455   0.0000       7.153222       194.6491 
 456   0.0000       7.256790       197.4673 
 457   0.0000       7.443822       202.5567 
 458   0.0000       7.599597       206.7955 
 459   0.0000       7.847074       213.5297 
 460   0.0000       8.572546       233.2708 
 461   0.0000       8.628103       234.7826 
 462   0.0000       8.923611       242.8238 
 463   0.0000       9.065730       246.6911 
 464   0.0000       9.281794       252.5705 
 465   0.0000      22.750047       619.0602 
 466   0.0000      22.796286       620.3185 
 467   0.0000      22.869518       622.3112 
 468   0.0000      22.951675       624.5468 
 469   0.0000      23.560731       641.1201 
 470   0.0000      23.679341       644.3476 
 471   0.0000      32.605095       887.2297 
 472   0.0000      33.038109       899.0126 
 473   0.0000      44.536236      1211.8926 
 474   0.0000      57.972689      1577.5171 

                    ********************************
                    * MULLIKEN POPULATION ANALYSIS *
                    ********************************

-----------------------
MULLIKEN ATOMIC CHARGES
-----------------------
   0 C :   -0.358322
   1 N :   -0.056434
   2 C :   -0.383197
   3 C :   -0.153001
   4 H :    0.134421
   5 H :    0.195499
   6 C :    0.727431
   7 C :    0.117482
   8 N :   -0.282175
   9 C :   -1.202114
  10 H :    0.294972
  11 H :    0.301849
  12 H :    0.340030
  13 H :    0.293923
  14 H :    0.213315
  15 H :    0.258473
  16 H :    0.060332
  17 H :    0.204669
  18 H :    0.061610
  19 F :   -0.184612
  20 O :   -0.584150
Sum of atomic charges:   -0.0000000

--------------------------------
MULLIKEN REDUCED ORBITAL CHARGES
--------------------------------
  0 C s       :     3.267352  s :     3.267352
      pz      :     1.131804  p :     2.954057
      px      :     0.930451
      py      :     0.891802
      dz2     :     0.006111  d :     0.128828
      dxz     :     0.022894
      dyz     :     0.054645
      dx2y2   :     0.027033
      dxy     :     0.018144
      f0      :     0.000505  f :     0.008086
      f+1     :     0.001084
      f-1     :     0.000750
      f+2     :     0.001688
      f-2     :     0.000478
      f+3     :     0.001728
      f-3     :     0.001853
  1 N s       :     3.352872  s :     3.352872
      pz      :     1.132971  p :     3.619200
      px      :     0.991640
      py      :     1.494590
      dz2     :     0.026458  d :     0.080538
      dxz     :     0.011824
      dyz     :     0.010456
      dx2y2   :     0.019438
      dxy     :     0.012362
      f0      :     0.000777  f :     0.003823
      f+1     :     0.000564
      f-1     :     0.000485
      f+2     :     0.000529
      f-2     :     0.000584
      f+3     :     0.000456
      f-3     :     0.000426
  2 C s       :     3.122177  s :     3.122177
      pz      :     1.071370  p :     3.158682
      px      :     1.112401
      py      :     0.974910
      dz2     :    -0.001690  d :     0.096814
      dxz     :     0.026646
      dyz     :     0.029774
      dx2y2   :     0.063935
      dxy     :    -0.021851
      f0      :     0.000497  f :     0.005524
      f+1     :     0.000223
      f-1     :     0.001276
      f+2     :     0.001582
      f-2     :     0.000724
      f+3     :     0.000794
      f-3     :     0.000428
  3 C s       :     2.978714  s :     2.978714
      pz      :     1.039535  p :     3.086135
      px      :     0.965694
      py      :     1.080906
      dz2     :     0.012391  d :     0.082961
      dxz     :     0.030430
      dyz     :     0.019110
      dx2y2   :     0.032545
      dxy     :    -0.011514
      f0      :     0.000598  f :     0.005192
      f+1     :     0.000667
      f-1     :     0.000599
      f+2     :     0.001632
      f-2     :     0.000913
      f+3     :     0.000392
      f-3     :     0.000390
  4 H s       :     0.829628  s :     0.829628
      pz      :     0.014834  p :     0.035951
      px      :    -0.007443
      py      :     0.028560
  5 H s       :     0.789521  s :     0.789521
      pz      :     0.004443  p :     0.014981
      px      :     0.021447
      py      :    -0.010909
  6 C s       :     3.095424  s :     3.095424
      pz      :     0.565392  p :     1.822297
      px      :     0.671225
      py      :     0.585680
      dz2     :     0.048806  d :     0.326026
      dxz     :     0.116369
      dyz     :     0.071159
      dx2y2   :     0.039802
      dxy     :     0.049890
      f0      :     0.005299  f :     0.028821
      f+1     :     0.007536
      f-1     :     0.002652
      f+2     :     0.004462
      f-2     :     0.003629
      f+3     :     0.002098
      f-3     :     0.003145
  7 C s       :     3.174710  s :     3.174710
      pz      :     0.602060  p :     2.265804
      px      :     0.631160
      py      :     1.032584
      dz2     :     0.098889  d :     0.422868
      dxz     :     0.089485
      dyz     :     0.087960
      dx2y2   :     0.088883
      dxy     :     0.057651
      f0      :     0.003136  f :     0.019135
      f+1     :     0.003867
      f-1     :     0.003022
      f+2     :     0.002730
      f-2     :     0.001861
      f+3     :     0.002535
      f-3     :     0.001984
  8 N s       :     3.427642  s :     3.427642
      pz      :     1.294727  p :     3.832953
      px      :     1.258974
      py      :     1.279253
      dz2     :     0.005158  d :     0.018629
      dxz     :    -0.006648
      dyz     :     0.001599
      dx2y2   :     0.013134
      dxy     :     0.005387
      f0      :     0.000362  f :     0.002951
      f+1     :     0.000558
      f-1     :     0.000312
      f+2     :     0.000499
      f-2     :     0.000326
      f+3     :     0.000390
      f-3     :     0.000504
  9 C s       :     3.624490  s :     3.624490
      pz      :     1.108392  p :     3.500573
      px      :     1.119251
      py      :     1.272930
      dz2     :     0.025729  d :     0.072446
      dxz     :    -0.011810
      dyz     :     0.008874
      dx2y2   :     0.040292
      dxy     :     0.009362
      f0      :     0.000825  f :     0.004605
      f+1     :     0.000463
      f-1     :     0.000637
      f+2     :     0.000576
      f-2     :     0.000443
      f+3     :     0.000855
      f-3     :     0.000806
 10 H s       :     0.639379  s :     0.639379
      pz      :     0.017932  p :     0.065648
      px      :     0.030709
      py      :     0.017007
 11 H s       :     0.637782  s :     0.637782
      pz      :     0.014350  p :     0.060370
      px      :     0.051580
      py      :    -0.005561
 12 H s       :     0.661829  s :     0.661829
      pz      :     0.000991  p :    -0.001860
      px      :    -0.001900
      py      :    -0.000951
 13 H s       :     0.689822  s :     0.689822
      pz      :     0.018163  p :     0.016255
      px      :    -0.011776
      py      :     0.009868
 14 H s       :     0.757732  s :     0.757732
      pz      :     0.020959  p :     0.028953
      px      :     0.000413
      py      :     0.007582
 15 H s       :     0.710618  s :     0.710618
      pz      :     0.029541  p :     0.030909
      px      :     0.011600
      py      :    -0.010232
 16 H s       :     0.872935  s :     0.872935
      pz      :     0.020306  p :     0.066734
      px      :     0.033039
      py      :     0.013389
 17 H s       :     0.767386  s :     0.767386
      pz      :     0.014465  p :     0.027945
      px      :     0.004393
      py      :     0.009088
 18 H s       :     0.887064  s :     0.887064
      pz      :     0.009412  p :     0.051326
      px      :     0.029140
      py      :     0.012774
 19 F s       :     3.986166  s :     3.986166
      pz      :     1.527621  p :     5.181329
      px      :     1.888397
      py      :     1.765312
      dz2     :     0.006997  d :     0.016181
      dxz     :     0.000102
      dyz     :     0.005251
      dx2y2   :     0.002653
      dxy     :     0.001179
      f0      :     0.000245  f :     0.000936
      f+1     :     0.000196
      f-1     :     0.000244
      f+2     :     0.000107
      f-2     :     0.000116
      f+3     :     0.000015
      f-3     :     0.000014
 20 O s       :     3.996211  s :     3.996211
      pz      :     1.684474  p :     4.550249
      px      :     1.357187
      py      :     1.508588
      dz2     :     0.004814  d :     0.036027
      dxz     :     0.006067
      dyz     :     0.003881
      dx2y2   :     0.008519
      dxy     :     0.012747
      f0      :     0.000173  f :     0.001662
      f+1     :     0.000376
      f-1     :     0.000015
      f+2     :     0.000336
      f-2     :     0.000204
      f+3     :     0.000221
      f-3     :     0.000336


                     *******************************
                     * LOEWDIN POPULATION ANALYSIS *
                     *******************************

----------------------
LOEWDIN ATOMIC CHARGES
----------------------
   0 C :   -0.175282
   1 N :    0.037265
   2 C :   -0.173936
   3 C :   -0.084959
   4 H :    0.125315
   5 H :    0.118407
   6 C :   -0.466383
   7 C :   -0.599034
   8 N :    0.133497
   9 C :    0.003842
  10 H :    0.010822
  11 H :    0.003469
  12 H :    0.129617
  13 H :    0.059054
  14 H :    0.113417
  15 H :    0.120011
  16 H :    0.118594
  17 H :    0.119562
  18 H :    0.115905
  19 F :    0.242796
  20 O :    0.048021

-------------------------------
LOEWDIN REDUCED ORBITAL CHARGES
-------------------------------
  0 C s       :     2.663532  s :     2.663532
      pz      :     0.930890  p :     2.662501
      px      :     0.822033
      py      :     0.909578
      dz2     :     0.088802  d :     0.794568
      dxz     :     0.168638
      dyz     :     0.165524
      dx2y2   :     0.175456
      dxy     :     0.196149
      f0      :     0.004513  f :     0.054680
      f+1     :     0.007946
      f-1     :     0.005657
      f+2     :     0.007729
      f-2     :     0.004512
      f+3     :     0.012012
      f-3     :     0.012311
  1 N s       :     2.842140  s :     2.842140
      pz      :     1.148620  p :     3.419572
      px      :     1.040524
      py      :     1.230427
      dz2     :     0.138370  d :     0.683912
      dxz     :     0.202238
      dyz     :     0.106192
      dx2y2   :     0.115114
      dxy     :     0.121997
      f0      :     0.003680  f :     0.017111
      f+1     :     0.003320
      f-1     :     0.002023
      f+2     :     0.002211
      f-2     :     0.002382
      f+3     :     0.001837
      f-3     :     0.001659
  2 C s       :     2.674135  s :     2.674135
      pz      :     0.906211  p :     2.741692
      px      :     0.928003
      py      :     0.907477
      dz2     :     0.113403  d :     0.719288
      dxz     :     0.153804
      dyz     :     0.178273
      dx2y2   :     0.173396
      dxy     :     0.100413
      f0      :     0.005452  f :     0.038820
      f+1     :     0.002342
      f-1     :     0.008499
      f+2     :     0.007024
      f-2     :     0.004742
      f+3     :     0.006693
      f-3     :     0.004069
  3 C s       :     2.673251  s :     2.673251
      pz      :     0.906929  p :     2.730462
      px      :     0.895204
      py      :     0.928329
      dz2     :     0.120230  d :     0.644747
      dxz     :     0.178398
      dyz     :     0.119996
      dx2y2   :     0.153858
      dxy     :     0.072265
      f0      :     0.006861  f :     0.036499
      f+1     :     0.004578
      f-1     :     0.004795
      f+2     :     0.006746
      f-2     :     0.005899
      f+3     :     0.003844
      f-3     :     0.003776
  4 H s       :     0.673366  s :     0.673366
      pz      :     0.058858  p :     0.201319
      px      :     0.053337
      py      :     0.089124
  5 H s       :     0.677629  s :     0.677629
      pz      :     0.067146  p :     0.203964
      px      :     0.085155
      py      :     0.051663
  6 C s       :     2.628638  s :     2.628638
      pz      :     0.761286  p :     2.282468
      px      :     0.903947
      py      :     0.617235
      dz2     :     0.310074  d :     1.370861
      dxz     :     0.399398
      dyz     :     0.211425
      dx2y2   :     0.226160
      dxy     :     0.223803
      f0      :     0.033742  f :     0.184416
      f+1     :     0.046139
      f-1     :     0.023587
      f+2     :     0.026728
      f-2     :     0.022195
      f+3     :     0.015314
      f-3     :     0.016712
  7 C s       :     2.591860  s :     2.591860
      pz      :     0.860189  p :     2.524491
      px      :     0.869524
      py      :     0.794778
      dz2     :     0.314322  d :     1.363551
      dxz     :     0.293165
      dyz     :     0.240130
      dx2y2   :     0.311654
      dxy     :     0.204279
      f0      :     0.020366  f :     0.119132
      f+1     :     0.024703
      f-1     :     0.018204
      f+2     :     0.016033
      f-2     :     0.012440
      f+3     :     0.014119
      f-3     :     0.013268
  8 N s       :     2.909226  s :     2.909226
      pz      :     1.157992  p :     3.540064
      px      :     1.231945
      py      :     1.150127
      dz2     :     0.077292  d :     0.404505
      dxz     :     0.087926
      dyz     :     0.031277
      dx2y2   :     0.110838
      dxy     :     0.097172
      f0      :     0.001426  f :     0.012708
      f+1     :     0.001919
      f-1     :     0.001145
      f+2     :     0.002310
      f-2     :     0.001053
      f+3     :     0.002103
      f-3     :     0.002752
  9 C s       :     2.726062  s :     2.726062
      pz      :     0.947456  p :     2.854959
      px      :     0.942965
      py      :     0.964538
      dz2     :     0.121323  d :     0.384560
      dxz     :     0.063710
      dyz     :     0.061775
      dx2y2   :     0.066703
      dxy     :     0.071048
      f0      :     0.005053  f :     0.030578
      f+1     :     0.002791
      f-1     :     0.005235
      f+2     :     0.004929
      f-2     :     0.005282
      f+3     :     0.003358
      f-3     :     0.003930
 10 H s       :     0.720874  s :     0.720874
      pz      :     0.101786  p :     0.268304
      px      :     0.074285
      py      :     0.092232
 11 H s       :     0.715726  s :     0.715726
      pz      :     0.077815  p :     0.280805
      px      :     0.108081
      py      :     0.094909
 12 H s       :     0.585207  s :     0.585207
      pz      :     0.082487  p :     0.285177
      px      :     0.090966
      py      :     0.111724
 13 H s       :     0.586633  s :     0.586633
      pz      :     0.087663  p :     0.354313
      px      :     0.082226
      py      :     0.184424
 14 H s       :     0.623521  s :     0.623521
      pz      :     0.122802  p :     0.263063
      px      :     0.075794
      py      :     0.064467
 15 H s       :     0.654608  s :     0.654608
      pz      :     0.103002  p :     0.225381
      px      :     0.058873
      py      :     0.063506
 16 H s       :     0.690173  s :     0.690173
      pz      :     0.074229  p :     0.191233
      px      :     0.049331
      py      :     0.067672
 17 H s       :     0.672325  s :     0.672325
      pz      :     0.071259  p :     0.208113
      px      :     0.085150
      py      :     0.051704
 18 H s       :     0.681781  s :     0.681781
      pz      :     0.060301  p :     0.202313
      px      :     0.090870
      py      :     0.051143
 19 F s       :     3.484273  s :     3.484273
      pz      :     1.609202  p :     5.031716
      px      :     1.757604
      py      :     1.664911
      dz2     :     0.068626  d :     0.238942
      dxz     :     0.066275
      dyz     :     0.058576
      dx2y2   :     0.022304
      dxy     :     0.023160
      f0      :     0.000516  f :     0.002274
      f+1     :     0.000535
      f-1     :     0.000574
      f+2     :     0.000265
      f-2     :     0.000318
      f+3     :     0.000032
      f-3     :     0.000034
 20 O s       :     3.343679  s :     3.343679
      pz      :     1.517102  p :     4.334946
      px      :     1.470365
      py      :     1.347479
      dz2     :     0.037819  d :     0.268253
      dxz     :     0.062965
      dyz     :     0.029615
      dx2y2   :     0.083750
      dxy     :     0.054105
      f0      :     0.000597  f :     0.005100
      f+1     :     0.001091
      f-1     :     0.000026
      f+2     :     0.001268
      f-2     :     0.000444
      f+3     :     0.001028
      f-3     :     0.000646


                      *****************************
                      * MAYER POPULATION ANALYSIS *
                      *****************************

  NA   - Mulliken gross atomic population
  ZA   - Total nuclear charge
  QA   - Mulliken gross atomic charge
  VA   - Mayer's total valence
  BVA  - Mayer's bonded valence
  FA   - Mayer's free valence

  ATOM       NA         ZA         QA         VA         BVA        FA
  0 C      6.3583     6.0000    -0.3583     4.2721     4.2721    -0.0000
  1 N      7.0564     7.0000    -0.0564     2.9810     2.9810     0.0000
  2 C      6.3832     6.0000    -0.3832     4.2557     4.2557    -0.0000
  3 C      6.1530     6.0000    -0.1530     3.9910     3.9910     0.0000
  4 H      0.8656     1.0000     0.1344     1.0227     1.0227     0.0000
  5 H      0.8045     1.0000     0.1955     0.9444     0.9444     0.0000
  6 C      5.2726     6.0000     0.7274     3.8634     3.8634     0.0000
  7 C      5.8825     6.0000     0.1175     3.8970     3.8970    -0.0000
  8 N      7.2822     7.0000    -0.2822     2.8480     2.8480    -0.0000
  9 C      7.2021     6.0000    -1.2021     3.8043     3.8043    -0.0000
 10 H      0.7050     1.0000     0.2950     0.9453     0.9453    -0.0000
 11 H      0.6982     1.0000     0.3018     1.0230     1.0230    -0.0000
 12 H      0.6600     1.0000     0.3400     0.7653     0.7653    -0.0000
 13 H      0.7061     1.0000     0.2939     0.8976     0.8976     0.0000
 14 H      0.7867     1.0000     0.2133     0.9159     0.9159    -0.0000
 15 H      0.7415     1.0000     0.2585     0.9327     0.9327     0.0000
 16 H      0.9397     1.0000     0.0603     1.0796     1.0796    -0.0000
 17 H      0.7953     1.0000     0.2047     0.9639     0.9639    -0.0000
 18 H      0.9384     1.0000     0.0616     1.0995     1.0995    -0.0000
 19 F      9.1846     9.0000    -0.1846     1.2152     1.2152     0.0000
 20 O      8.5842     8.0000    -0.5842     1.8271     1.8271     0.0000

  Mayer bond orders larger than 0.100000
B(  0-C ,  1-N ) :   0.8752 B(  0-C ,  2-C ) :   1.0244 B(  0-C ,  9-C ) :   0.1124 
B(  0-C , 15-H ) :   0.8986 B(  0-C , 16-H ) :   1.0448 B(  1-N ,  7-C ) :   1.1739 
B(  1-N , 12-H ) :   0.7069 B(  2-C ,  3-C ) :   0.9701 B(  2-C ,  6-C ) :   0.1369 
B(  2-C , 17-H ) :   0.9065 B(  2-C , 18-H ) :   1.0286 B(  3-C ,  4-H ) :   0.9195 
B(  3-C ,  5-H ) :   0.9413 B(  3-C ,  6-C ) :   1.0152 B(  6-C , 19-F ) :   1.0229 
B(  6-C , 20-O ) :   1.5541 B(  7-C ,  8-N ) :   1.0115 B(  7-C ,  9-C ) :   1.5738 
B(  7-C , 20-O ) :   0.1088 B(  8-N ,  9-C ) :   0.1072 B(  8-N , 13-H ) :   0.7973 
B(  8-N , 14-H ) :   0.8825 B(  9-C , 10-H ) :   0.9384 B(  9-C , 11-H ) :   0.9612 


-------
TIMINGS
-------

Total SCF time: 0 days 0 hours 2 min 30 sec 

Total time                  ....     150.735 sec
Sum of individual times     ....     150.062 sec  ( 99.6%)

Fock matrix formation       ....     145.343 sec  ( 96.4%)
  Split-RI-J                ....       9.350 sec  (  6.4% of F)
  Chain of spheres X        ....     115.336 sec  ( 79.4% of F)
  XC integration            ....      20.428 sec  ( 14.1% of F)
    Basis function eval.    ....       4.606 sec  ( 22.5% of XC)
    Density eval.           ....       6.586 sec  ( 32.2% of XC)
    XC-Functional eval.     ....       0.373 sec  (  1.8% of XC)
    XC-Potential eval.      ....       8.378 sec  ( 41.0% of XC)
Diagonalization             ....       0.540 sec  (  0.4%)
Density matrix formation    ....       0.034 sec  (  0.0%)
Population analysis         ....       0.062 sec  (  0.0%)
Initial guess               ....       0.903 sec  (  0.6%)
Orbital Transformation      ....       0.000 sec  (  0.0%)
Orbital Orthonormalization  ....       0.000 sec  (  0.0%)
DIIS solution               ....       0.286 sec  (  0.2%)
SOSCF solution              ....       0.391 sec  (  0.3%)
Grid generation             ....       2.502 sec  (  1.7%)

Maximum memory used throughout the entire SCF-calculation: 107.6 MB


-------------------------------------------------------------------------------
                          DFT DISPERSION CORRECTION                            
                                                                               
                              DFTD3 V3.1  Rev 1                                
                          USING Becke-Johnson damping                          
-------------------------------------------------------------------------------
The PBE0 functional is recognized
Active option DFTDOPT                   ...         4   

molecular C6(AA) [au] = 3733.593162 


            DFT-D V3
 parameters
 s6 scaling factor         :     1.0000 
 a1 scaling factor         :     0.4145 
 s8 scaling factor         :     1.2177 
 a2 scaling factor         :     4.8593 
 ad hoc parameters k1-k3   :    16.0000     1.3333    -4.0000 

 Edisp/kcal,au: -12.270232313545  -0.019553857769 
 E6   /kcal   :  -7.898584772 
 E8   /kcal   :  -4.371647542 
 % E8         :  35.628074760 

-------------------------   ----------------
Dispersion correction           -0.019553858
-------------------------   ----------------


-------------------------   --------------------
FINAL SINGLE POINT ENERGY      -519.417714845336
-------------------------   --------------------


                            ***************************************
                            *     ORCA property calculations      *
                            ***************************************

                                    ---------------------
                                    Active property flags
                                    ---------------------
   (+) Dipole Moment


------------------------------------------------------------------------------
                       ORCA ELECTRIC PROPERTIES CALCULATION
------------------------------------------------------------------------------

Dipole Moment Calculation                       ... on
Quadrupole Moment Calculation                   ... off
Polarizability Calculation                      ... off
GBWName                                         ... 28Oct_TZVPD_PBE0_D3_wb97.gbw
Electron density file                           ... 28Oct_TZVPD_PBE0_D3_wb97.scfp
The origin for moment calculation is the CENTER OF MASS  = ( 9.609515,  3.855000 -9.371929)

-------------
DIPOLE MOMENT
-------------
                                X             Y             Z
Electronic contribution:      3.57567      -4.85384      -4.86832
Nuclear contribution   :     -4.64021       3.37029       5.31478
                        -----------------------------------------
Total Dipole Moment    :     -1.06454      -1.48355       0.44646
                        -----------------------------------------
Magnitude (a.u.)       :      1.87976
Magnitude (Debye)      :      4.77797



--------------------
Rotational spectrum 
--------------------
 
Rotational constants in cm-1:     0.061077     0.043622     0.034103 
Rotational constants in MHz :  1831.041375  1307.759852  1022.388536 

 Dipole components along the rotational axes: 
x,y,z [a.u.] :    -1.833228    -0.024421    -0.414948 
x,y,z [Debye]:    -4.659695    -0.062074    -1.054714 

 

Timings for individual modules:

Sum of individual times         ...      151.946 sec (=   2.532 min)
GTO integral calculation        ...        0.837 sec (=   0.014 min)   0.6 %
SCF iterations                  ...      151.109 sec (=   2.518 min)  99.4 %
                             ****ORCA TERMINATED NORMALLY****
TOTAL RUN TIME: 0 days 0 hours 2 minutes 32 seconds 614 msec
