
                                        *****************
                                        * O   R   C   A *
                                        *****************

                                            #,                                       
                                            ###                                      
                                            ####                                     
                                            #####                                    
                                            ######                                   
                                           ########,                                 
                                     ,,################,,,,,                         
                               ,,#################################,,                 
                          ,,##########################################,,             
                       ,#########################################, ''#####,          
                    ,#############################################,,   '####,        
                  ,##################################################,,,,####,       
                ,###########''''           ''''###############################       
              ,#####''   ,,,,##########,,,,          '''####'''          '####       
            ,##' ,,,,###########################,,,                        '##       
           ' ,,###''''                  '''############,,,                           
         ,,##''                                '''############,,,,        ,,,,,,###''
      ,#''                                            '''#######################'''  
     '                                                          ''''####''''         
             ,#######,   #######,   ,#######,      ##                                
            ,#'     '#,  ##    ##  ,#'     '#,    #''#        ######   ,####,        
            ##       ##  ##   ,#'  ##            #'  '#       #        #'  '#        
            ##       ##  #######   ##           ,######,      #####,   #    #        
            '#,     ,#'  ##    ##  '#,     ,#' ,#      #,         ##   #,  ,#        
             '#######'   ##     ##  '#######'  #'      '#     #####' # '####'        



                  #######################################################
                  #                        -***-                        #
                  #          Department of theory and spectroscopy      #
                  #    Directorship and core code : Frank Neese         #
                  #        Max Planck Institute fuer Kohlenforschung    #
                  #                Kaiser Wilhelm Platz 1               #
                  #                 D-45470 Muelheim/Ruhr               #
                  #                      Germany                        #
                  #                                                     #
                  #                  All rights reserved                #
                  #                        -***-                        #
                  #######################################################


                         Program Version 5.0.0 -  RELEASE  -
                                (SVN: $Rev: 19529$)
                ($Date: 2021-06-28 11:36:33 +0200 (Mo, 28 Jun 2021) $)


 With contributions from (in alphabetic order):
   Daniel Aravena         : Magnetic Suceptibility
   Michael Atanasov       : Ab Initio Ligand Field Theory (pilot matlab implementation)
   Alexander A. Auer      : GIAO ZORA, VPT2 properties, NMR spectrum
   Ute Becker             : Parallelization
   Giovanni Bistoni       : ED, misc. LED, open-shell LED, HFLD
   Martin Brehm           : Molecular dynamics
   Dmytro Bykov           : SCF Hessian
   Vijay G. Chilkuri      : MRCI spin determinant printing, contributions to CSF-ICE
   Dipayan Datta          : RHF DLPNO-CCSD density
   Achintya Kumar Dutta   : EOM-CC, STEOM-CC
   Dmitry Ganyushin       : Spin-Orbit,Spin-Spin,Magnetic field MRCI
   Miquel Garcia          : C-PCM Hessian, Gaussian charge scheme
   Yang Guo               : DLPNO-NEVPT2, F12-NEVPT2, CIM, IAO-localization
   Andreas Hansen         : Spin unrestricted coupled pair/coupled cluster methods
   Benjamin Helmich-Paris : MC-RPA, TRAH-SCF, COSX integrals
   Lee Huntington         : MR-EOM, pCC
   Robert Izsak           : Overlap fitted RIJCOSX, COSX-SCS-MP3, EOM
   Marcus Kettner         : VPT2
   Christian Kollmar      : KDIIS, OOCD, Brueckner-CCSD(T), CCSD density, CASPT2, CASPT2-K
   Simone Kossmann        : Meta GGA functionals, TD-DFT gradient, OOMP2, MP2 Hessian
   Martin Krupicka        : Initial AUTO-CI
   Lucas Lang             : DCDCAS
   Marvin Lechner         : AUTO-CI (C++ implementation), FIC-MRCC
   Dagmar Lenk            : GEPOL surface, SMD
   Dimitrios Liakos       : Extrapolation schemes; Compound Job, initial MDCI parallelization
   Dimitrios Manganas     : Further ROCIS development; embedding schemes
   Dimitrios Pantazis     : SARC Basis sets
   Anastasios Papadopoulos: AUTO-CI, single reference methods and gradients
   Taras Petrenko         : DFT Hessian,TD-DFT gradient, ASA, ECA, R-Raman, ABS, FL, XAS/XES, NRVS
   Peter Pinski           : DLPNO-MP2, DLPNO-MP2 Gradient
   Christoph Reimann      : Effective Core Potentials
   Marius Retegan         : Local ZFS, SOC
   Christoph Riplinger    : Optimizer, TS searches, QM/MM, DLPNO-CCSD(T), (RO)-DLPNO pert. Triples
   Tobias Risthaus        : Range-separated hybrids, TD-DFT gradient, RPA, STAB
   Michael Roemelt        : Original ROCIS implementation
   Masaaki Saitow         : Open-shell DLPNO-CCSD energy and density
   Barbara Sandhoefer     : DKH picture change effects
   Avijit Sen             : IP-ROCIS
   Kantharuban Sivalingam : CASSCF convergence, NEVPT2, FIC-MRCI
   Bernardo de Souza      : ESD, SOC TD-DFT
   Georgi Stoychev        : AutoAux, RI-MP2 NMR
   Willem Van den Heuvel  : Paramagnetic NMR
   Boris Wezisla          : Elementary symmetry handling
   Frank Wennmohs         : Technical directorship


 We gratefully acknowledge several colleagues who have allowed us to
 interface, adapt or use parts of their codes:
   Stefan Grimme, W. Hujo, H. Kruse, P. Pracht,  : VdW corrections, initial TS optimization,
                  C. Bannwarth, S. Ehlert          DFT functionals, gCP, sTDA/sTD-DF
   Ed Valeev, F. Pavosevic, A. Kumar             : LibInt (2-el integral package), F12 methods
   Garnet Chan, S. Sharma, J. Yang, R. Olivares  : DMRG
   Ulf Ekstrom                                   : XCFun DFT Library
   Mihaly Kallay                                 : mrcc  (arbitrary order and MRCC methods)
   Jiri Pittner, Ondrej Demel                    : Mk-CCSD
   Frank Weinhold                                : gennbo (NPA and NBO analysis)
   Christopher J. Cramer and Donald G. Truhlar   : smd solvation model
   Lars Goerigk                                  : TD-DFT with DH, B97 family of functionals
   V. Asgeirsson, H. Jonsson                     : NEB implementation
   FAccTs GmbH                                   : IRC, NEB, NEB-TS, DLPNO-Multilevel, CI-OPT
                                                   MM, QMMM, 2- and 3-layer-ONIOM, Crystal-QMMM,
                                                   LR-CPCM, SF, NACMEs, symmetry and pop. for TD-DFT,
                                                   nearIR, NL-DFT gradient (VV10), updates on ESD,
                                                   ML-optimized integration grids
   S Lehtola, MJT Oliveira, MAL Marques          : LibXC Library
   Liviu Ungur et al                             : ANISO software


 Your calculation uses the libint2 library for the computation of 2-el integrals
 For citations please refer to: http://libint.valeyev.net

 Your ORCA version has been built with support for libXC version: 5.1.0
 For citations please refer to: https://tddft.org/programs/libxc/

 This ORCA versions uses:
   CBLAS   interface :  Fast vector & matrix operations
   LAPACKE interface :  Fast linear algebra routines
   SCALAPACK package :  Parallel linear algebra routines
   Shared memory     :  Shared parallel matrices
   BLAS/LAPACK       :  OpenBLAS 0.3.15  USE64BITINT DYNAMIC_ARCH NO_AFFINITY Haswell SINGLE_THREADED
        Core in use  :  Haswell
   Copyright (c) 2011-2014, The OpenBLAS Project


Your calculation utilizes the atom-pairwise dispersion correction
with the Becke-Johnson damping scheme (D3BJ)
Cite in your paper:
S.Grimme, S.Ehrlich, L.Goerigk, J Comput Chem, (2011), 32, 1456–1465 
S.Grimme, J.Antony, S.Ehrlich and H.Krieg, J.Chem.Phys., 132, (2010), 154104 
   

================================================================================

----- Orbital basis set information -----
Your calculation utilizes the basis: def2-SVPD
   F. Weigend and R. Ahlrichs, Phys. Chem. Chem. Phys. 7, 3297 (2005).
   D. Rappoport and F. Furche, J. Chem. Phys. 133 134105 (2010).

----- AuxJ basis set information -----
Your calculation utilizes the auxiliary basis: def2/J
   F. Weigend, Phys. Chem. Chem. Phys. 8, 1057 (2006).

================================================================================
                                        WARNINGS
                       Please study these warnings very carefully!
================================================================================


INFO   : the flag for use of the SHARK integral package has been found!

================================================================================
                                       INPUT FILE
================================================================================
NAME = 18Feb_SVPD_B3LYP_A_wt_wb97_typm1_neg.com
|  1> !B3LYP D3BJ RIJCOSX def2-SVPD def2/J TightSCF 
|  2> *xyz -1 1
|  3> C         -0.50835        1.72268       -4.12430
|  4> S         -1.32861        0.14674       -4.43578
|  5> O         -2.57135        0.47573       -5.06834
|  6> O         -1.51496       -0.40051       -3.06342
|  7> O         -0.37793       -0.62756       -5.20114
|  8> H         -0.31967        2.21655       -5.05456
|  9> H          0.41835        1.54859       -3.61852
| 10> H         -1.13714        2.33776       -3.51504
| 11> *
| 12> %MaxCore 64000
| 13> 
| 14> %pal nprocs 4
| 15> end  
| 16> 
| 17> %scf
| 18>   MaxIter 150
| 19> end
| 20> 
| 21> 
| 22>                          ****END OF INPUT****
================================================================================

                       ****************************
                       * Single Point Calculation *
                       ****************************

---------------------------------
CARTESIAN COORDINATES (ANGSTROEM)
---------------------------------
  C     -0.508350    1.722680   -4.124300
  S     -1.328610    0.146740   -4.435780
  O     -2.571350    0.475730   -5.068340
  O     -1.514960   -0.400510   -3.063420
  O     -0.377930   -0.627560   -5.201140
  H     -0.319670    2.216550   -5.054560
  H      0.418350    1.548590   -3.618520
  H     -1.137140    2.337760   -3.515040

----------------------------
CARTESIAN COORDINATES (A.U.)
----------------------------
  NO LB      ZA    FRAG     MASS         X           Y           Z
   0 C     6.0000    0    12.011   -0.960642    3.255393   -7.793797
   1 S    16.0000    0    32.060   -2.510709    0.277298   -8.382409
   2 O     8.0000    0    15.999   -4.859147    0.898999   -9.577775
   3 O     8.0000    0    15.999   -2.862860   -0.756854   -5.789025
   4 O     8.0000    0    15.999   -0.714184   -1.185917   -9.828730
   5 H     1.0000    0     1.008   -0.604089    4.188672   -9.551734
   6 H     1.0000    0     1.008    0.790567    2.926411   -6.838012
   7 H     1.0000    0     1.008   -2.148883    4.417726   -6.642463

--------------------------------
INTERNAL COORDINATES (ANGSTROEM)
--------------------------------
 C      0   0   0     0.000000000000     0.00000000     0.00000000
 S      1   0   0     1.803727568565     0.00000000     0.00000000
 O      2   1   0     1.432748854929   105.66825675     0.00000000
 O      2   1   3     1.489154409254   102.64124569   241.94826009
 O      2   1   3     1.445374997016   105.09290493   124.76293906
 H      1   2   3     1.069995975179   109.47095866   298.05162050
 H      1   2   3     1.069997021725   109.47097481   178.05166235
 H      1   2   3     1.069999073878   109.47126006    58.05208086

---------------------------
INTERNAL COORDINATES (A.U.)
---------------------------
 C      0   0   0     0.000000000000     0.00000000     0.00000000
 S      1   0   0     3.408551124791     0.00000000     0.00000000
 O      2   1   0     2.707502954505   105.66825675     0.00000000
 O      2   1   3     2.814094004611   102.64124569   241.94826009
 O      2   1   3     2.731362905178   105.09290493   124.76293906
 H      1   2   3     2.021999357487   109.47095866   298.05162050
 H      1   2   3     2.022001335171   109.47097481   178.05166235
 H      1   2   3     2.022005213179   109.47126006    58.05208086

---------------------
BASIS SET INFORMATION
---------------------
There are 4 groups of distinct atoms

 Group   1 Type C   : 8s4p2d contracted to 4s2p2d pattern {5111/31/11}
 Group   2 Type S   : 11s8p2d contracted to 5s4p2d pattern {53111/5111/11}
 Group   3 Type O   : 8s5p2d contracted to 4s3p2d pattern {5111/311/11}
 Group   4 Type H   : 4s2p contracted to 2s2p pattern {31/11}

Atom   0C    basis set group =>   1
Atom   1S    basis set group =>   2
Atom   2O    basis set group =>   3
Atom   3O    basis set group =>   3
Atom   4O    basis set group =>   3
Atom   5H    basis set group =>   4
Atom   6H    basis set group =>   4
Atom   7H    basis set group =>   4
---------------------------------
AUXILIARY/J BASIS SET INFORMATION
---------------------------------
There are 4 groups of distinct atoms

 Group   1 Type C   : 12s5p4d2f1g contracted to 6s4p3d1f1g pattern {711111/2111/211/2/1}
 Group   2 Type S   : 14s5p5d2f1g contracted to 8s4p3d1f1g pattern {71111111/2111/311/2/1}
 Group   3 Type O   : 12s5p4d2f1g contracted to 6s4p3d1f1g pattern {711111/2111/211/2/1}
 Group   4 Type H   : 5s2p1d contracted to 3s1p1d pattern {311/2/1}

Atom   0C    basis set group =>   1
Atom   1S    basis set group =>   2
Atom   2O    basis set group =>   3
Atom   3O    basis set group =>   3
Atom   4O    basis set group =>   3
Atom   5H    basis set group =>   4
Atom   6H    basis set group =>   4
Atom   7H    basis set group =>   4


           ************************************************************
           *        Program running with 4 parallel MPI-processes     *
           *              working on a common directory               *
           ************************************************************
------------------------------------------------------------------------------
                           ORCA GTO INTEGRAL CALCULATION
                           -- RI-GTO INTEGRALS CHOSEN --
------------------------------------------------------------------------------
------------------------------------------------------------------------------
                   ___                                                        
                  /   \      - P O W E R E D   B Y -                         
                 /     \                                                     
                 |  |  |   _    _      __       _____    __    __             
                 |  |  |  | |  | |    /  \     |  _  \  |  |  /  |          
                  \  \/   | |  | |   /    \    | | | |  |  | /  /          
                 / \  \   | |__| |  /  /\  \   | |_| |  |  |/  /          
                |  |  |   |  __  | /  /__\  \  |    /   |      \           
                |  |  |   | |  | | |   __   |  |    \   |  |\   \          
                \     /   | |  | | |  |  |  |  | |\  \  |  | \   \       
                 \___/    |_|  |_| |__|  |__|  |_| \__\ |__|  \__/        
                                                                              
                      - O R C A' S   B I G   F R I E N D -                    
                                      &                                       
                       - I N T E G R A L  F E E D E R -                       
                                                                              
 v1 FN, 2020, v2 2021                                                         
------------------------------------------------------------------------------


Reading SHARK input file 18Feb_SVPD_B3LYP_A_wt_wb97_typm1_neg.SHARKINP.tmp ... ok
----------------------
SHARK INTEGRAL PACKAGE
----------------------

Number of atoms                             ...      8
Number of basis functions                   ...    140
Number of shells                            ...     58
Maximum angular momentum                    ...      2
Integral batch strategy                     ... SHARK/LIBINT Hybrid
RI-J (if used) integral strategy            ... SPLIT-RIJ (Revised 2003 algorithm where possible)
Printlevel                                  ...      1
Contraction scheme used                     ... SEGMENTED contraction
Coulomb Range Separation                    ... NOT USED
Exchange Range Separation                   ... NOT USED
Finite Nucleus Model                        ... NOT USED
Auxiliary Coulomb fitting basis             ... AVAILABLE
   # of basis functions in Aux-J            ...    280
   # of shells in Aux-J                     ...     92
   Maximum angular momentum in Aux-J        ...      4
Auxiliary J/K fitting basis                 ... NOT available
Auxiliary Correlation fitting basis         ... NOT available
Auxiliary 'external' fitting basis          ... NOT available
Integral threshold                          ...     2.500000e-11
Primitive cut-off                           ...     2.500000e-12
Primitive pair pre-selection threshold      ...     2.500000e-12

Calculating pre-screening integrals         ... done (  0.0 sec) Dimension = 58
Organizing shell pair data                  ... done (  0.0 sec)
Shell pair information
Total number of shell pairs                 ...      1711
Shell pairs after pre-screening             ...      1698
Total number of primitive shell pairs       ...      4935
Primitive shell pairs kept                  ...      4137
          la=0 lb=0:    368 shell pairs
          la=1 lb=0:    564 shell pairs
          la=1 lb=1:    231 shell pairs
          la=2 lb=0:    270 shell pairs
          la=2 lb=1:    210 shell pairs
          la=2 lb=2:     55 shell pairs

Calculating one electron integrals          ... done (  0.0 sec)
Calculating RI/J V-Matrix + Cholesky decomp.... done (  0.0 sec)
Calculating Nuclear repulsion               ... done (  0.0 sec) ENN=    272.009803770951 Eh

SHARK setup successfully completed in   0.1 seconds

Maximum memory used throughout the entire GTOINT-calculation: 8.8 MB


           ************************************************************
           *        Program running with 4 parallel MPI-processes     *
           *              working on a common directory               *
           ************************************************************
-------------------------------------------------------------------------------
                                 ORCA SCF
-------------------------------------------------------------------------------

------------
SCF SETTINGS
------------
Hamiltonian:
 Density Functional     Method          .... DFT(GTOs)
 Exchange Functional    Exchange        .... B88
   X-Alpha parameter    XAlpha          ....  0.666667
   Becke's b parameter  XBeta           ....  0.004200
 Correlation Functional Correlation     .... LYP
 LDA part of GGA corr.  LDAOpt          .... VWN-5
 Gradients option       PostSCFGGA      .... off
 Hybrid DFT is turned on
   Fraction HF Exchange ScalHFX         ....  0.200000
   Scaling of DF-GGA-X  ScalDFX         ....  0.720000
   Scaling of DF-GGA-C  ScalDFC         ....  0.810000
   Scaling of DF-LDA-C  ScalLDAC        ....  1.000000
   Perturbative correction              ....  0.000000
   Density functional embedding theory  .... OFF
   NL short-range parameter             ....  4.800000
 RI-approximation to the Coulomb term is turned on
   Number of AuxJ basis functions       .... 280
   RIJ-COSX (HFX calculated with COS-X)).... on


General Settings:
 Integral files         IntName         .... 18Feb_SVPD_B3LYP_A_wt_wb97_typm1_neg
 Hartree-Fock type      HFTyp           .... RHF
 Total Charge           Charge          ....   -1
 Multiplicity           Mult            ....    1
 Number of Electrons    NEL             ....   50
 Basis Dimension        Dim             ....  140
 Nuclear Repulsion      ENuc            ....    272.0098037710 Eh

Convergence Acceleration:
 DIIS                   CNVDIIS         .... on
   Start iteration      DIISMaxIt       ....    12
   Startup error        DIISStart       ....  0.200000
   # of expansion vecs  DIISMaxEq       ....     5
   Bias factor          DIISBfac        ....   1.050
   Max. coefficient     DIISMaxC        ....  10.000
 Trust-Rad. Augm. Hess. CNVTRAH         .... auto
   Auto Start mean grad. ratio tolernc. ....  1.125000
   Auto Start start iteration           ....    20
   Auto Start num. interpolation iter.  ....    10
   Max. Number of Micro iterations      ....    16
   Max. Number of Macro iterations      .... Maxiter - #DIIS iter
   Number of Davidson start vectors     ....     2
   Converg. threshold I  (grad. norm)   ....   1.000e-05
   Converg. threshold II (energy diff.) ....   1.000e-08
   Grad. Scal. Fac. for Micro threshold ....   0.100
   Minimum threshold for Micro iter.    ....   0.010
   NR start threshold (gradient norm)   ....   0.001
   Initial trust radius                 ....   0.400
   Minimum AH scaling param. (alpha)    ....   1.000
   Maximum AH scaling param. (alpha)    .... 1000.000
   Orbital update algorithm             .... Taylor
   White noise on init. David. guess    .... on
   Maximum white noise                  ....   0.010
   Quad. conv. algorithm                .... NR
 SOSCF                  CNVSOSCF        .... on
   Start iteration      SOSCFMaxIt      ....   150
   Startup grad/error   SOSCFStart      ....  0.003300
 Level Shifting         CNVShift        .... on
   Level shift para.    LevelShift      ....    0.2500
   Turn off err/grad.   ShiftErr        ....    0.0010
 Zerner damping         CNVZerner       .... off
 Static damping         CNVDamp         .... on
   Fraction old density DampFac         ....    0.7000
   Max. Damping (<1)    DampMax         ....    0.9800
   Min. Damping (>=0)   DampMin         ....    0.0000
   Turn off err/grad.   DampErr         ....    0.1000
 Fernandez-Rico         CNVRico         .... off

SCF Procedure:
 Maximum # iterations   MaxIter         ....   150
 SCF integral mode      SCFMode         .... Direct
   Integral package                     .... SHARK and LIBINT hybrid scheme
 Reset frequency        DirectResetFreq ....    20
 Integral Threshold     Thresh          ....  2.500e-11 Eh
 Primitive CutOff       TCut            ....  2.500e-12 Eh

Convergence Tolerance:
 Convergence Check Mode ConvCheckMode   .... Total+1el-Energy
 Convergence forced     ConvForced      .... 0
 Energy Change          TolE            ....  1.000e-08 Eh
 1-El. energy change                    ....  1.000e-05 Eh
 Orbital Gradient       TolG            ....  1.000e-05
 Orbital Rotation angle TolX            ....  1.000e-05
 DIIS Error             TolErr          ....  5.000e-07


Diagonalization of the overlap matrix:
Smallest eigenvalue                        ... 3.560e-04
Time for diagonalization                   ...    0.006 sec
Threshold for overlap eigenvalues          ... 1.000e-08
Number of eigenvalues below threshold      ... 0
Time for construction of square roots      ...    0.005 sec
Total time needed                          ...    0.011 sec

Time for model grid setup =    0.061 sec

------------------------------
INITIAL GUESS: MODEL POTENTIAL
------------------------------
Loading Hartree-Fock densities                     ... done
Calculating cut-offs                               ... done
Initializing the effective Hamiltonian             ... done
Setting up the integral package (SHARK)            ... done
Starting the Coulomb interaction                   ... done (   0.0 sec)
Reading the grid                                   ... done
Mapping shells                                     ... done
Starting the XC term evaluation                    ... done (   0.1 sec)
  promolecular density results
     # of electrons  =     48.997899781
     EX              =    -55.751494353
     EC              =     -1.842181526
     EX+EC           =    -57.593675878
Transforming the Hamiltonian                       ... done (   0.0 sec)
Diagonalizing the Hamiltonian                      ... done (   0.0 sec)
Back transforming the eigenvectors                 ... done (   0.0 sec)
Now organizing SCF variables                       ... done
                      ------------------
                      INITIAL GUESS DONE (   0.1 sec)
                      ------------------
-------------------
DFT GRID GENERATION
-------------------

General Integration Accuracy     IntAcc      ... 4.388
Radial Grid Type                 RadialGrid  ... OptM3 with GC (2021)
Angular Grid (max. ang.)         AngularGrid ... 4 (Lebedev-302)
Angular grid pruning method      GridPruning ... 4 (adaptive)
Weight generation scheme         WeightScheme... Becke
Basis function cutoff            BFCut       ... 1.0000e-11
Integration weight cutoff        WCut        ... 1.0000e-14
Angular grids for H and He will be reduced by one unit
Partially contracted basis set               ... off
Rotationally invariant grid construction     ... off

Total number of grid points                  ...    43326
Total number of batches                      ...      681
Average number of points per batch           ...       63
Average number of grid points per atom       ...     5416
Time for grid setup =    0.299 sec

--------------------
COSX GRID GENERATION
--------------------

GRIDX 1
-------
General Integration Accuracy     IntAcc      ... 3.816
Radial Grid Type                 RadialGrid  ... OptM3 with GC (2021)
Angular Grid (max. ang.)         AngularGrid ... 1 (Lebedev-50)
Angular grid pruning method      GridPruning ... 4 (adaptive)
Weight generation scheme         WeightScheme... Becke
Basis function cutoff            BFCut       ... 1.0000e-11
Integration weight cutoff        WCut        ... 1.0000e-14
Angular grids for H and He will be reduced by one unit
Partially contracted basis set               ... on
Rotationally invariant grid construction     ... off

Total number of grid points                  ...     5353
Total number of batches                      ...       88
Average number of points per batch           ...       60
Average number of grid points per atom       ...      669
UseSFitting                                  ... on

GRIDX 2
-------
General Integration Accuracy     IntAcc      ... 4.020
Radial Grid Type                 RadialGrid  ... OptM3 with GC (2021)
Angular Grid (max. ang.)         AngularGrid ... 2 (Lebedev-110)
Angular grid pruning method      GridPruning ... 4 (adaptive)
Weight generation scheme         WeightScheme... Becke
Basis function cutoff            BFCut       ... 1.0000e-11
Integration weight cutoff        WCut        ... 1.0000e-14
Angular grids for H and He will be reduced by one unit
Partially contracted basis set               ... on
Rotationally invariant grid construction     ... off

Total number of grid points                  ...    13338
Total number of batches                      ...      213
Average number of points per batch           ...       62
Average number of grid points per atom       ...     1667
UseSFitting                                  ... on

GRIDX 3
-------
General Integration Accuracy     IntAcc      ... 4.338
Radial Grid Type                 RadialGrid  ... OptM3 with GC (2021)
Angular Grid (max. ang.)         AngularGrid ... 3 (Lebedev-194)
Angular grid pruning method      GridPruning ... 4 (adaptive)
Weight generation scheme         WeightScheme... Becke
Basis function cutoff            BFCut       ... 1.0000e-11
Integration weight cutoff        WCut        ... 1.0000e-14
Angular grids for H and He will be reduced by one unit
Partially contracted basis set               ... on
Rotationally invariant grid construction     ... off

Total number of grid points                  ...    30355
Total number of batches                      ...      479
Average number of points per batch           ...       63
Average number of grid points per atom       ...     3794
UseSFitting                                  ... on

Time for X-Grid setup             =    0.275 sec

--------------
SCF ITERATIONS
--------------
ITER       Energy         Delta-E        Max-DP      RMS-DP      [F,P]     Damp
               ***  Starting incremental Fock matrix formation  ***
  0   -662.9320102965   0.000000000000 0.17491922  0.00415194  0.3076264 0.7000
  1   -663.1210050757  -0.188994779192 0.07571467  0.00227996  0.1194097 0.7000
                               ***Turning on DIIS***
  2   -663.1820048589  -0.060999783288 0.08963818  0.00281351  0.0439313 0.0000
  3   -663.2904374385  -0.108432579581 0.05230617  0.00152601  0.0674334 0.0000
  4   -663.3110632016  -0.020625763097 0.01813947  0.00042861  0.0225349 0.0000
                      *** Initiating the SOSCF procedure ***
                           *** Shutting down DIIS ***
                      *** Re-Reading the Fockian *** 
                      *** Removing any level shift *** 
ITER      Energy       Delta-E        Grad      Rot      Max-DP    RMS-DP
  5   -663.31234503  -0.0012818294  0.000818  0.000818  0.002847  0.000139
               *** Restarting incremental Fock matrix formation ***
  6   -663.31233621   0.0000088222  0.000432  0.001431  0.002666  0.000126
  7   -663.31233448   0.0000017319  0.000474  0.000487  0.001159  0.000043
  8   -663.31234512  -0.0000106388  0.000154  0.000272  0.000774  0.000027
  9   -663.31234458   0.0000005380  0.000188  0.000122  0.000577  0.000015
 10   -663.31234590  -0.0000013245  0.000017  0.000019  0.000132  0.000003
 11   -663.31234590   0.0000000067  0.000021  0.000011  0.000069  0.000001
                  ***Gradient check signals convergence***
              ***Rediagonalizing the Fockian in SOSCF/NRSCF***

               *****************************************************
               *                     SUCCESS                       *
               *           SCF CONVERGED AFTER  12 CYCLES          *
               *****************************************************

Old exchange energy                            =    -11.252239079 Eh
New exchange energy                            =    -11.252265081 Eh
Exchange energy change after final integration =     -0.000026002 Eh
Total energy after final integration           =   -663.312371912 Eh
Final COS-X integration done in                =     1.059 sec

----------------
TOTAL SCF ENERGY
----------------

Total Energy       :         -663.31237191 Eh          -18049.64727 eV

Components:
Nuclear Repulsion  :          272.00980377 Eh            7401.76306 eV
Electronic Energy  :         -935.32217568 Eh          -25451.41033 eV
One Electron Energy:        -1463.44543499 Eh          -39822.37482 eV
Two Electron Energy:          528.12325931 Eh           14370.96449 eV
Max COSX asymmetry :            0.00000221 Eh               0.00006 eV

Virial components:
Potential Energy   :        -1323.70501695 Eh          -36019.84472 eV
Kinetic Energy     :          660.39264504 Eh           17970.19746 eV
Virial Ratio       :            2.00442120


DFT components:
N(Alpha)           :       25.000255797440 electrons
N(Beta)            :       25.000255797440 electrons
N(Total)           :       50.000511594880 electrons
E(X)               :      -44.769163850300 Eh       
E(C)               :       -2.194855283187 Eh       
E(XC)              :      -46.964019133487 Eh       
DFET-embed. en.    :        0.000000000000 Eh       

---------------
SCF CONVERGENCE
---------------

  Last Energy change         ...   -1.3865e-08  Tolerance :   1.0000e-08
  Last MAX-Density change    ...    1.7764e-15  Tolerance :   1.0000e-07
  Last RMS-Density change    ...    4.5712e-17  Tolerance :   5.0000e-09
  Last Orbital Gradient      ...    1.4515e-06  Tolerance :   1.0000e-05
  Last Orbital Rotation      ...    3.1136e-06  Tolerance :   1.0000e-05

             **** THE GBW FILE WAS UPDATED (18Feb_SVPD_B3LYP_A_wt_wb97_typm1_neg.gbw) ****
             **** DENSITY 18Feb_SVPD_B3LYP_A_wt_wb97_typm1_neg.scfp WAS UPDATED ****
             **** ENERGY FILE WAS UPDATED (18Feb_SVPD_B3LYP_A_wt_wb97_typm1_neg.en.tmp) ****
             **** THE GBW FILE WAS UPDATED (18Feb_SVPD_B3LYP_A_wt_wb97_typm1_neg.gbw) ****
             **** DENSITY 18Feb_SVPD_B3LYP_A_wt_wb97_typm1_neg.scfp WAS UPDATED ****
----------------
ORBITAL ENERGIES
----------------

  NO   OCC          E(Eh)            E(eV) 
   0   2.0000     -88.881843     -2418.5979 
   1   2.0000     -18.922426      -514.9054 
   2   2.0000     -18.919566      -514.8276 
   3   2.0000     -18.904433      -514.4158 
   4   2.0000     -10.032804      -273.0065 
   5   2.0000      -7.935447      -215.9345 
   6   2.0000      -5.904391      -160.6667 
   7   2.0000      -5.904170      -160.6606 
   8   2.0000      -5.903890      -160.6530 
   9   2.0000      -0.932056       -25.3625 
  10   2.0000      -0.796620       -21.6771 
  11   2.0000      -0.765617       -20.8335 
  12   2.0000      -0.574491       -15.6327 
  13   2.0000      -0.384635       -10.4664 
  14   2.0000      -0.303173        -8.2498 
  15   2.0000      -0.287903        -7.8342 
  16   2.0000      -0.287482        -7.8228 
  17   2.0000      -0.249599        -6.7919 
  18   2.0000      -0.246948        -6.7198 
  19   2.0000      -0.153288        -4.1712 
  20   2.0000      -0.152585        -4.1520 
  21   2.0000      -0.119321        -3.2469 
  22   2.0000      -0.111808        -3.0424 
  23   2.0000      -0.098412        -2.6779 
  24   2.0000      -0.065709        -1.7880 
  25   0.0000       0.151252         4.1158 
  26   0.0000       0.186269         5.0686 
  27   0.0000       0.186932         5.0867 
  28   0.0000       0.189596         5.1592 
  29   0.0000       0.214354         5.8329 
  30   0.0000       0.241338         6.5671 
  31   0.0000       0.241397         6.5688 
  32   0.0000       0.265694         7.2299 
  33   0.0000       0.266139         7.2420 
  34   0.0000       0.279218         7.5979 
  35   0.0000       0.303940         8.2706 
  36   0.0000       0.304581         8.2881 
  37   0.0000       0.324000         8.8165 
  38   0.0000       0.329316         8.9611 
  39   0.0000       0.331626         9.0240 
  40   0.0000       0.350652         9.5417 
  41   0.0000       0.358081         9.7439 
  42   0.0000       0.362665         9.8686 
  43   0.0000       0.363060         9.8794 
  44   0.0000       0.379171        10.3178 
  45   0.0000       0.407210        11.0808 
  46   0.0000       0.411274        11.1913 
  47   0.0000       0.423489        11.5237 
  48   0.0000       0.444388        12.0924 
  49   0.0000       0.460770        12.5382 
  50   0.0000       0.469045        12.7634 
  51   0.0000       0.483624        13.1601 
  52   0.0000       0.507132        13.7998 
  53   0.0000       0.507405        13.8072 
  54   0.0000       0.509344        13.8600 
  55   0.0000       0.513856        13.9827 
  56   0.0000       0.515153        14.0180 
  57   0.0000       0.520625        14.1669 
  58   0.0000       0.562290        15.3007 
  59   0.0000       0.598789        16.2939 
  60   0.0000       0.604721        16.4553 
  61   0.0000       0.605651        16.4806 
  62   0.0000       0.624631        16.9971 
  63   0.0000       0.630952        17.1691 
  64   0.0000       0.631499        17.1840 
  65   0.0000       0.637597        17.3499 
  66   0.0000       0.659937        17.9578 
  67   0.0000       0.664836        18.0911 
  68   0.0000       0.720039        19.5933 
  69   0.0000       0.727294        19.7907 
  70   0.0000       0.738669        20.1002 
  71   0.0000       0.806000        21.9324 
  72   0.0000       0.819538        22.3008 
  73   0.0000       0.820483        22.3265 
  74   0.0000       0.827786        22.5252 
  75   0.0000       0.852300        23.1923 
  76   0.0000       0.863406        23.4945 
  77   0.0000       0.885040        24.0832 
  78   0.0000       0.899003        24.4631 
  79   0.0000       0.901722        24.5371 
  80   0.0000       0.909310        24.7436 
  81   0.0000       0.955282        25.9945 
  82   0.0000       0.962214        26.1832 
  83   0.0000       0.965438        26.2709 
  84   0.0000       1.072322        29.1794 
  85   0.0000       1.078351        29.3434 
  86   0.0000       1.124669        30.6038 
  87   0.0000       1.133546        30.8453 
  88   0.0000       1.140793        31.0426 
  89   0.0000       1.163061        31.6485 
  90   0.0000       1.173701        31.9380 
  91   0.0000       1.239209        33.7206 
  92   0.0000       1.243877        33.8476 
  93   0.0000       1.309624        35.6367 
  94   0.0000       1.341543        36.5052 
  95   0.0000       1.356916        36.9236 
  96   0.0000       1.431220        38.9455 
  97   0.0000       1.433241        39.0005 
  98   0.0000       1.498054        40.7641 
  99   0.0000       1.597334        43.4657 
 100   0.0000       1.674848        45.5749 
 101   0.0000       1.687956        45.9316 
 102   0.0000       1.690265        45.9945 
 103   0.0000       1.761915        47.9441 
 104   0.0000       1.762679        47.9649 
 105   0.0000       1.768737        48.1298 
 106   0.0000       1.770259        48.1712 
 107   0.0000       1.820647        49.5423 
 108   0.0000       1.821796        49.5736 
 109   0.0000       1.838594        50.0307 
 110   0.0000       1.854417        50.4612 
 111   0.0000       2.046557        55.6896 
 112   0.0000       2.053266        55.8722 
 113   0.0000       2.089850        56.8677 
 114   0.0000       2.130387        57.9708 
 115   0.0000       2.141957        58.2856 
 116   0.0000       2.244525        61.0766 
 117   0.0000       2.249874        61.2222 
 118   0.0000       2.250550        61.2406 
 119   0.0000       2.519934        68.5709 
 120   0.0000       2.707740        73.6813 
 121   0.0000       2.708473        73.7013 
 122   0.0000       2.978527        81.0499 
 123   0.0000       3.004667        81.7611 
 124   0.0000       3.042171        82.7817 
 125   0.0000       3.051157        83.0262 
 126   0.0000       3.054713        83.1230 
 127   0.0000       3.083273        83.9001 
 128   0.0000       3.096062        84.2481 
 129   0.0000       3.101351        84.3921 
 130   0.0000       3.107515        84.5598 
 131   0.0000       3.116419        84.8021 
 132   0.0000       3.130221        85.1776 
 133   0.0000       3.221720        87.6674 
 134   0.0000       3.226274        87.7914 
 135   0.0000       3.315364        90.2156 
 136   0.0000       3.332901        90.6929 
 137   0.0000       3.513913        95.6184 
 138   0.0000       3.753098       102.1270 
 139   0.0000       3.791142       103.1622 

                    ********************************
                    * MULLIKEN POPULATION ANALYSIS *
                    ********************************

-----------------------
MULLIKEN ATOMIC CHARGES
-----------------------
   0 C :    0.717103
   1 S :    1.114061
   2 O :   -0.752427
   3 O :   -0.816866
   4 O :   -0.768286
   5 H :   -0.173401
   6 H :   -0.159268
   7 H :   -0.160915
Sum of atomic charges:   -1.0000000

--------------------------------
MULLIKEN REDUCED ORBITAL CHARGES
--------------------------------
  0 C s       :     2.432471  s :     2.432471
      pz      :     0.923290  p :     2.780593
      px      :     0.928077
      py      :     0.929225
      dz2     :     0.013668  d :     0.069834
      dxz     :     0.004259
      dyz     :     0.008104
      dx2y2   :     0.020474
      dxy     :     0.023329
  1 S s       :     5.056967  s :     5.056967
      pz      :     2.884692  p :     8.861087
      px      :     2.918376
      py      :     3.058019
      dz2     :     0.210865  d :     0.967885
      dxz     :     0.214116
      dyz     :     0.172913
      dx2y2   :     0.178621
      dxy     :     0.191369
  2 O s       :     3.941352  s :     3.941352
      pz      :     1.697998  p :     4.803030
      px      :     1.368397
      py      :     1.736635
      dz2     :     0.000540  d :     0.008045
      dxz     :    -0.000214
      dyz     :     0.001226
      dx2y2   :     0.003290
      dxy     :     0.003202
  3 O s       :     3.959339  s :     3.959339
      pz      :     1.329390  p :     4.850756
      px      :     1.810239
      py      :     1.711127
      dz2     :     0.006176  d :     0.006771
      dxz     :    -0.001867
      dyz     :     0.000151
      dx2y2   :     0.001430
      dxy     :     0.000881
  4 O s       :     3.946971  s :     3.946971
      pz      :     1.656815  p :     4.813355
      px      :     1.546828
      py      :     1.609712
      dz2     :     0.000096  d :     0.007959
      dxz     :     0.001537
      dyz     :    -0.000169
      dx2y2   :     0.002946
      dxy     :     0.003549
  5 H s       :     1.097059  s :     1.097059
      pz      :     0.062175  p :     0.076342
      px      :    -0.001667
      py      :     0.015835
  6 H s       :     1.077069  s :     1.077069
      pz      :     0.015378  p :     0.082199
      px      :     0.051977
      py      :     0.014843
  7 H s       :     1.079724  s :     1.079724
      pz      :     0.022305  p :     0.081191
      px      :     0.034587
      py      :     0.024299


                     *******************************
                     * LOEWDIN POPULATION ANALYSIS *
                     *******************************

----------------------
LOEWDIN ATOMIC CHARGES
----------------------
   0 C :    0.062310
   1 S :    0.837013
   2 O :   -0.576646
   3 O :   -0.607825
   4 O :   -0.582843
   5 H :   -0.046237
   6 H :   -0.042639
   7 H :   -0.043132

-------------------------------
LOEWDIN REDUCED ORBITAL CHARGES
-------------------------------
  0 C s       :     2.740278  s :     2.740278
      pz      :     0.952745  p :     2.808469
      px      :     0.944630
      py      :     0.911094
      dz2     :     0.042603  d :     0.388943
      dxz     :     0.069029
      dyz     :     0.108147
      dx2y2   :     0.087071
      dxy     :     0.082094
  1 S s       :     4.671580  s :     4.671580
      pz      :     2.823869  p :     8.472529
      px      :     2.829894
      py      :     2.818766
      dz2     :     0.431118  d :     2.018878
      dxz     :     0.439126
      dyz     :     0.367298
      dx2y2   :     0.371124
      dxy     :     0.410212
  2 O s       :     3.554999  s :     3.554999
      pz      :     1.638316  p :     4.768110
      px      :     1.496418
      py      :     1.633376
      dz2     :     0.044807  d :     0.253537
      dxz     :     0.064815
      dyz     :     0.026995
      dx2y2   :     0.053923
      dxy     :     0.062997
  3 O s       :     3.579363  s :     3.579363
      pz      :     1.454434  p :     4.788045
      px      :     1.694850
      py      :     1.638762
      dz2     :     0.074729  d :     0.240416
      dxz     :     0.065206
      dyz     :     0.064883
      dx2y2   :     0.016125
      dxy     :     0.019473
  4 O s       :     3.561158  s :     3.561158
      pz      :     1.622477  p :     4.771790
      px      :     1.558927
      py      :     1.590386
      dz2     :     0.051030  d :     0.249895
      dxz     :     0.052064
      dyz     :     0.042017
      dx2y2   :     0.053667
      dxy     :     0.051116
  5 H s       :     0.750884  s :     0.750884
      pz      :     0.126160  p :     0.295353
      px      :     0.080531
      py      :     0.088662
  6 H s       :     0.747604  s :     0.747604
      pz      :     0.093474  p :     0.295035
      px      :     0.124314
      py      :     0.077247
  7 H s       :     0.748093  s :     0.748093
      pz      :     0.099614  p :     0.295040
      px      :     0.099944
      py      :     0.095481


                      *****************************
                      * MAYER POPULATION ANALYSIS *
                      *****************************

  NA   - Mulliken gross atomic population
  ZA   - Total nuclear charge
  QA   - Mulliken gross atomic charge
  VA   - Mayer's total valence
  BVA  - Mayer's bonded valence
  FA   - Mayer's free valence

  ATOM       NA         ZA         QA         VA         BVA        FA
  0 C      5.2829     6.0000     0.7171     3.7962     3.7962     0.0000
  1 S     14.8859    16.0000     1.1141     5.2721     5.2721     0.0000
  2 O      8.7524     8.0000    -0.7524     1.4715     1.4715    -0.0000
  3 O      8.8169     8.0000    -0.8169     1.3898     1.3898    -0.0000
  4 O      8.7683     8.0000    -0.7683     1.4561     1.4561    -0.0000
  5 H      1.1734     1.0000    -0.1734     1.1408     1.1408    -0.0000
  6 H      1.1593     1.0000    -0.1593     1.1577     1.1577     0.0000
  7 H      1.1609     1.0000    -0.1609     1.1552     1.1552     0.0000

  Mayer bond orders larger than 0.100000
B(  0-C ,  1-S ) :   0.9243 B(  0-C ,  5-H ) :   0.8830 B(  0-C ,  6-H ) :   0.8865 
B(  0-C ,  7-H ) :   0.8859 B(  1-S ,  2-O ) :   1.3449 B(  1-S ,  3-O ) :   1.2934 
B(  1-S ,  4-O ) :   1.3317 B(  1-S ,  5-H ) :   0.1196 B(  1-S ,  6-H ) :   0.1300 
B(  1-S ,  7-H ) :   0.1282 

-------
TIMINGS
-------

Total SCF time: 0 days 0 hours 0 min 9 sec 

Total time                  ....       9.011 sec
Sum of individual times     ....       8.863 sec  ( 98.4%)

Fock matrix formation       ....       8.073 sec  ( 89.6%)
  Split-RI-J                ....       0.597 sec  (  7.4% of F)
  Chain of spheres X        ....       5.733 sec  ( 71.0% of F)
  XC integration            ....       1.716 sec  ( 21.3% of F)
    Basis function eval.    ....       0.575 sec  ( 33.5% of XC)
    Density eval.           ....       0.382 sec  ( 22.2% of XC)
    XC-Functional eval.     ....       0.134 sec  (  7.8% of XC)
    XC-Potential eval.      ....       0.537 sec  ( 31.3% of XC)
Diagonalization             ....       0.029 sec  (  0.3%)
Density matrix formation    ....       0.003 sec  (  0.0%)
Population analysis         ....       0.005 sec  (  0.1%)
Initial guess               ....       0.076 sec  (  0.8%)
Orbital Transformation      ....       0.000 sec  (  0.0%)
Orbital Orthonormalization  ....       0.000 sec  (  0.0%)
DIIS solution               ....       0.018 sec  (  0.2%)
SOSCF solution              ....       0.024 sec  (  0.3%)
Grid generation             ....       0.634 sec  (  7.0%)

Maximum memory used throughout the entire SCF-calculation: 48.9 MB


-------------------------------------------------------------------------------
                          DFT DISPERSION CORRECTION                            
                                                                               
                              DFTD3 V3.1  Rev 1                                
                          USING Becke-Johnson damping                          
-------------------------------------------------------------------------------
The B3LYP functional is recognized
Active option DFTDOPT                   ...         4   

molecular C6(AA) [au] = 976.263713 


            DFT-D V3
 parameters
 s6 scaling factor         :     1.0000 
 a1 scaling factor         :     0.3981 
 s8 scaling factor         :     1.9889 
 a2 scaling factor         :     4.4211 
 ad hoc parameters k1-k3   :    16.0000     1.3333    -4.0000 

 Edisp/kcal,au: -6.966995099161  -0.011102612222 
 E6   /kcal   :  -3.138469296 
 E8   /kcal   :  -3.828525803 
 % E8         :  54.952325190 

-------------------------   ----------------
Dispersion correction           -0.011102612
-------------------------   ----------------


-------------------------   --------------------
FINAL SINGLE POINT ENERGY      -663.323474524152
-------------------------   --------------------


                            ***************************************
                            *     ORCA property calculations      *
                            ***************************************

                                    ---------------------
                                    Active property flags
                                    ---------------------
   (+) Dipole Moment


------------------------------------------------------------------------------
                       ORCA ELECTRIC PROPERTIES CALCULATION
------------------------------------------------------------------------------

Dipole Moment Calculation                       ... on
Quadrupole Moment Calculation                   ... off
Polarizability Calculation                      ... off
GBWName                                         ... 18Feb_SVPD_B3LYP_A_wt_wb97_typm1_neg.gbw
Electron density file                           ... 18Feb_SVPD_B3LYP_A_wt_wb97_typm1_neg.scfp
The origin for moment calculation is the CENTER OF MASS  = (-2.407987,  0.451315 -8.293769)

-------------
DIPOLE MOMENT
-------------
                                X             Y             Z
Electronic contribution:     -1.99542      -3.75204      -0.90635
Nuclear contribution   :      2.60425       5.03732       0.91691
                        -----------------------------------------
Total Dipole Moment    :      0.60883       1.28527       0.01056
                        -----------------------------------------
Magnitude (a.u.)       :      1.42222
Magnitude (Debye)      :      3.61499



--------------------
Rotational spectrum 
--------------------
 
Rotational constants in cm-1:     0.171343     0.157827     0.155747 
Rotational constants in MHz :  5136.740483  4731.521814  4669.189064 

 Dipole components along the rotational axes: 
x,y,z [a.u.] :    -1.402120    -0.036180     0.235494 
x,y,z [Debye]:    -3.563905    -0.091963     0.598578 

 

Timings for individual modules:

Sum of individual times         ...       10.426 sec (=   0.174 min)
GTO integral calculation        ...        0.835 sec (=   0.014 min)   8.0 %
SCF iterations                  ...        9.591 sec (=   0.160 min)  92.0 %
                             ****ORCA TERMINATED NORMALLY****
TOTAL RUN TIME: 0 days 0 hours 0 minutes 10 seconds 927 msec
