
                                        *****************
                                        * O   R   C   A *
                                        *****************

                                            #,                                       
                                            ###                                      
                                            ####                                     
                                            #####                                    
                                            ######                                   
                                           ########,                                 
                                     ,,################,,,,,                         
                               ,,#################################,,                 
                          ,,##########################################,,             
                       ,#########################################, ''#####,          
                    ,#############################################,,   '####,        
                  ,##################################################,,,,####,       
                ,###########''''           ''''###############################       
              ,#####''   ,,,,##########,,,,          '''####'''          '####       
            ,##' ,,,,###########################,,,                        '##       
           ' ,,###''''                  '''############,,,                           
         ,,##''                                '''############,,,,        ,,,,,,###''
      ,#''                                            '''#######################'''  
     '                                                          ''''####''''         
             ,#######,   #######,   ,#######,      ##                                
            ,#'     '#,  ##    ##  ,#'     '#,    #''#        ######   ,####,        
            ##       ##  ##   ,#'  ##            #'  '#       #        #'  '#        
            ##       ##  #######   ##           ,######,      #####,   #    #        
            '#,     ,#'  ##    ##  '#,     ,#' ,#      #,         ##   #,  ,#        
             '#######'   ##     ##  '#######'  #'      '#     #####' # '####'        



                  #######################################################
                  #                        -***-                        #
                  #          Department of theory and spectroscopy      #
                  #    Directorship and core code : Frank Neese         #
                  #        Max Planck Institute fuer Kohlenforschung    #
                  #                Kaiser Wilhelm Platz 1               #
                  #                 D-45470 Muelheim/Ruhr               #
                  #                      Germany                        #
                  #                                                     #
                  #                  All rights reserved                #
                  #                        -***-                        #
                  #######################################################


                         Program Version 5.0.0 -  RELEASE  -
                                (SVN: $Rev: 19529$)
                ($Date: 2021-06-28 11:36:33 +0200 (Mo, 28 Jun 2021) $)


 With contributions from (in alphabetic order):
   Daniel Aravena         : Magnetic Suceptibility
   Michael Atanasov       : Ab Initio Ligand Field Theory (pilot matlab implementation)
   Alexander A. Auer      : GIAO ZORA, VPT2 properties, NMR spectrum
   Ute Becker             : Parallelization
   Giovanni Bistoni       : ED, misc. LED, open-shell LED, HFLD
   Martin Brehm           : Molecular dynamics
   Dmytro Bykov           : SCF Hessian
   Vijay G. Chilkuri      : MRCI spin determinant printing, contributions to CSF-ICE
   Dipayan Datta          : RHF DLPNO-CCSD density
   Achintya Kumar Dutta   : EOM-CC, STEOM-CC
   Dmitry Ganyushin       : Spin-Orbit,Spin-Spin,Magnetic field MRCI
   Miquel Garcia          : C-PCM Hessian, Gaussian charge scheme
   Yang Guo               : DLPNO-NEVPT2, F12-NEVPT2, CIM, IAO-localization
   Andreas Hansen         : Spin unrestricted coupled pair/coupled cluster methods
   Benjamin Helmich-Paris : MC-RPA, TRAH-SCF, COSX integrals
   Lee Huntington         : MR-EOM, pCC
   Robert Izsak           : Overlap fitted RIJCOSX, COSX-SCS-MP3, EOM
   Marcus Kettner         : VPT2
   Christian Kollmar      : KDIIS, OOCD, Brueckner-CCSD(T), CCSD density, CASPT2, CASPT2-K
   Simone Kossmann        : Meta GGA functionals, TD-DFT gradient, OOMP2, MP2 Hessian
   Martin Krupicka        : Initial AUTO-CI
   Lucas Lang             : DCDCAS
   Marvin Lechner         : AUTO-CI (C++ implementation), FIC-MRCC
   Dagmar Lenk            : GEPOL surface, SMD
   Dimitrios Liakos       : Extrapolation schemes; Compound Job, initial MDCI parallelization
   Dimitrios Manganas     : Further ROCIS development; embedding schemes
   Dimitrios Pantazis     : SARC Basis sets
   Anastasios Papadopoulos: AUTO-CI, single reference methods and gradients
   Taras Petrenko         : DFT Hessian,TD-DFT gradient, ASA, ECA, R-Raman, ABS, FL, XAS/XES, NRVS
   Peter Pinski           : DLPNO-MP2, DLPNO-MP2 Gradient
   Christoph Reimann      : Effective Core Potentials
   Marius Retegan         : Local ZFS, SOC
   Christoph Riplinger    : Optimizer, TS searches, QM/MM, DLPNO-CCSD(T), (RO)-DLPNO pert. Triples
   Tobias Risthaus        : Range-separated hybrids, TD-DFT gradient, RPA, STAB
   Michael Roemelt        : Original ROCIS implementation
   Masaaki Saitow         : Open-shell DLPNO-CCSD energy and density
   Barbara Sandhoefer     : DKH picture change effects
   Avijit Sen             : IP-ROCIS
   Kantharuban Sivalingam : CASSCF convergence, NEVPT2, FIC-MRCI
   Bernardo de Souza      : ESD, SOC TD-DFT
   Georgi Stoychev        : AutoAux, RI-MP2 NMR
   Willem Van den Heuvel  : Paramagnetic NMR
   Boris Wezisla          : Elementary symmetry handling
   Frank Wennmohs         : Technical directorship


 We gratefully acknowledge several colleagues who have allowed us to
 interface, adapt or use parts of their codes:
   Stefan Grimme, W. Hujo, H. Kruse, P. Pracht,  : VdW corrections, initial TS optimization,
                  C. Bannwarth, S. Ehlert          DFT functionals, gCP, sTDA/sTD-DF
   Ed Valeev, F. Pavosevic, A. Kumar             : LibInt (2-el integral package), F12 methods
   Garnet Chan, S. Sharma, J. Yang, R. Olivares  : DMRG
   Ulf Ekstrom                                   : XCFun DFT Library
   Mihaly Kallay                                 : mrcc  (arbitrary order and MRCC methods)
   Jiri Pittner, Ondrej Demel                    : Mk-CCSD
   Frank Weinhold                                : gennbo (NPA and NBO analysis)
   Christopher J. Cramer and Donald G. Truhlar   : smd solvation model
   Lars Goerigk                                  : TD-DFT with DH, B97 family of functionals
   V. Asgeirsson, H. Jonsson                     : NEB implementation
   FAccTs GmbH                                   : IRC, NEB, NEB-TS, DLPNO-Multilevel, CI-OPT
                                                   MM, QMMM, 2- and 3-layer-ONIOM, Crystal-QMMM,
                                                   LR-CPCM, SF, NACMEs, symmetry and pop. for TD-DFT,
                                                   nearIR, NL-DFT gradient (VV10), updates on ESD,
                                                   ML-optimized integration grids
   S Lehtola, MJT Oliveira, MAL Marques          : LibXC Library
   Liviu Ungur et al                             : ANISO software


 Your calculation uses the libint2 library for the computation of 2-el integrals
 For citations please refer to: http://libint.valeyev.net

 Your ORCA version has been built with support for libXC version: 5.1.0
 For citations please refer to: https://tddft.org/programs/libxc/

 This ORCA versions uses:
   CBLAS   interface :  Fast vector & matrix operations
   LAPACKE interface :  Fast linear algebra routines
   SCALAPACK package :  Parallel linear algebra routines
   Shared memory     :  Shared parallel matrices
   BLAS/LAPACK       :  OpenBLAS 0.3.15  USE64BITINT DYNAMIC_ARCH NO_AFFINITY Haswell SINGLE_THREADED
        Core in use  :  Haswell
   Copyright (c) 2011-2014, The OpenBLAS Project


XCFun DFT library Copyright 2009-2010 Ulf Ekstrom and contributors.
See http://admol.org/xcfun for more information.
This is free software; see the source code for copying conditions.
There is ABSOLUTELY NO WARRANTY; not even for MERCHANTABILITY or FITNESS FOR A PARTICULAR PURPOSE.
For details see the documentation.
Scientific users of this library should cite U. Ekstrom, L. Visscher, R. Bast, A. J. Thorvaldsen and K. Ruud;
J.Chem.Theor.Comp. 2010, DOI: 10.1021/ct100117s
XCFun Version 0.99 

================================================================================

----- Orbital basis set information -----
Your calculation utilizes the basis: def2-SVPD
   F. Weigend and R. Ahlrichs, Phys. Chem. Chem. Phys. 7, 3297 (2005).
   D. Rappoport and F. Furche, J. Chem. Phys. 133 134105 (2010).

----- AuxJ basis set information -----
Your calculation utilizes the auxiliary basis: def2/J
   F. Weigend, Phys. Chem. Chem. Phys. 8, 1057 (2006).

================================================================================
                                        WARNINGS
                       Please study these warnings very carefully!
================================================================================


INFO   : the flag for use of the SHARK integral package has been found!

================================================================================
                                       INPUT FILE
================================================================================
NAME = 18Feb_SVPD_CAMB3LYP_C3_wt_wb97_typm1_pos.com
|  1> !CAM-B3LYP RIJCOSX def2-SVPD def2/J TightSCF 
|  2> *xyz 0 1 
|  3> C          1.63556       -1.67040       -5.29211
|  4> N          2.48451       -0.50741       -5.14039
|  5> C          3.45115       -0.14953       -5.95259
|  6> N          3.92267        1.08956       -5.85071
|  7> C          3.96616       -1.00618       -6.86788
|  8> H          3.52139       -1.90647       -6.99527
|  9> H          4.44482       -0.62347       -7.67035
| 10> H          2.25200        0.24080       -4.49879
| 11> H          3.46428        1.64078       -5.13639
| 12> H          4.83447        1.31375       -6.22465
| 13> H          2.06372       -2.33262       -6.01532
| 14> H          0.66479       -1.36293       -5.62068
| 15> H          1.55078       -2.17513       -4.35245
| 16> *
| 17> 
| 18> %MaxCore 64000
| 19> 
| 20> %pal nprocs 4
| 21> end  
| 22> 
| 23> %scf
| 24>   MaxIter 150
| 25> end
| 26> 
| 27> 
| 28>                          ****END OF INPUT****
================================================================================

                       ****************************
                       * Single Point Calculation *
                       ****************************

---------------------------------
CARTESIAN COORDINATES (ANGSTROEM)
---------------------------------
  C      1.635560   -1.670400   -5.292110
  N      2.484510   -0.507410   -5.140390
  C      3.451150   -0.149530   -5.952590
  N      3.922670    1.089560   -5.850710
  C      3.966160   -1.006180   -6.867880
  H      3.521390   -1.906470   -6.995270
  H      4.444820   -0.623470   -7.670350
  H      2.252000    0.240800   -4.498790
  H      3.464280    1.640780   -5.136390
  H      4.834470    1.313750   -6.224650
  H      2.063720   -2.332620   -6.015320
  H      0.664790   -1.362930   -5.620680
  H      1.550780   -2.175130   -4.352450

----------------------------
CARTESIAN COORDINATES (A.U.)
----------------------------
  NO LB      ZA    FRAG     MASS         X           Y           Z
   0 C     6.0000    0    12.011    3.090760   -3.156599  -10.000639
   1 N     7.0000    0    14.007    4.695043   -0.958866   -9.713929
   2 C     6.0000    0    12.011    6.521728   -0.282571  -11.248765
   3 N     7.0000    0    14.007    7.412772    2.058970  -11.056240
   4 C     6.0000    0    12.011    7.494956   -1.901405  -12.978412
   5 H     1.0000    0     1.008    6.654463   -3.602706  -13.219145
   6 H     1.0000    0     1.008    8.399493   -1.178188  -14.494861
   7 H     1.0000    0     1.008    4.255663    0.455046   -8.501481
   8 H     1.0000    0     1.008    6.546540    3.100625   -9.706370
   9 H     1.0000    0     1.008    9.135824    2.482628  -11.762884
  10 H     1.0000    0     1.008    3.899866   -4.408013  -11.367307
  11 H     1.0000    0     1.008    1.256271   -2.575564  -10.621546
  12 H     1.0000    0     1.008    2.930549   -4.110400   -8.224939

--------------------------------
INTERNAL COORDINATES (ANGSTROEM)
--------------------------------
 C      0   0   0     0.000000000000     0.00000000     0.00000000
 N      1   0   0     1.447853860374     0.00000000     0.00000000
 C      2   1   0     1.312303251539   125.88108164     0.00000000
 N      3   2   1     1.329682169881   117.89912014   164.56341170
 C      3   2   1     1.355300817789   121.70242568   344.31618449
 H      5   3   2     1.012210773061   118.69888469     7.01850578
 H      5   3   2     1.009722952398   118.50845680   158.08561097
 H      2   1   3     1.012684385285   121.68431269   165.52800226
 H      4   3   2     1.012036532394   113.64189798   359.66429587
 H      4   3   2     1.010678742084   119.88613512   160.18204289
 H      1   2   3     1.069994868259   109.47104385    14.47209576
 H      1   2   3     1.069995532093   109.47130861   254.47197803
 H      1   2   3     1.070000437804   109.47134958   134.47186842

---------------------------
INTERNAL COORDINATES (A.U.)
---------------------------
 C      0   0   0     0.000000000000     0.00000000     0.00000000
 N      1   0   0     2.736047278048     0.00000000     0.00000000
 C      2   1   0     2.479893750063   125.88108164     0.00000000
 N      3   2   1     2.512735146234   117.89912014   164.56341170
 C      3   2   1     2.561147374701   121.70242568   344.31618449
 H      5   3   2     1.912801150889   118.69888469     7.01850578
 H      5   3   2     1.908099851167   118.50845680   158.08561097
 H      2   1   3     1.913696148287   121.68431269   165.52800226
 H      4   3   2     1.912471883748   113.64189798   359.66429587
 H      4   3   2     1.909906031914   119.88613512   160.18204289
 H      1   2   3     2.021997265710   109.47104385    14.47209576
 H      1   2   3     2.021998520176   109.47130861   254.47197803
 H      1   2   3     2.022007790625   109.47134958   134.47186842

---------------------
BASIS SET INFORMATION
---------------------
There are 3 groups of distinct atoms

 Group   1 Type C   : 8s4p2d contracted to 4s2p2d pattern {5111/31/11}
 Group   2 Type N   : 8s4p2d contracted to 4s2p2d pattern {5111/31/11}
 Group   3 Type H   : 4s2p contracted to 2s2p pattern {31/11}

Atom   0C    basis set group =>   1
Atom   1N    basis set group =>   2
Atom   2C    basis set group =>   1
Atom   3N    basis set group =>   2
Atom   4C    basis set group =>   1
Atom   5H    basis set group =>   3
Atom   6H    basis set group =>   3
Atom   7H    basis set group =>   3
Atom   8H    basis set group =>   3
Atom   9H    basis set group =>   3
Atom  10H    basis set group =>   3
Atom  11H    basis set group =>   3
Atom  12H    basis set group =>   3
---------------------------------
AUXILIARY/J BASIS SET INFORMATION
---------------------------------
There are 3 groups of distinct atoms

 Group   1 Type C   : 12s5p4d2f1g contracted to 6s4p3d1f1g pattern {711111/2111/211/2/1}
 Group   2 Type N   : 12s5p4d2f1g contracted to 6s4p3d1f1g pattern {711111/2111/211/2/1}
 Group   3 Type H   : 5s2p1d contracted to 3s1p1d pattern {311/2/1}

Atom   0C    basis set group =>   1
Atom   1N    basis set group =>   2
Atom   2C    basis set group =>   1
Atom   3N    basis set group =>   2
Atom   4C    basis set group =>   1
Atom   5H    basis set group =>   3
Atom   6H    basis set group =>   3
Atom   7H    basis set group =>   3
Atom   8H    basis set group =>   3
Atom   9H    basis set group =>   3
Atom  10H    basis set group =>   3
Atom  11H    basis set group =>   3
Atom  12H    basis set group =>   3


           ************************************************************
           *        Program running with 4 parallel MPI-processes     *
           *              working on a common directory               *
           ************************************************************
------------------------------------------------------------------------------
                           ORCA GTO INTEGRAL CALCULATION
                           -- RI-GTO INTEGRALS CHOSEN --
------------------------------------------------------------------------------
------------------------------------------------------------------------------
                   ___                                                        
                  /   \      - P O W E R E D   B Y -                         
                 /     \                                                     
                 |  |  |   _    _      __       _____    __    __             
                 |  |  |  | |  | |    /  \     |  _  \  |  |  /  |          
                  \  \/   | |  | |   /    \    | | | |  |  | /  /          
                 / \  \   | |__| |  /  /\  \   | |_| |  |  |/  /          
                |  |  |   |  __  | /  /__\  \  |    /   |      \           
                |  |  |   | |  | | |   __   |  |    \   |  |\   \          
                \     /   | |  | | |  |  |  |  | |\  \  |  | \   \       
                 \___/    |_|  |_| |__|  |__|  |_| \__\ |__|  \__/        
                                                                              
                      - O R C A' S   B I G   F R I E N D -                    
                                      &                                       
                       - I N T E G R A L  F E E D E R -                       
                                                                              
 v1 FN, 2020, v2 2021                                                         
------------------------------------------------------------------------------


Reading SHARK input file 18Feb_SVPD_CAMB3LYP_C3_wt_wb97_typm1_pos.SHARKINP.tmp ... ok
----------------------
SHARK INTEGRAL PACKAGE
----------------------

Number of atoms                             ...     13
Number of basis functions                   ...    164
Number of shells                            ...     72
Maximum angular momentum                    ...      2
Integral batch strategy                     ... SHARK/LIBINT Hybrid
RI-J (if used) integral strategy            ... SPLIT-RIJ (Revised 2003 algorithm where possible)
Printlevel                                  ...      1
Contraction scheme used                     ... SEGMENTED contraction
Coulomb Range Separation                    ... NOT USED
Exchange Range Separation                   ... Long Range
   Mu parameter                             ...  0.330000
   Scaling (regular/separated)              ...  0.190000  0.460000
Finite Nucleus Model                        ... NOT USED
Auxiliary Coulomb fitting basis             ... AVAILABLE
   # of basis functions in Aux-J            ...    333
   # of shells in Aux-J                     ...    115
   Maximum angular momentum in Aux-J        ...      4
Auxiliary J/K fitting basis                 ... NOT available
Auxiliary Correlation fitting basis         ... NOT available
Auxiliary 'external' fitting basis          ... NOT available
Integral threshold                          ...     2.500000e-11
Primitive cut-off                           ...     2.500000e-12
Primitive pair pre-selection threshold      ...     2.500000e-12

Calculating pre-screening integrals         ... done (  0.0 sec) Dimension = 72
Organizing shell pair data                  ... done (  0.0 sec)
Shell pair information
Total number of shell pairs                 ...      2628
Shell pairs after pre-screening             ...      2606
Total number of primitive shell pairs       ...      7110
Primitive shell pairs kept                  ...      6015
          la=0 lb=0:    658 shell pairs
          la=1 lb=0:    927 shell pairs
          la=1 lb=1:    348 shell pairs
          la=2 lb=0:    358 shell pairs
          la=2 lb=1:    260 shell pairs
          la=2 lb=2:     55 shell pairs

Calculating one electron integrals          ... done (  0.0 sec)
Calculating RI/J V-Matrix + Cholesky decomp.... done (  0.0 sec)
Calculating Nuclear repulsion               ... done (  0.0 sec) ENN=    185.605364415656 Eh

SHARK setup successfully completed in   0.2 seconds

Maximum memory used throughout the entire GTOINT-calculation: 8.9 MB


           ************************************************************
           *        Program running with 4 parallel MPI-processes     *
           *              working on a common directory               *
           ************************************************************
-------------------------------------------------------------------------------
                                 ORCA SCF
-------------------------------------------------------------------------------

------------
SCF SETTINGS
------------
Hamiltonian:
 Density Functional     Method          .... DFT(GTOs)
 Exchange Functional    Exchange        .... WB88
 Correlation Functional Correlation     .... LYP
 LDA part of GGA corr.  LDAOpt          .... VWN-5
 Gradients option       PostSCFGGA      .... off
 Hybrid DFT is turned on
   Fraction HF Exchange ScalHFX         ....  0.190000
   Scaling of DF-GGA-X  ScalDFX         ....  0.350000
   Scaling of DF-GGA-C  ScalDFC         ....  0.810000
   Scaling of DF-LDA-C  ScalLDAC        ....  1.000000
   Perturbative correction              ....  0.000000
   Density functional embedding theory  .... OFF
 Long-range corrected/Screened/Range-Separated Hybrid DFT is turned on
   Amount of maximum screened exact exchange              ....  0.460000
   Range separation parameter mu (erf(mu*r12)/r12)        ....  0.330000
 RI-approximation to the Coulomb term is turned on
   Number of AuxJ basis functions       .... 333
   RIJ-COSX (HFX calculated with COS-X)).... on


General Settings:
 Integral files         IntName         .... 18Feb_SVPD_CAMB3LYP_C3_wt_wb97_typm1_pos
 Hartree-Fock type      HFTyp           .... RHF
 Total Charge           Charge          ....    0
 Multiplicity           Mult            ....    1
 Number of Electrons    NEL             ....   40
 Basis Dimension        Dim             ....  164
 Nuclear Repulsion      ENuc            ....    185.6053644157 Eh

Convergence Acceleration:
 DIIS                   CNVDIIS         .... on
   Start iteration      DIISMaxIt       ....    12
   Startup error        DIISStart       ....  0.200000
   # of expansion vecs  DIISMaxEq       ....     5
   Bias factor          DIISBfac        ....   1.050
   Max. coefficient     DIISMaxC        ....  10.000
 Trust-Rad. Augm. Hess. CNVTRAH         .... auto
   Auto Start mean grad. ratio tolernc. ....  1.125000
   Auto Start start iteration           ....    20
   Auto Start num. interpolation iter.  ....    10
   Max. Number of Micro iterations      ....    16
   Max. Number of Macro iterations      .... Maxiter - #DIIS iter
   Number of Davidson start vectors     ....     2
   Converg. threshold I  (grad. norm)   ....   1.000e-05
   Converg. threshold II (energy diff.) ....   1.000e-08
   Grad. Scal. Fac. for Micro threshold ....   0.100
   Minimum threshold for Micro iter.    ....   0.010
   NR start threshold (gradient norm)   ....   0.001
   Initial trust radius                 ....   0.400
   Minimum AH scaling param. (alpha)    ....   1.000
   Maximum AH scaling param. (alpha)    .... 1000.000
   Orbital update algorithm             .... Taylor
   White noise on init. David. guess    .... on
   Maximum white noise                  ....   0.010
   Quad. conv. algorithm                .... NR
 SOSCF                  CNVSOSCF        .... on
   Start iteration      SOSCFMaxIt      ....   150
   Startup grad/error   SOSCFStart      ....  0.003300
 Level Shifting         CNVShift        .... on
   Level shift para.    LevelShift      ....    0.2500
   Turn off err/grad.   ShiftErr        ....    0.0010
 Zerner damping         CNVZerner       .... off
 Static damping         CNVDamp         .... on
   Fraction old density DampFac         ....    0.7000
   Max. Damping (<1)    DampMax         ....    0.9800
   Min. Damping (>=0)   DampMin         ....    0.0000
   Turn off err/grad.   DampErr         ....    0.1000
 Fernandez-Rico         CNVRico         .... off

SCF Procedure:
 Maximum # iterations   MaxIter         ....   150
 SCF integral mode      SCFMode         .... Direct
   Integral package                     .... SHARK and LIBINT hybrid scheme
 Reset frequency        DirectResetFreq ....    20
 Integral Threshold     Thresh          ....  2.500e-11 Eh
 Primitive CutOff       TCut            ....  2.500e-12 Eh

Convergence Tolerance:
 Convergence Check Mode ConvCheckMode   .... Total+1el-Energy
 Convergence forced     ConvForced      .... 0
 Energy Change          TolE            ....  1.000e-08 Eh
 1-El. energy change                    ....  1.000e-05 Eh
 Orbital Gradient       TolG            ....  1.000e-05
 Orbital Rotation angle TolX            ....  1.000e-05
 DIIS Error             TolErr          ....  5.000e-07


Diagonalization of the overlap matrix:
Smallest eigenvalue                        ... 7.045e-05
Time for diagonalization                   ...    0.008 sec
Threshold for overlap eigenvalues          ... 1.000e-08
Number of eigenvalues below threshold      ... 0
Time for construction of square roots      ...    0.006 sec
Total time needed                          ...    0.015 sec

Time for model grid setup =    0.077 sec

------------------------------
INITIAL GUESS: MODEL POTENTIAL
------------------------------
Loading Hartree-Fock densities                     ... done
Calculating cut-offs                               ... done
Initializing the effective Hamiltonian             ... done
Setting up the integral package (SHARK)            ... done
Starting the Coulomb interaction                   ... done (   0.0 sec)
Reading the grid                                   ... done
Mapping shells                                     ... done
Starting the XC term evaluation                    ... done (   0.1 sec)
  promolecular density results
     # of electrons  =     39.994695502
     EX              =    -30.876690071
     EC              =     -1.316009237
     EX+EC           =    -32.192699308
Transforming the Hamiltonian                       ... done (   0.0 sec)
Diagonalizing the Hamiltonian                      ... done (   0.0 sec)
Back transforming the eigenvectors                 ... done (   0.0 sec)
Now organizing SCF variables                       ... done
                      ------------------
                      INITIAL GUESS DONE (   0.2 sec)
                      ------------------
-------------------
DFT GRID GENERATION
-------------------

General Integration Accuracy     IntAcc      ... 4.388
Radial Grid Type                 RadialGrid  ... OptM3 with GC (2021)
Angular Grid (max. ang.)         AngularGrid ... 4 (Lebedev-302)
Angular grid pruning method      GridPruning ... 4 (adaptive)
Weight generation scheme         WeightScheme... Becke
Basis function cutoff            BFCut       ... 1.0000e-11
Integration weight cutoff        WCut        ... 1.0000e-14
Angular grids for H and He will be reduced by one unit
Partially contracted basis set               ... off
Rotationally invariant grid construction     ... off

Total number of grid points                  ...    57697
Total number of batches                      ...      907
Average number of points per batch           ...       63
Average number of grid points per atom       ...     4438
Time for grid setup =    0.374 sec

--------------------
COSX GRID GENERATION
--------------------

GRIDX 1
-------
General Integration Accuracy     IntAcc      ... 3.816
Radial Grid Type                 RadialGrid  ... OptM3 with GC (2021)
Angular Grid (max. ang.)         AngularGrid ... 1 (Lebedev-50)
Angular grid pruning method      GridPruning ... 4 (adaptive)
Weight generation scheme         WeightScheme... Becke
Basis function cutoff            BFCut       ... 1.0000e-11
Integration weight cutoff        WCut        ... 1.0000e-14
Angular grids for H and He will be reduced by one unit
Partially contracted basis set               ... on
Rotationally invariant grid construction     ... off

Total number of grid points                  ...     7213
Total number of batches                      ...      120
Average number of points per batch           ...       60
Average number of grid points per atom       ...      555
UseSFitting                                  ... on

GRIDX 2
-------
General Integration Accuracy     IntAcc      ... 4.020
Radial Grid Type                 RadialGrid  ... OptM3 with GC (2021)
Angular Grid (max. ang.)         AngularGrid ... 2 (Lebedev-110)
Angular grid pruning method      GridPruning ... 4 (adaptive)
Weight generation scheme         WeightScheme... Becke
Basis function cutoff            BFCut       ... 1.0000e-11
Integration weight cutoff        WCut        ... 1.0000e-14
Angular grids for H and He will be reduced by one unit
Partially contracted basis set               ... on
Rotationally invariant grid construction     ... off

Total number of grid points                  ...    15953
Total number of batches                      ...      255
Average number of points per batch           ...       62
Average number of grid points per atom       ...     1227
UseSFitting                                  ... on

GRIDX 3
-------
General Integration Accuracy     IntAcc      ... 4.338
Radial Grid Type                 RadialGrid  ... OptM3 with GC (2021)
Angular Grid (max. ang.)         AngularGrid ... 3 (Lebedev-194)
Angular grid pruning method      GridPruning ... 4 (adaptive)
Weight generation scheme         WeightScheme... Becke
Basis function cutoff            BFCut       ... 1.0000e-11
Integration weight cutoff        WCut        ... 1.0000e-14
Angular grids for H and He will be reduced by one unit
Partially contracted basis set               ... on
Rotationally invariant grid construction     ... off

Total number of grid points                  ...    36628
Total number of batches                      ...      580
Average number of points per batch           ...       63
Average number of grid points per atom       ...     2818
UseSFitting                                  ... on

Time for X-Grid setup             =    0.305 sec

--------------
SCF ITERATIONS
--------------
ITER       Energy         Delta-E        Max-DP      RMS-DP      [F,P]     Damp
               ***  Starting incremental Fock matrix formation  ***
  0   -228.0867455459   0.000000000000 0.10201886  0.00301204  0.2232947 0.7000
  1   -228.1848791179  -0.098133572008 0.07427366  0.00226646  0.1259708 0.7000
                               ***Turning on DIIS***
  2   -228.2314571005  -0.046577982570 0.16940803  0.00471213  0.0563993 0.0000
  3   -228.2991984945  -0.067741394044 0.05459671  0.00153493  0.0610538 0.0000
  4   -228.3145260308  -0.015327536255 0.01067212  0.00035747  0.0106331 0.0000
                      *** Initiating the SOSCF procedure ***
                           *** Shutting down DIIS ***
                      *** Re-Reading the Fockian *** 
                      *** Removing any level shift *** 
ITER      Energy       Delta-E        Grad      Rot      Max-DP    RMS-DP
  5   -228.31501251  -0.0004864792  0.000827  0.000827  0.003653  0.000138
               *** Restarting incremental Fock matrix formation ***
  6   -228.31497334   0.0000391733  0.000362  0.000794  0.004743  0.000148
  7   -228.31497930  -0.0000059587  0.000356  0.000916  0.001676  0.000052
  8   -228.31498220  -0.0000029015  0.000043  0.000092  0.000578  0.000014
  9   -228.31498225  -0.0000000554  0.000048  0.000065  0.000169  0.000005
 10   -228.31498233  -0.0000000801  0.000006  0.000021  0.000044  0.000002
                  ***Gradient check signals convergence***
              ***Rediagonalizing the Fockian in SOSCF/NRSCF***

               *****************************************************
               *                     SUCCESS                       *
               *           SCF CONVERGED AFTER  11 CYCLES          *
               *****************************************************

Old exchange energy                            =     -9.145125209 Eh
New exchange energy                            =     -9.145126582 Eh
Exchange energy change after final integration =     -0.000001373 Eh
Total energy after final integration           =   -228.314983706 Eh
Final COS-X integration done in                =     3.441 sec

----------------
TOTAL SCF ENERGY
----------------

Total Energy       :         -228.31498371 Eh           -6212.76656 eV

Components:
Nuclear Repulsion  :          185.60536442 Eh            5050.57873 eV
Electronic Energy  :         -413.92034812 Eh          -11263.34529 eV
One Electron Energy:         -674.66231543 Eh          -18358.49493 eV
Two Electron Energy:          260.74196730 Eh            7095.14964 eV
Max COSX asymmetry :            0.00000398 Eh               0.00011 eV

Virial components:
Potential Energy   :         -454.66003832 Eh          -12371.92862 eV
Kinetic Energy     :          226.34505461 Eh            6159.16206 eV
Virial Ratio       :            2.00870321


DFT components:
N(Alpha)           :       19.999969444119 electrons
N(Beta)            :       19.999969444119 electrons
N(Total)           :       39.999938888238 electrons
E(XC)              :      -23.940591047591 Eh       
DFET-embed. en.    :        0.000000000000 Eh       

---------------
SCF CONVERGENCE
---------------

  Last Energy change         ...   -9.3144e-10  Tolerance :   1.0000e-08
  Last MAX-Density change    ...    2.6645e-15  Tolerance :   1.0000e-07
  Last RMS-Density change    ...    4.1565e-17  Tolerance :   5.0000e-09
  Last Orbital Gradient      ...    1.9453e-06  Tolerance :   1.0000e-05
  Last Orbital Rotation      ...    7.8535e-06  Tolerance :   1.0000e-05

             **** THE GBW FILE WAS UPDATED (18Feb_SVPD_CAMB3LYP_C3_wt_wb97_typm1_pos.gbw) ****
             **** DENSITY 18Feb_SVPD_CAMB3LYP_C3_wt_wb97_typm1_pos.scfp WAS UPDATED ****
             **** ENERGY FILE WAS UPDATED (18Feb_SVPD_CAMB3LYP_C3_wt_wb97_typm1_pos.en.tmp) ****
             **** THE GBW FILE WAS UPDATED (18Feb_SVPD_CAMB3LYP_C3_wt_wb97_typm1_pos.gbw) ****
             **** DENSITY 18Feb_SVPD_CAMB3LYP_C3_wt_wb97_typm1_pos.scfp WAS UPDATED ****
----------------
ORBITAL ENERGIES
----------------

  NO   OCC          E(Eh)            E(eV) 
   0   2.0000     -14.412154      -392.1746 
   1   2.0000     -14.408231      -392.0679 
   2   2.0000     -10.308311      -280.5034 
   3   2.0000     -10.286048      -279.8976 
   4   2.0000     -10.168669      -276.7036 
   5   2.0000      -1.055475       -28.7209 
   6   2.0000      -0.961029       -26.1509 
   7   2.0000      -0.794792       -21.6274 
   8   2.0000      -0.776556       -21.1312 
   9   2.0000      -0.638832       -17.3835 
  10   2.0000      -0.618009       -16.8169 
  11   2.0000      -0.601832       -16.3767 
  12   2.0000      -0.530432       -14.4338 
  13   2.0000      -0.522290       -14.2122 
  14   2.0000      -0.486590       -13.2408 
  15   2.0000      -0.453673       -12.3451 
  16   2.0000      -0.441118       -12.0034 
  17   2.0000      -0.428633       -11.6637 
  18   2.0000      -0.319767        -8.7013 
  19   2.0000      -0.222413        -6.0522 
  20   0.0000       0.043839         1.1929 
  21   0.0000       0.068353         1.8600 
  22   0.0000       0.084486         2.2990 
  23   0.0000       0.112522         3.0619 
  24   0.0000       0.118955         3.2369 
  25   0.0000       0.127342         3.4652 
  26   0.0000       0.134371         3.6564 
  27   0.0000       0.141341         3.8461 
  28   0.0000       0.166704         4.5362 
  29   0.0000       0.182058         4.9540 
  30   0.0000       0.185044         5.0353 
  31   0.0000       0.191877         5.2212 
  32   0.0000       0.206296         5.6136 
  33   0.0000       0.217679         5.9233 
  34   0.0000       0.222705         6.0601 
  35   0.0000       0.248409         6.7596 
  36   0.0000       0.261593         7.1183 
  37   0.0000       0.271403         7.3853 
  38   0.0000       0.287972         7.8361 
  39   0.0000       0.298276         8.1165 
  40   0.0000       0.306428         8.3383 
  41   0.0000       0.313442         8.5292 
  42   0.0000       0.330544         8.9946 
  43   0.0000       0.339123         9.2280 
  44   0.0000       0.346506         9.4289 
  45   0.0000       0.353399         9.6165 
  46   0.0000       0.362918         9.8755 
  47   0.0000       0.381674        10.3859 
  48   0.0000       0.389246        10.5919 
  49   0.0000       0.391627        10.6567 
  50   0.0000       0.399920        10.8824 
  51   0.0000       0.408668        11.1204 
  52   0.0000       0.412241        11.2176 
  53   0.0000       0.418296        11.3824 
  54   0.0000       0.438653        11.9363 
  55   0.0000       0.450429        12.2568 
  56   0.0000       0.458937        12.4883 
  57   0.0000       0.471161        12.8209 
  58   0.0000       0.483035        13.1441 
  59   0.0000       0.493300        13.4234 
  60   0.0000       0.496367        13.5068 
  61   0.0000       0.507128        13.7997 
  62   0.0000       0.517272        14.0757 
  63   0.0000       0.523743        14.2518 
  64   0.0000       0.525949        14.3118 
  65   0.0000       0.539818        14.6892 
  66   0.0000       0.548799        14.9336 
  67   0.0000       0.552841        15.0436 
  68   0.0000       0.564302        15.3554 
  69   0.0000       0.590131        16.0583 
  70   0.0000       0.605036        16.4639 
  71   0.0000       0.617299        16.7976 
  72   0.0000       0.629450        17.1282 
  73   0.0000       0.632001        17.1976 
  74   0.0000       0.653063        17.7707 
  75   0.0000       0.667736        18.1700 
  76   0.0000       0.684621        18.6295 
  77   0.0000       0.696188        18.9442 
  78   0.0000       0.713397        19.4125 
  79   0.0000       0.729992        19.8641 
  80   0.0000       0.737536        20.0694 
  81   0.0000       0.742670        20.2091 
  82   0.0000       0.779736        21.2177 
  83   0.0000       0.807640        21.9770 
  84   0.0000       0.813716        22.1423 
  85   0.0000       0.827008        22.5040 
  86   0.0000       0.839850        22.8535 
  87   0.0000       0.926928        25.2230 
  88   0.0000       0.975900        26.5556 
  89   0.0000       0.999044        27.1854 
  90   0.0000       1.007879        27.4258 
  91   0.0000       1.012543        27.5527 
  92   0.0000       1.041691        28.3458 
  93   0.0000       1.059434        28.8287 
  94   0.0000       1.076135        29.2831 
  95   0.0000       1.099359        29.9151 
  96   0.0000       1.116852        30.3911 
  97   0.0000       1.155236        31.4356 
  98   0.0000       1.157075        31.4856 
  99   0.0000       1.175790        31.9949 
 100   0.0000       1.202783        32.7294 
 101   0.0000       1.225307        33.3423 
 102   0.0000       1.280371        34.8407 
 103   0.0000       1.317167        35.8419 
 104   0.0000       1.333084        36.2751 
 105   0.0000       1.340725        36.4830 
 106   0.0000       1.372131        37.3376 
 107   0.0000       1.410703        38.3872 
 108   0.0000       1.417191        38.5637 
 109   0.0000       1.588889        43.2359 
 110   0.0000       1.602362        43.6025 
 111   0.0000       1.631550        44.3967 
 112   0.0000       1.662347        45.2348 
 113   0.0000       1.685245        45.8579 
 114   0.0000       1.722124        46.8614 
 115   0.0000       1.761856        47.9425 
 116   0.0000       1.768406        48.1208 
 117   0.0000       1.777430        48.3663 
 118   0.0000       1.818804        49.4922 
 119   0.0000       1.830928        49.8221 
 120   0.0000       1.873917        50.9919 
 121   0.0000       1.915835        52.1325 
 122   0.0000       1.950833        53.0849 
 123   0.0000       1.971124        53.6370 
 124   0.0000       2.000784        54.4441 
 125   0.0000       2.021029        54.9950 
 126   0.0000       2.044915        55.6450 
 127   0.0000       2.083555        56.6964 
 128   0.0000       2.097096        57.0649 
 129   0.0000       2.125422        57.8357 
 130   0.0000       2.157524        58.7092 
 131   0.0000       2.176981        59.2387 
 132   0.0000       2.183447        59.4146 
 133   0.0000       2.211290        60.1722 
 134   0.0000       2.229969        60.6805 
 135   0.0000       2.265422        61.6453 
 136   0.0000       2.308679        62.8224 
 137   0.0000       2.347398        63.8759 
 138   0.0000       2.373894        64.5969 
 139   0.0000       2.407563        65.5131 
 140   0.0000       2.478726        67.4496 
 141   0.0000       2.496031        67.9204 
 142   0.0000       2.528649        68.8080 
 143   0.0000       2.537668        69.0535 
 144   0.0000       2.610242        71.0283 
 145   0.0000       2.660342        72.3916 
 146   0.0000       2.679002        72.8994 
 147   0.0000       2.699165        73.4480 
 148   0.0000       2.740456        74.5716 
 149   0.0000       2.836814        77.1936 
 150   0.0000       2.879546        78.3564 
 151   0.0000       2.940494        80.0149 
 152   0.0000       2.964077        80.6566 
 153   0.0000       3.041635        82.7671 
 154   0.0000       3.147242        85.6408 
 155   0.0000       3.170733        86.2800 
 156   0.0000       3.257812        88.6496 
 157   0.0000       3.278228        89.2051 
 158   0.0000       3.295771        89.6825 
 159   0.0000       3.374509        91.8251 
 160   0.0000       3.438358        93.5625 
 161   0.0000       3.498385        95.1959 
 162   0.0000       3.736298       101.6698 
 163   0.0000       3.800091       103.4057 

                    ********************************
                    * MULLIKEN POPULATION ANALYSIS *
                    ********************************

-----------------------
MULLIKEN ATOMIC CHARGES
-----------------------
   0 C :    1.520551
   1 N :   -0.406444
   2 C :    0.417211
   3 N :    0.196072
   4 C :    0.563217
   5 H :   -0.422288
   6 H :   -0.390226
   7 H :   -0.394618
   8 H :   -0.160723
   9 H :   -0.115210
  10 H :   -0.401846
  11 H :   -0.209440
  12 H :   -0.196254
Sum of atomic charges:    0.0000000

--------------------------------
MULLIKEN REDUCED ORBITAL CHARGES
--------------------------------
  0 C s       :     2.111694  s :     2.111694
      pz      :     0.749389  p :     2.387424
      px      :     0.836035
      py      :     0.802000
      dz2     :    -0.027977  d :    -0.019669
      dxz     :     0.002260
      dyz     :    -0.010214
      dx2y2   :     0.001961
      dxy     :     0.014302
  1 N s       :     3.386156  s :     3.386156
      pz      :     1.283881  p :     3.749518
      px      :     1.269727
      py      :     1.195909
      dz2     :     0.037923  d :     0.270771
      dxz     :     0.035943
      dyz     :     0.062859
      dx2y2   :     0.087150
      dxy     :     0.046896
  2 C s       :     2.840333  s :     2.840333
      pz      :     0.836217  p :     2.417793
      px      :     0.840599
      py      :     0.740977
      dz2     :     0.157230  d :     0.324663
      dxz     :     0.064958
      dyz     :     0.036008
      dx2y2   :     0.049914
      dxy     :     0.016552
  3 N s       :     3.162886  s :     3.162886
      pz      :     1.369009  p :     3.624484
      px      :     1.172348
      py      :     1.083128
      dz2     :     0.003695  d :     0.016559
      dxz     :    -0.001693
      dyz     :     0.012103
      dx2y2   :     0.001117
      dxy     :     0.001337
  4 C s       :     2.603355  s :     2.603355
      pz      :     0.923543  p :     2.710335
      px      :     1.004513
      py      :     0.782279
      dz2     :     0.042027  d :     0.123093
      dxz     :     0.027523
      dyz     :     0.036288
      dx2y2   :     0.027507
      dxy     :    -0.010252
  5 H s       :     1.231049  s :     1.231049
      pz      :     0.071114  p :     0.191239
      px      :     0.069063
      py      :     0.051062
  6 H s       :     1.277009  s :     1.277009
      pz      :     0.068960  p :     0.113217
      px      :     0.035582
      py      :     0.008674
  7 H s       :     1.332709  s :     1.332709
      pz      :     0.030974  p :     0.061909
      px      :     0.003741
      py      :     0.027195
  8 H s       :     1.112759  s :     1.112759
      pz      :     0.034111  p :     0.047964
      px      :    -0.002111
      py      :     0.015964
  9 H s       :     1.062245  s :     1.062245
      pz      :     0.045124  p :     0.052965
      px      :     0.010845
      py      :    -0.003004
 10 H s       :     1.187292  s :     1.187292
      pz      :     0.077550  p :     0.214553
      px      :     0.105863
      py      :     0.031141
 11 H s       :     1.198024  s :     1.198024
      pz      :    -0.062241  p :     0.011416
      px      :     0.033877
      py      :     0.039780
 12 H s       :     1.184591  s :     1.184591
      pz      :     0.042165  p :     0.011664
      px      :    -0.030151
      py      :    -0.000351


                     *******************************
                     * LOEWDIN POPULATION ANALYSIS *
                     *******************************

----------------------
LOEWDIN ATOMIC CHARGES
----------------------
   0 C :    0.231846
   1 N :   -0.047254
   2 C :   -0.243411
   3 N :    0.189924
   4 C :    0.154453
   5 H :   -0.135108
   6 H :   -0.108276
   7 H :    0.016877
   8 H :   -0.014579
   9 H :    0.011810
  10 H :   -0.031623
  11 H :   -0.012214
  12 H :   -0.012446

-------------------------------
LOEWDIN REDUCED ORBITAL CHARGES
-------------------------------
  0 C s       :     2.678686  s :     2.678686
      pz      :     0.933372  p :     2.655242
      px      :     0.881632
      py      :     0.840238
      dz2     :     0.048871  d :     0.434226
      dxz     :     0.064974
      dyz     :     0.105910
      dx2y2   :     0.127783
      dxy     :     0.086688
  1 N s       :     2.901912  s :     2.901912
      pz      :     1.213652  p :     3.517833
      px      :     1.193651
      py      :     1.110531
      dz2     :     0.099602  d :     0.627509
      dxz     :     0.105769
      dyz     :     0.131897
      dx2y2   :     0.152011
      dxy     :     0.138230
  2 C s       :     2.632787  s :     2.632787
      pz      :     0.839835  p :     2.510276
      px      :     0.802983
      py      :     0.867457
      dz2     :     0.242122  d :     1.100348
      dxz     :     0.167045
      dyz     :     0.225974
      dx2y2   :     0.229552
      dxy     :     0.235655
  3 N s       :     2.927507  s :     2.927507
      pz      :     1.258484  p :     3.536618
      px      :     1.156901
      py      :     1.121233
      dz2     :     0.034005  d :     0.345952
      dxz     :     0.032021
      dyz     :     0.092973
      dx2y2   :     0.092154
      dxy     :     0.094797
  4 C s       :     2.730542  s :     2.730542
      pz      :     0.930129  p :     2.800633
      px      :     0.948592
      py      :     0.921912
      dz2     :     0.069165  d :     0.314373
      dxz     :     0.059651
      dyz     :     0.070446
      dx2y2   :     0.054855
      dxy     :     0.060255
  5 H s       :     0.755785  s :     0.755785
      pz      :     0.099889  p :     0.379323
      px      :     0.151937
      py      :     0.127497
  6 H s       :     0.772883  s :     0.772883
      pz      :     0.116227  p :     0.335393
      px      :     0.127978
      py      :     0.091188
  7 H s       :     0.651861  s :     0.651861
      pz      :     0.114745  p :     0.331262
      px      :     0.090163
      py      :     0.126354
  8 H s       :     0.659171  s :     0.659171
      pz      :     0.145430  p :     0.355407
      px      :     0.107039
      py      :     0.102939
  9 H s       :     0.651760  s :     0.651760
      pz      :     0.113736  p :     0.336429
      px      :     0.143117
      py      :     0.079576
 10 H s       :     0.715526  s :     0.715526
      pz      :     0.121222  p :     0.316097
      px      :     0.113569
      py      :     0.081305
 11 H s       :     0.754014  s :     0.754014
      pz      :     0.080037  p :     0.258200
      px      :     0.111990
      py      :     0.066173
 12 H s       :     0.753456  s :     0.753456
      pz      :     0.119253  p :     0.258990
      px      :     0.066504
      py      :     0.073232


                      *****************************
                      * MAYER POPULATION ANALYSIS *
                      *****************************

  NA   - Mulliken gross atomic population
  ZA   - Total nuclear charge
  QA   - Mulliken gross atomic charge
  VA   - Mayer's total valence
  BVA  - Mayer's bonded valence
  FA   - Mayer's free valence

  ATOM       NA         ZA         QA         VA         BVA        FA
  0 C      4.4794     6.0000     1.5206     2.8769     2.8769     0.0000
  1 N      7.4064     7.0000    -0.4064     4.4810     4.4810     0.0000
  2 C      5.5828     6.0000     0.4172     4.0816     4.0816     0.0000
  3 N      6.8039     7.0000     0.1961     3.7394     3.7394    -0.0000
  4 C      5.4368     6.0000     0.5632     3.6555     3.6555    -0.0000
  5 H      1.4223     1.0000    -0.4223     1.3687     1.3687     0.0000
  6 H      1.3902     1.0000    -0.3902     1.2161     1.2161    -0.0000
  7 H      1.3946     1.0000    -0.3946     0.9269     0.9269     0.0000
  8 H      1.1607     1.0000    -0.1607     0.9555     0.9555     0.0000
  9 H      1.1152     1.0000    -0.1152     0.9608     0.9608    -0.0000
 10 H      1.4018     1.0000    -0.4018     1.3198     1.3198     0.0000
 11 H      1.2094     1.0000    -0.2094     0.9455     0.9455     0.0000
 12 H      1.1963     1.0000    -0.1963     0.9240     0.9240     0.0000

  Mayer bond orders larger than 0.100000
B(  0-C ,  1-N ) :   0.9427 B(  0-C ,  7-H ) :  -0.1709 B(  0-C , 10-H ) :   0.7261 
B(  0-C , 11-H ) :   0.6791 B(  0-C , 12-H ) :   0.6476 B(  1-N ,  2-C ) :   1.0945 
B(  1-N ,  3-N ) :   0.1565 B(  1-N ,  4-C ) :   0.2720 B(  1-N ,  7-H ) :   1.3045 
B(  1-N , 10-H ) :   0.2348 B(  1-N , 11-H ) :   0.2054 B(  1-N , 12-H ) :   0.2400 
B(  2-C ,  3-N ) :   0.9801 B(  2-C ,  4-C ) :   1.8175 B(  2-C ,  5-H ) :   0.2432 
B(  2-C ,  6-H ) :   0.2496 B(  2-C ,  7-H ) :  -0.2199 B(  3-N ,  4-C ) :   0.2602 
B(  3-N ,  8-H ) :   1.0883 B(  3-N ,  9-H ) :   1.1916 B(  4-C ,  5-H ) :   0.6385 
B(  4-C ,  6-H ) :   0.6808 B(  5-H ,  6-H ) :   0.2652 B(  5-H , 10-H ) :   0.1628 
B(  8-H ,  9-H ) :  -0.1375 

-------
TIMINGS
-------

Total SCF time: 0 days 0 hours 0 min 22 sec 

Total time                  ....      22.077 sec
Sum of individual times     ....      21.906 sec  ( 99.2%)

Fock matrix formation       ....      20.935 sec  ( 94.8%)
  Split-RI-J                ....       0.829 sec  (  4.0% of F)
  Chain of spheres X        ....      17.274 sec  ( 82.5% of F)
  XC integration            ....       2.798 sec  ( 13.4% of F)
    Basis function eval.    ....       0.847 sec  ( 30.3% of XC)
    Density eval.           ....       0.583 sec  ( 20.8% of XC)
    XC-Functional eval.     ....       0.469 sec  ( 16.7% of XC)
    XC-Potential eval.      ....       0.797 sec  ( 28.5% of XC)
Diagonalization             ....       0.039 sec  (  0.2%)
Density matrix formation    ....       0.003 sec  (  0.0%)
Population analysis         ....       0.006 sec  (  0.0%)
Initial guess               ....       0.115 sec  (  0.5%)
Orbital Transformation      ....       0.000 sec  (  0.0%)
Orbital Orthonormalization  ....       0.000 sec  (  0.0%)
DIIS solution               ....       0.024 sec  (  0.1%)
SOSCF solution              ....       0.027 sec  (  0.1%)
Grid generation             ....       0.756 sec  (  3.4%)

Maximum memory used throughout the entire SCF-calculation: 51.4 MB

-------------------------   --------------------
FINAL SINGLE POINT ENERGY      -228.314983706442
-------------------------   --------------------


                            ***************************************
                            *     ORCA property calculations      *
                            ***************************************

                                    ---------------------
                                    Active property flags
                                    ---------------------
   (+) Dipole Moment


------------------------------------------------------------------------------
                       ORCA ELECTRIC PROPERTIES CALCULATION
------------------------------------------------------------------------------

Dipole Moment Calculation                       ... on
Quadrupole Moment Calculation                   ... off
Polarizability Calculation                      ... off
GBWName                                         ... 18Feb_SVPD_CAMB3LYP_C3_wt_wb97_typm1_pos.gbw
Electron density file                           ... 18Feb_SVPD_CAMB3LYP_C3_wt_wb97_typm1_pos.scfp
The origin for moment calculation is the CENTER OF MASS  = ( 5.803483, -0.813354 -10.964205)

-------------
DIPOLE MOMENT
-------------
                                X             Y             Z
Electronic contribution:      1.04501       2.33731       0.86043
Nuclear contribution   :     -1.66129      -1.64514      -0.08842
                        -----------------------------------------
Total Dipole Moment    :     -0.61628       0.69216       0.77201
                        -----------------------------------------
Magnitude (a.u.)       :      1.20619
Magnitude (Debye)      :      3.06589



--------------------
Rotational spectrum 
--------------------
 
Rotational constants in cm-1:     0.330436     0.136339     0.098902 
Rotational constants in MHz :  9906.231858  4087.333233  2964.994979 

 Dipole components along the rotational axes: 
x,y,z [a.u.] :    -0.191775     1.184735    -0.120503 
x,y,z [Debye]:    -0.487454     3.011357    -0.306295 

 

Timings for individual modules:

Sum of individual times         ...       22.903 sec (=   0.382 min)
GTO integral calculation        ...        0.484 sec (=   0.008 min)   2.1 %
SCF iterations                  ...       22.419 sec (=   0.374 min)  97.9 %
                             ****ORCA TERMINATED NORMALLY****
TOTAL RUN TIME: 0 days 0 hours 0 minutes 23 seconds 391 msec
