
                                        *****************
                                        * O   R   C   A *
                                        *****************

                                            #,                                       
                                            ###                                      
                                            ####                                     
                                            #####                                    
                                            ######                                   
                                           ########,                                 
                                     ,,################,,,,,                         
                               ,,#################################,,                 
                          ,,##########################################,,             
                       ,#########################################, ''#####,          
                    ,#############################################,,   '####,        
                  ,##################################################,,,,####,       
                ,###########''''           ''''###############################       
              ,#####''   ,,,,##########,,,,          '''####'''          '####       
            ,##' ,,,,###########################,,,                        '##       
           ' ,,###''''                  '''############,,,                           
         ,,##''                                '''############,,,,        ,,,,,,###''
      ,#''                                            '''#######################'''  
     '                                                          ''''####''''         
             ,#######,   #######,   ,#######,      ##                                
            ,#'     '#,  ##    ##  ,#'     '#,    #''#        ######   ,####,        
            ##       ##  ##   ,#'  ##            #'  '#       #        #'  '#        
            ##       ##  #######   ##           ,######,      #####,   #    #        
            '#,     ,#'  ##    ##  '#,     ,#' ,#      #,         ##   #,  ,#        
             '#######'   ##     ##  '#######'  #'      '#     #####' # '####'        



                  #######################################################
                  #                        -***-                        #
                  #          Department of theory and spectroscopy      #
                  #    Directorship and core code : Frank Neese         #
                  #        Max Planck Institute fuer Kohlenforschung    #
                  #                Kaiser Wilhelm Platz 1               #
                  #                 D-45470 Muelheim/Ruhr               #
                  #                      Germany                        #
                  #                                                     #
                  #                  All rights reserved                #
                  #                        -***-                        #
                  #######################################################


                         Program Version 5.0.0 -  RELEASE  -
                                (SVN: $Rev: 19529$)
                ($Date: 2021-06-28 11:36:33 +0200 (Mo, 28 Jun 2021) $)


 With contributions from (in alphabetic order):
   Daniel Aravena         : Magnetic Suceptibility
   Michael Atanasov       : Ab Initio Ligand Field Theory (pilot matlab implementation)
   Alexander A. Auer      : GIAO ZORA, VPT2 properties, NMR spectrum
   Ute Becker             : Parallelization
   Giovanni Bistoni       : ED, misc. LED, open-shell LED, HFLD
   Martin Brehm           : Molecular dynamics
   Dmytro Bykov           : SCF Hessian
   Vijay G. Chilkuri      : MRCI spin determinant printing, contributions to CSF-ICE
   Dipayan Datta          : RHF DLPNO-CCSD density
   Achintya Kumar Dutta   : EOM-CC, STEOM-CC
   Dmitry Ganyushin       : Spin-Orbit,Spin-Spin,Magnetic field MRCI
   Miquel Garcia          : C-PCM Hessian, Gaussian charge scheme
   Yang Guo               : DLPNO-NEVPT2, F12-NEVPT2, CIM, IAO-localization
   Andreas Hansen         : Spin unrestricted coupled pair/coupled cluster methods
   Benjamin Helmich-Paris : MC-RPA, TRAH-SCF, COSX integrals
   Lee Huntington         : MR-EOM, pCC
   Robert Izsak           : Overlap fitted RIJCOSX, COSX-SCS-MP3, EOM
   Marcus Kettner         : VPT2
   Christian Kollmar      : KDIIS, OOCD, Brueckner-CCSD(T), CCSD density, CASPT2, CASPT2-K
   Simone Kossmann        : Meta GGA functionals, TD-DFT gradient, OOMP2, MP2 Hessian
   Martin Krupicka        : Initial AUTO-CI
   Lucas Lang             : DCDCAS
   Marvin Lechner         : AUTO-CI (C++ implementation), FIC-MRCC
   Dagmar Lenk            : GEPOL surface, SMD
   Dimitrios Liakos       : Extrapolation schemes; Compound Job, initial MDCI parallelization
   Dimitrios Manganas     : Further ROCIS development; embedding schemes
   Dimitrios Pantazis     : SARC Basis sets
   Anastasios Papadopoulos: AUTO-CI, single reference methods and gradients
   Taras Petrenko         : DFT Hessian,TD-DFT gradient, ASA, ECA, R-Raman, ABS, FL, XAS/XES, NRVS
   Peter Pinski           : DLPNO-MP2, DLPNO-MP2 Gradient
   Christoph Reimann      : Effective Core Potentials
   Marius Retegan         : Local ZFS, SOC
   Christoph Riplinger    : Optimizer, TS searches, QM/MM, DLPNO-CCSD(T), (RO)-DLPNO pert. Triples
   Tobias Risthaus        : Range-separated hybrids, TD-DFT gradient, RPA, STAB
   Michael Roemelt        : Original ROCIS implementation
   Masaaki Saitow         : Open-shell DLPNO-CCSD energy and density
   Barbara Sandhoefer     : DKH picture change effects
   Avijit Sen             : IP-ROCIS
   Kantharuban Sivalingam : CASSCF convergence, NEVPT2, FIC-MRCI
   Bernardo de Souza      : ESD, SOC TD-DFT
   Georgi Stoychev        : AutoAux, RI-MP2 NMR
   Willem Van den Heuvel  : Paramagnetic NMR
   Boris Wezisla          : Elementary symmetry handling
   Frank Wennmohs         : Technical directorship


 We gratefully acknowledge several colleagues who have allowed us to
 interface, adapt or use parts of their codes:
   Stefan Grimme, W. Hujo, H. Kruse, P. Pracht,  : VdW corrections, initial TS optimization,
                  C. Bannwarth, S. Ehlert          DFT functionals, gCP, sTDA/sTD-DF
   Ed Valeev, F. Pavosevic, A. Kumar             : LibInt (2-el integral package), F12 methods
   Garnet Chan, S. Sharma, J. Yang, R. Olivares  : DMRG
   Ulf Ekstrom                                   : XCFun DFT Library
   Mihaly Kallay                                 : mrcc  (arbitrary order and MRCC methods)
   Jiri Pittner, Ondrej Demel                    : Mk-CCSD
   Frank Weinhold                                : gennbo (NPA and NBO analysis)
   Christopher J. Cramer and Donald G. Truhlar   : smd solvation model
   Lars Goerigk                                  : TD-DFT with DH, B97 family of functionals
   V. Asgeirsson, H. Jonsson                     : NEB implementation
   FAccTs GmbH                                   : IRC, NEB, NEB-TS, DLPNO-Multilevel, CI-OPT
                                                   MM, QMMM, 2- and 3-layer-ONIOM, Crystal-QMMM,
                                                   LR-CPCM, SF, NACMEs, symmetry and pop. for TD-DFT,
                                                   nearIR, NL-DFT gradient (VV10), updates on ESD,
                                                   ML-optimized integration grids
   S Lehtola, MJT Oliveira, MAL Marques          : LibXC Library
   Liviu Ungur et al                             : ANISO software


 Your calculation uses the libint2 library for the computation of 2-el integrals
 For citations please refer to: http://libint.valeyev.net

 Your ORCA version has been built with support for libXC version: 5.1.0
 For citations please refer to: https://tddft.org/programs/libxc/

 This ORCA versions uses:
   CBLAS   interface :  Fast vector & matrix operations
   LAPACKE interface :  Fast linear algebra routines
   SCALAPACK package :  Parallel linear algebra routines
   Shared memory     :  Shared parallel matrices
   BLAS/LAPACK       :  OpenBLAS 0.3.15  USE64BITINT DYNAMIC_ARCH NO_AFFINITY Haswell SINGLE_THREADED
        Core in use  :  Haswell
   Copyright (c) 2011-2014, The OpenBLAS Project




***************************************
The coordinates will be read from file: D3.xyz
***************************************


================================================================================

----- Orbital basis set information -----
Your calculation utilizes the basis: aug-cc-pVTZ 
    H, B-Ne : Obtained from the ccRepo (grant-hill.group.shef.ac.uk/ccrepo) Feb. 2017
              R. A. Kendall, T. H. Dunning, Jr., R. J. Harrison, J. Chem. Phys. 96, 6796 (1992)
         He : Obtained from the ccRepo (grant-hill.group.shef.ac.uk/ccrepo) Feb. 2017
              D. E. Woon, T. H. Dunning, Jr., J. Chem. Phys. 100, 2975 (1994)
  Li-Be, Na : Obtained from the ccRepo (grant-hill.group.shef.ac.uk/ccrepo) Feb. 2017
              B. P. Prascher, D. E. Woon, K. A. Peterson, T. H. Dunning, Jr., A. K. Wilson, Theor. Chem. Acc. 128, 69 (2011)
         Mg : Obtained from the Peterson Research Group Website (tyr0.chem.wsu.edu/~kipeters) Feb. 2017
              B. P. Prascher, D. E. Woon, K. A. Peterson, T. H. Dunning, Jr., A. K. Wilson, Theor. Chem. Acc. 128, 69 (2011)
      Al-Ar : Obtained from the ccRepo (grant-hill.group.shef.ac.uk/ccrepo) Feb. 2017
              D. E. Woon, T. H. Dunning, Jr., J. Chem. Phys. 98, 1358 (1993)
      Sc-Zn : Obtained from the ccRepo (grant-hill.group.shef.ac.uk/ccrepo) Feb. 2017
              N. B. Balabanov, K. A. Peterson, J. Chem. Phys. 123, 064107 (2005)
              N. B. Balabanov, K. A. Peterson, J. Chem. Phys. 125, 074110 (2006)
      Ga-Kr : Obtained from the ccRepo (grant-hill.group.shef.ac.uk/ccrepo) Feb. 2017
              A. K. Wilson, D. E. Woon, K. A. Peterson, T. H. Dunning, Jr., J. Chem. Phys. 110, 7667 (1999)
     Ag, Au : Obtained from the Peterson Research Group Website (tyr0.chem.wsu.edu/~kipeters) Feb. 2017
              K. A. Peterson, C. Puzzarini, Theor. Chem. Acc. 114, 283 (2005)

----- AuxJ basis set information -----
Your calculation utilizes the auxiliary basis: def2/J
   F. Weigend, Phys. Chem. Chem. Phys. 8, 1057 (2006).

----- AuxC basis set information -----
Your calculation utilizes the auxiliary basis: aug-cc-pVTZ/C 
  H-He, B-F, Al-Ar, Ga-Kr : Obtained from the EMSL Basis Set Exchange (bse.pnl.gov) Feb. 2017
                            F. Weigend, A. Kohn, C. Hattig, J. Chem. Phys. 116, 3175 (2002)
                   Be, Mg : Obtained from the TURBOMOLE 7.0 basis set library
                            C. Haettig, Phys. Chem. Chem. Phys. 7, 59 (2005)
                       Ne : Obtained from the EMSL Basis Set Exchange (bse.pnl.gov) Feb. 2017
                            C. Haettig, Phys. Chem. Chem. Phys. 7, 59 (2005)
                            F. Weigend, A. Kohn, C. Hattig, J. Chem. Phys. 116, 3175 (2002)
                    Sc-Zn : Obtained from the EMSL Basis Set Exchange (bse.pnl.gov) Feb. 2017
                            J. G. Hill, J. A. Platts, J. Chem. Phys. 128, 044104 (2008)

================================================================================
                                        WARNINGS
                       Please study these warnings very carefully!
================================================================================


WARNING: Post HF methods need fully converged wavefunctions
  ===> : Setting SCFConvForced true
         You can overwrite this default with %scf ConvForced false 


WARNING: MDCI localization with Augmented Hessian Foster-Boys
  ===> : Switching off randomization!

INFO   : the flag for use of the SHARK integral package has been found!

================================================================================
                                       INPUT FILE
================================================================================
NAME = D3_dlpno.com
|  1> !DLPNO-CCSD(T) aug-cc-pVTZ aug-cc-pVTZ/C TightSCF TightPNO RIJCOSX def2/J 
|  2> 
|  3> *xyzfile 0 1 D3.xyz
|  4> 
|  5> %MaxCore 64000
|  6> 
|  7> %pal nprocs 18                                                                                                                                                  
|  8> end  
|  9> 
| 10> %scf
| 11>   MaxIter 150
| 12> end
| 13> 
| 14> 
| 15>                          ****END OF INPUT****
================================================================================

                       ****************************
                       * Single Point Calculation *
                       ****************************

---------------------------------
CARTESIAN COORDINATES (ANGSTROEM)
---------------------------------
  C      3.343500    3.354571   -3.591998
  C      2.952633    1.863077   -3.574849
  C      4.129209    0.898394   -3.418950
  H      3.733687   -0.100605   -3.237633
  H      4.719095    0.862556   -4.339005
  C      5.017344    1.315212   -2.221305
  C      4.255868    3.703851   -4.726054
  C      3.734032    4.293783   -5.800770
  N      5.515039    3.407255   -4.637185
  H      6.149187    3.601203   -5.399053
  H      5.813584    2.899504   -3.808785
  H      2.741380    4.513109   -5.824701
  H      4.287548    4.521260   -6.614341
  H      2.278938    1.735250   -2.725496
  H      2.377466    1.625787   -4.475869
  O      4.737055    0.854112   -1.122825
  F      5.928146    2.168108   -2.491365
  H      3.861246    3.597252   -2.662979
  H      2.446493    3.973461   -3.656556

----------------------------
CARTESIAN COORDINATES (A.U.)
----------------------------
  NO LB      ZA    FRAG     MASS         X           Y           Z
   0 C     6.0000    0    12.011    6.318299    6.339220   -6.787892
   1 C     6.0000    0    12.011    5.579668    3.520705   -6.755485
   2 C     6.0000    0    12.011    7.803074    1.697719   -6.460880
   3 H     1.0000    0     1.008    7.055645   -0.190115   -6.118240
   4 H     1.0000    0     1.008    8.917798    1.629994   -8.199532
   5 C     6.0000    0    12.011    9.481405    2.485390   -4.197658
   6 C     6.0000    0    12.011    8.042425    6.999265   -8.930948
   7 C     6.0000    0    12.011    7.056298    8.114075  -10.961867
   8 N     7.0000    0    14.007   10.421913    6.438778   -8.763009
   9 H     1.0000    0     1.008   11.620279    6.805287  -10.202732
  10 H     1.0000    0     1.008   10.986082    5.479268   -7.197561
  11 H     1.0000    0     1.008    5.180457    8.528540  -11.007090
  12 H     1.0000    0     1.008    8.102292    8.543944  -12.499293
  13 H     1.0000    0     1.008    4.306568    3.279147   -5.150441
  14 H     1.0000    0     1.008    4.492760    3.072291   -8.458167
  15 O     8.0000    0    15.999    8.951737    1.614038   -2.121832
  16 F     9.0000    0    18.998   11.202573    4.097131   -4.707997
  17 H     1.0000    0     1.008    7.296698    6.797822   -5.032300
  18 H     1.0000    0     1.008    4.623202    7.508754   -6.909890

--------------------------------
INTERNAL COORDINATES (ANGSTROEM)
--------------------------------
 C      0   0   0     0.000000000000     0.00000000     0.00000000
 C      1   0   0     1.541955024880     0.00000000     0.00000000
 C      2   1   0     1.529459731877   114.59647875     0.00000000
 H      3   2   1     1.089638404615   108.42080280   169.84269645
 H      3   2   1     1.093504202718   110.48067446   287.77495084
 C      3   2   1     1.548184316806   110.50829043    50.38237693
 C      1   2   3     1.496828833341   112.87029798    60.99277320
 C      7   1   2     1.332421496251   118.40475339   100.88730349
 N      7   1   2     1.296679672360   119.11744996   281.82651921
 H      9   7   1     1.010051189819   120.93457194   177.85654102
 H      9   7   1     1.016457414395   117.08628344     3.23408230
 H      8   7   1     1.016874596539   119.78805900     1.33715241
 H      8   7   1     1.009962060502   122.33188892   182.52589138
 H      2   1   3     1.091606836098   106.16254242   120.06039675
 H      2   1   3     1.094970931493   109.48850295   235.12365012
 O      6   3   2     1.223859674100   117.48492925    89.39693928
 F      6   3   2     1.276685429462   115.18110245   272.92014429
 H      1   2   3     1.090885930422   109.02734392   301.35657719
 H      1   2   3     1.091702678778   109.92131780   182.76836174

---------------------------
INTERNAL COORDINATES (A.U.)
---------------------------
 C      0   0   0     0.000000000000     0.00000000     0.00000000
 C      1   0   0     2.913872707847     0.00000000     0.00000000
 C      2   1   0     2.890260026108   114.59647875     0.00000000
 H      3   2   1     2.059118169725   108.42080280   169.84269645
 H      3   2   1     2.066423469429   110.48067446   287.77495084
 C      3   2   1     2.925644363596   110.50829043    50.38237693
 C      1   2   3     2.828596564372   112.87029798    60.99277320
 C      7   1   2     2.517911722863   118.40475339   100.88730349
 N      7   1   2     2.450369464184   119.11744996   281.82651921
 H      9   7   1     1.908720130000   120.93457194   177.85654102
 H      9   7   1     1.920826140000   117.08628344     3.23408230
 H      8   7   1     1.921614500000   119.78805900     1.33715241
 H      8   7   1     1.908551700000   122.33188892   182.52589138
 H      2   1   3     2.062837966141   106.16254242   120.06039675
 H      2   1   3     2.069195185126   109.48850295   235.12365012
 O      6   3   2     2.312759610399   117.48492925    89.39693928
 F      6   3   2     2.412585820850   115.18110245   272.92014429
 H      1   2   3     2.061475651846   109.02734392   301.35657719
 H      1   2   3     2.063019082559   109.92131780   182.76836174

---------------------
BASIS SET INFORMATION
---------------------
There are 5 groups of distinct atoms

 Group   1 Type C   : 19s6p3d2f contracted to 5s4p3d2f pattern {88111/3111/111/11}
 Group   2 Type H   : 6s3p2d contracted to 4s3p2d pattern {3111/111/11}
 Group   3 Type N   : 19s6p3d2f contracted to 5s4p3d2f pattern {88111/3111/111/11}
 Group   4 Type O   : 19s6p3d2f contracted to 5s4p3d2f pattern {88111/3111/111/11}
 Group   5 Type F   : 19s6p3d2f contracted to 5s4p3d2f pattern {88111/3111/111/11}

Atom   0C    basis set group =>   1
Atom   1C    basis set group =>   1
Atom   2C    basis set group =>   1
Atom   3H    basis set group =>   2
Atom   4H    basis set group =>   2
Atom   5C    basis set group =>   1
Atom   6C    basis set group =>   1
Atom   7C    basis set group =>   1
Atom   8N    basis set group =>   3
Atom   9H    basis set group =>   2
Atom  10H    basis set group =>   2
Atom  11H    basis set group =>   2
Atom  12H    basis set group =>   2
Atom  13H    basis set group =>   2
Atom  14H    basis set group =>   2
Atom  15O    basis set group =>   4
Atom  16F    basis set group =>   5
Atom  17H    basis set group =>   2
Atom  18H    basis set group =>   2
---------------------------------
AUXILIARY/J BASIS SET INFORMATION
---------------------------------
There are 5 groups of distinct atoms

 Group   1 Type C   : 12s5p4d2f1g contracted to 6s4p3d1f1g pattern {711111/2111/211/2/1}
 Group   2 Type H   : 5s2p1d contracted to 3s1p1d pattern {311/2/1}
 Group   3 Type N   : 12s5p4d2f1g contracted to 6s4p3d1f1g pattern {711111/2111/211/2/1}
 Group   4 Type O   : 12s5p4d2f1g contracted to 6s4p3d1f1g pattern {711111/2111/211/2/1}
 Group   5 Type F   : 12s5p4d2f1g contracted to 6s4p3d1f1g pattern {711111/2111/211/2/1}

Atom   0C    basis set group =>   1
Atom   1C    basis set group =>   1
Atom   2C    basis set group =>   1
Atom   3H    basis set group =>   2
Atom   4H    basis set group =>   2
Atom   5C    basis set group =>   1
Atom   6C    basis set group =>   1
Atom   7C    basis set group =>   1
Atom   8N    basis set group =>   3
Atom   9H    basis set group =>   2
Atom  10H    basis set group =>   2
Atom  11H    basis set group =>   2
Atom  12H    basis set group =>   2
Atom  13H    basis set group =>   2
Atom  14H    basis set group =>   2
Atom  15O    basis set group =>   4
Atom  16F    basis set group =>   5
Atom  17H    basis set group =>   2
Atom  18H    basis set group =>   2
---------------------------------
AUXILIARY/C BASIS SET INFORMATION
---------------------------------
There are 5 groups of distinct atoms

 Group   1 Type C   : 9s7p6d4f2g contracted to 9s7p6d4f2g pattern {111111111/1111111/111111/1111/11}
 Group   2 Type H   : 5s4p3d2f contracted to 5s4p3d2f pattern {11111/1111/111/11}
 Group   3 Type N   : 9s7p6d4f2g contracted to 9s7p6d4f2g pattern {111111111/1111111/111111/1111/11}
 Group   4 Type O   : 9s7p6d4f2g contracted to 9s7p6d4f2g pattern {111111111/1111111/111111/1111/11}
 Group   5 Type F   : 9s7p6d4f2g contracted to 9s7p6d4f2g pattern {111111111/1111111/111111/1111/11}

Atom   0C    basis set group =>   1
Atom   1C    basis set group =>   1
Atom   2C    basis set group =>   1
Atom   3H    basis set group =>   2
Atom   4H    basis set group =>   2
Atom   5C    basis set group =>   1
Atom   6C    basis set group =>   1
Atom   7C    basis set group =>   1
Atom   8N    basis set group =>   3
Atom   9H    basis set group =>   2
Atom  10H    basis set group =>   2
Atom  11H    basis set group =>   2
Atom  12H    basis set group =>   2
Atom  13H    basis set group =>   2
Atom  14H    basis set group =>   2
Atom  15O    basis set group =>   4
Atom  16F    basis set group =>   5
Atom  17H    basis set group =>   2
Atom  18H    basis set group =>   2


           ************************************************************
           *        Program running with 18 parallel MPI-processes    *
           *              working on a common directory               *
           ************************************************************
------------------------------------------------------------------------------
                           ORCA GTO INTEGRAL CALCULATION
                           -- RI-GTO INTEGRALS CHOSEN --
------------------------------------------------------------------------------
------------------------------------------------------------------------------
                   ___                                                        
                  /   \      - P O W E R E D   B Y -                         
                 /     \                                                     
                 |  |  |   _    _      __       _____    __    __             
                 |  |  |  | |  | |    /  \     |  _  \  |  |  /  |          
                  \  \/   | |  | |   /    \    | | | |  |  | /  /          
                 / \  \   | |__| |  /  /\  \   | |_| |  |  |/  /          
                |  |  |   |  __  | /  /__\  \  |    /   |      \           
                |  |  |   | |  | | |   __   |  |    \   |  |\   \          
                \     /   | |  | | |  |  |  |  | |\  \  |  | \   \       
                 \___/    |_|  |_| |__|  |__|  |_| \__\ |__|  \__/        
                                                                              
                      - O R C A' S   B I G   F R I E N D -                    
                                      &                                       
                       - I N T E G R A L  F E E D E R -                       
                                                                              
 v1 FN, 2020, v2 2021                                                         
------------------------------------------------------------------------------


Reading SHARK input file D3_dlpno.SHARKINP.tmp ... ok
----------------------
SHARK INTEGRAL PACKAGE
----------------------

Number of atoms                             ...     19
Number of basis functions                   ...    644
Number of shells                            ...    216
Maximum angular momentum                    ...      3
Integral batch strategy                     ... SHARK/LIBINT Hybrid
RI-J (if used) integral strategy            ... SPLIT-RIJ (Revised 2003 algorithm where possible)
Printlevel                                  ...      1
Contraction scheme used                     ... SEGMENTED contraction
Coulomb Range Separation                    ... NOT USED
Exchange Range Separation                   ... NOT USED
Finite Nucleus Model                        ... NOT USED
Auxiliary Coulomb fitting basis             ... AVAILABLE
   # of basis functions in Aux-J            ...    551
   # of shells in Aux-J                     ...    185
   Maximum angular momentum in Aux-J        ...      4
Auxiliary J/K fitting basis                 ... NOT available
Auxiliary Correlation fitting basis         ... AVAILABLE
   # of basis functions in Aux-C            ...   1414
   # of shells in Aux-C                     ...    392
   Maximum angular momentum in Aux-C        ...      4
Auxiliary 'external' fitting basis          ... NOT available
Integral threshold                          ...     2.500000e-11
Primitive cut-off                           ...     2.500000e-12
Primitive pair pre-selection threshold      ...     2.500000e-12

Calculating pre-screening integrals         ... done (  0.5 sec) Dimension = 216
Organizing shell pair data                  ... done (  0.6 sec)
Shell pair information
Total number of shell pairs                 ...     23436
Shell pairs after pre-screening             ...     22570
Total number of primitive shell pairs       ...     72951
Primitive shell pairs kept                  ...     53495
          la=0 lb=0:   3536 shell pairs
          la=1 lb=0:   5401 shell pairs
          la=1 lb=1:   2117 shell pairs
          la=2 lb=0:   3847 shell pairs
          la=2 lb=1:   2968 shell pairs
          la=2 lb=2:   1084 shell pairs
          la=3 lb=0:   1485 shell pairs
          la=3 lb=1:   1149 shell pairs
          la=3 lb=2:    817 shell pairs
          la=3 lb=3:    166 shell pairs

Calculating one electron integrals          ... done (  0.1 sec)
Calculating RI/J V-Matrix + Cholesky decomp.... done (  0.1 sec)
Calculating RI/C V-Matrix + Cholesky decomp.... done (  0.6 sec)
Calculating Nuclear repulsion               ... done (  0.0 sec) ENN=    476.927568496600 Eh

SHARK setup successfully completed in   1.9 seconds

Maximum memory used throughout the entire GTOINT-calculation: 39.9 MB


           ************************************************************
           *        Program running with 18 parallel MPI-processes    *
           *              working on a common directory               *
           ************************************************************
-------------------------------------------------------------------------------
                                 ORCA SCF
-------------------------------------------------------------------------------

------------
SCF SETTINGS
------------
Hamiltonian:
 Ab initio Hamiltonian  Method          .... Hartree-Fock(GTOs)
 RI-approximation to the Coulomb term is turned on
   Number of AuxJ basis functions       .... 551
   RIJ-COSX (HFX calculated with COS-X)).... on


General Settings:
 Integral files         IntName         .... D3_dlpno
 Hartree-Fock type      HFTyp           .... RHF
 Total Charge           Charge          ....    0
 Multiplicity           Mult            ....    1
 Number of Electrons    NEL             ....   70
 Basis Dimension        Dim             ....  644
 Nuclear Repulsion      ENuc            ....    476.9275684966 Eh

Convergence Acceleration:
 DIIS                   CNVDIIS         .... on
   Start iteration      DIISMaxIt       ....    12
   Startup error        DIISStart       ....  0.200000
   # of expansion vecs  DIISMaxEq       ....     5
   Bias factor          DIISBfac        ....   1.050
   Max. coefficient     DIISMaxC        ....  10.000
 Trust-Rad. Augm. Hess. CNVTRAH         .... auto
   Auto Start mean grad. ratio tolernc. ....  1.125000
   Auto Start start iteration           ....    20
   Auto Start num. interpolation iter.  ....    10
   Max. Number of Micro iterations      ....    16
   Max. Number of Macro iterations      .... Maxiter - #DIIS iter
   Number of Davidson start vectors     ....     2
   Converg. threshold I  (grad. norm)   ....   1.000e-05
   Converg. threshold II (energy diff.) ....   1.000e-08
   Grad. Scal. Fac. for Micro threshold ....   0.100
   Minimum threshold for Micro iter.    ....   0.010
   NR start threshold (gradient norm)   ....   0.001
   Initial trust radius                 ....   0.400
   Minimum AH scaling param. (alpha)    ....   1.000
   Maximum AH scaling param. (alpha)    .... 1000.000
   Orbital update algorithm             .... Taylor
   White noise on init. David. guess    .... on
   Maximum white noise                  ....   0.010
   Quad. conv. algorithm                .... NR
 SOSCF                  CNVSOSCF        .... on
   Start iteration      SOSCFMaxIt      ....   150
   Startup grad/error   SOSCFStart      ....  0.003300
 Level Shifting         CNVShift        .... on
   Level shift para.    LevelShift      ....    0.2500
   Turn off err/grad.   ShiftErr        ....    0.0010
 Zerner damping         CNVZerner       .... off
 Static damping         CNVDamp         .... on
   Fraction old density DampFac         ....    0.7000
   Max. Damping (<1)    DampMax         ....    0.9800
   Min. Damping (>=0)   DampMin         ....    0.0000
   Turn off err/grad.   DampErr         ....    0.1000
 Fernandez-Rico         CNVRico         .... off

SCF Procedure:
 Maximum # iterations   MaxIter         ....   150
 SCF integral mode      SCFMode         .... Direct
   Integral package                     .... SHARK and LIBINT hybrid scheme
 Reset frequency        DirectResetFreq ....    20
 Integral Threshold     Thresh          ....  2.500e-11 Eh
 Primitive CutOff       TCut            ....  2.500e-12 Eh

Convergence Tolerance:
 Convergence Check Mode ConvCheckMode   .... Total+1el-Energy
 Convergence forced     ConvForced      .... 1
 Energy Change          TolE            ....  1.000e-08 Eh
 1-El. energy change                    ....  1.000e-05 Eh
 Orbital Gradient       TolG            ....  1.000e-05
 Orbital Rotation angle TolX            ....  1.000e-05
 DIIS Error             TolErr          ....  5.000e-07


Diagonalization of the overlap matrix:
Smallest eigenvalue                        ... 1.764e-06
Time for diagonalization                   ...    0.141 sec
Threshold for overlap eigenvalues          ... 1.000e-08
Number of eigenvalues below threshold      ... 0
Time for construction of square roots      ...    0.352 sec
Total time needed                          ...    0.498 sec

Time for model grid setup =    0.203 sec

------------------------------
INITIAL GUESS: MODEL POTENTIAL
------------------------------
Loading Hartree-Fock densities                     ... done
Calculating cut-offs                               ... done
Initializing the effective Hamiltonian             ... done
Setting up the integral package (SHARK)            ... done
Starting the Coulomb interaction                   ... done (   0.2 sec)
Reading the grid                                   ... done
Mapping shells                                     ... done
Starting the XC term evaluation                    ... done (   0.3 sec)
Transforming the Hamiltonian                       ... done (   0.1 sec)
Diagonalizing the Hamiltonian                      ... done (   0.2 sec)
Back transforming the eigenvectors                 ... done (   0.0 sec)
Now organizing SCF variables                       ... done
                      ------------------
                      INITIAL GUESS DONE (   1.0 sec)
                      ------------------
--------------------
COSX GRID GENERATION
--------------------

GRIDX 1
-------
General Integration Accuracy     IntAcc      ... 3.816
Radial Grid Type                 RadialGrid  ... OptM3 with GC (2021)
Angular Grid (max. ang.)         AngularGrid ... 1 (Lebedev-50)
Angular grid pruning method      GridPruning ... 4 (adaptive)
Weight generation scheme         WeightScheme... Becke
Basis function cutoff            BFCut       ... 1.0000e-11
Integration weight cutoff        WCut        ... 1.0000e-14
Angular grids for H and He will be reduced by one unit
Partially contracted basis set               ... on
Rotationally invariant grid construction     ... off

Total number of grid points                  ...    11326
Total number of batches                      ...      188
Average number of points per batch           ...       60
Average number of grid points per atom       ...      596
UseSFitting                                  ... on

GRIDX 2
-------
General Integration Accuracy     IntAcc      ... 4.020
Radial Grid Type                 RadialGrid  ... OptM3 with GC (2021)
Angular Grid (max. ang.)         AngularGrid ... 2 (Lebedev-110)
Angular grid pruning method      GridPruning ... 4 (adaptive)
Weight generation scheme         WeightScheme... Becke
Basis function cutoff            BFCut       ... 1.0000e-11
Integration weight cutoff        WCut        ... 1.0000e-14
Angular grids for H and He will be reduced by one unit
Partially contracted basis set               ... on
Rotationally invariant grid construction     ... off

Total number of grid points                  ...    27048
Total number of batches                      ...      431
Average number of points per batch           ...       62
Average number of grid points per atom       ...     1424
UseSFitting                                  ... on

GRIDX 3
-------
General Integration Accuracy     IntAcc      ... 4.338
Radial Grid Type                 RadialGrid  ... OptM3 with GC (2021)
Angular Grid (max. ang.)         AngularGrid ... 3 (Lebedev-194)
Angular grid pruning method      GridPruning ... 4 (adaptive)
Weight generation scheme         WeightScheme... Becke
Basis function cutoff            BFCut       ... 1.0000e-11
Integration weight cutoff        WCut        ... 1.0000e-14
Angular grids for H and He will be reduced by one unit
Partially contracted basis set               ... on
Rotationally invariant grid construction     ... off

Total number of grid points                  ...    60090
Total number of batches                      ...      947
Average number of points per batch           ...       63
Average number of grid points per atom       ...     3163
UseSFitting                                  ... on

Time for X-Grid setup             =    1.771 sec

 re-compute Schwartz prescreening matrix in partically contracted basis (1) ...done (   0.160 sec)
--------------
SCF ITERATIONS
--------------
ITER       Energy         Delta-E        Max-DP      RMS-DP      [F,P]     Damp
               ***  Starting incremental Fock matrix formation  ***
  0   -461.3651694714   0.000000000000 0.05343804  0.00076303  0.3219006 0.7000
  1   -461.5569945772  -0.191825105771 0.03977054  0.00062102  0.1872971 0.7000
                               ***Turning on DIIS***
  2   -461.6698796292  -0.112885052031 0.04202625  0.00045499  0.1150979 0.7000
  3   -462.5534106131  -0.883530983843 0.19063624  0.00119792  0.0837022 0.0000
  4   -461.8004388659   0.752971747222 0.04511066  0.00018288  0.0127403 0.0000
  5   -461.8856843403  -0.085245474429 0.00840613  0.00007366  0.0043380 0.0000
  6   -461.8934349693  -0.007750629037 0.00195529  0.00002710  0.0036169 0.0000
                      *** Initiating the SOSCF procedure ***
                           *** Shutting down DIIS ***
                      *** Re-Reading the Fockian *** 
                      *** Removing any level shift *** 
ITER      Energy       Delta-E        Grad      Rot      Max-DP    RMS-DP
  7   -461.90155151  -0.0081165407  0.000558  0.000558  0.001350  0.000014
               *** Restarting incremental Fock matrix formation ***
  8   -461.90352579  -0.0019742792  0.000321  0.000548  0.018913  0.000222
  9   -461.90353291  -0.0000071249  0.000103  0.000368  0.004713  0.000056
 10   -461.90353460  -0.0000016863  0.000057  0.000186  0.002181  0.000024
 11   -461.90353495  -0.0000003507  0.000019  0.000015  0.001310  0.000014
 12   -461.90353504  -0.0000000919  0.000005  0.000016  0.000102  0.000001
                  ***Gradient check signals convergence***
              ***Rediagonalizing the Fockian in SOSCF/NRSCF***

               *****************************************************
               *                     SUCCESS                       *
               *           SCF CONVERGED AFTER  13 CYCLES          *
               *****************************************************

Old exchange energy                            =    -59.837587772 Eh
New exchange energy                            =    -59.837624990 Eh
Exchange energy change after final integration =     -0.000037218 Eh
Total energy after final integration           =   -461.903572275 Eh
Final COS-X integration done in                =    12.477 sec

----------------
TOTAL SCF ENERGY
----------------

Total Energy       :         -461.90357227 Eh          -12569.03520 eV

Components:
Nuclear Repulsion  :          476.92756850 Eh           12977.85892 eV
Electronic Energy  :         -938.83114077 Eh          -25546.89412 eV
One Electron Energy:        -1577.21154739 Eh          -42918.10812 eV
Two Electron Energy:          638.38040662 Eh           17371.21400 eV
Max COSX asymmetry :            0.00002790 Eh               0.00076 eV

Virial components:
Potential Energy   :         -923.82422400 Eh          -25138.53515 eV
Kinetic Energy     :          461.92065172 Eh           12569.49995 eV
Virial Ratio       :            1.99996303


---------------
SCF CONVERGENCE
---------------

  Last Energy change         ...   -1.3274e-08  Tolerance :   1.0000e-08
  Last MAX-Density change    ...    2.4425e-15  Tolerance :   1.0000e-07
  Last RMS-Density change    ...    1.3731e-17  Tolerance :   5.0000e-09
  Last Orbital Gradient      ...    1.4688e-06  Tolerance :   1.0000e-05
  Last Orbital Rotation      ...    2.6730e-06  Tolerance :   1.0000e-05

             **** THE GBW FILE WAS UPDATED (D3_dlpno.gbw) ****
             **** DENSITY D3_dlpno.scfp WAS UPDATED ****
             **** ENERGY FILE WAS UPDATED (D3_dlpno.en.tmp) ****
             **** THE GBW FILE WAS UPDATED (D3_dlpno.gbw) ****
             **** DENSITY D3_dlpno.scfp WAS UPDATED ****
----------------
ORBITAL ENERGIES
----------------

  NO   OCC          E(Eh)            E(eV) 
   0   2.0000     -26.399468      -718.3660 
   1   2.0000     -20.586910      -560.1983 
   2   2.0000     -15.552019      -423.1919 
   3   2.0000     -11.445103      -311.4371 
   4   2.0000     -11.266704      -306.5826 
   5   2.0000     -11.259421      -306.3844 
   6   2.0000     -11.249982      -306.1276 
   7   2.0000     -11.238747      -305.8219 
   8   2.0000     -11.154874      -303.5395 
   9   2.0000      -1.753708       -47.7208 
  10   2.0000      -1.415818       -38.5264 
  11   2.0000      -1.251141       -34.0453 
  12   2.0000      -1.104589       -30.0574 
  13   2.0000      -1.026207       -27.9245 
  14   2.0000      -0.973023       -26.4773 
  15   2.0000      -0.923866       -25.1397 
  16   2.0000      -0.868718       -23.6390 
  17   2.0000      -0.813384       -22.1333 
  18   2.0000      -0.794836       -21.6286 
  19   2.0000      -0.763975       -20.7888 
  20   2.0000      -0.725140       -19.7321 
  21   2.0000      -0.701051       -19.0766 
  22   2.0000      -0.669044       -18.2056 
  23   2.0000      -0.638912       -17.3857 
  24   2.0000      -0.621083       -16.9005 
  25   2.0000      -0.600589       -16.3428 
  26   2.0000      -0.565741       -15.3946 
  27   2.0000      -0.549953       -14.9650 
  28   2.0000      -0.539709       -14.6862 
  29   2.0000      -0.537274       -14.6200 
  30   2.0000      -0.506145       -13.7729 
  31   2.0000      -0.488562       -13.2944 
  32   2.0000      -0.479346       -13.0437 
  33   2.0000      -0.471161       -12.8209 
  34   2.0000      -0.289169        -7.8687 
  35   0.0000       0.026028         0.7083 
  36   0.0000       0.033547         0.9129 
  37   0.0000       0.036863         1.0031 
  38   0.0000       0.039040         1.0623 
  39   0.0000       0.052544         1.4298 
  40   0.0000       0.054010         1.4697 
  41   0.0000       0.057243         1.5577 
  42   0.0000       0.059461         1.6180 
  43   0.0000       0.066608         1.8125 
  44   0.0000       0.079406         2.1608 
  45   0.0000       0.087436         2.3792 
  46   0.0000       0.104183         2.8350 
  47   0.0000       0.105886         2.8813 
  48   0.0000       0.108735         2.9588 
  49   0.0000       0.115151         3.1334 
  50   0.0000       0.118595         3.2271 
  51   0.0000       0.119575         3.2538 
  52   0.0000       0.121921         3.3176 
  53   0.0000       0.124777         3.3954 
  54   0.0000       0.126983         3.4554 
  55   0.0000       0.134534         3.6608 
  56   0.0000       0.137512         3.7419 
  57   0.0000       0.144543         3.9332 
  58   0.0000       0.151113         4.1120 
  59   0.0000       0.153580         4.1791 
  60   0.0000       0.157753         4.2927 
  61   0.0000       0.163811         4.4575 
  62   0.0000       0.166974         4.5436 
  63   0.0000       0.173104         4.7104 
  64   0.0000       0.174750         4.7552 
  65   0.0000       0.176165         4.7937 
  66   0.0000       0.180133         4.9017 
  67   0.0000       0.199217         5.4210 
  68   0.0000       0.202991         5.5237 
  69   0.0000       0.214781         5.8445 
  70   0.0000       0.220576         6.0022 
  71   0.0000       0.226522         6.1640 
  72   0.0000       0.234645         6.3850 
  73   0.0000       0.240920         6.5558 
  74   0.0000       0.250584         6.8187 
  75   0.0000       0.258622         7.0375 
  76   0.0000       0.263573         7.1722 
  77   0.0000       0.267908         7.2901 
  78   0.0000       0.268641         7.3101 
  79   0.0000       0.278790         7.5863 
  80   0.0000       0.289672         7.8824 
  81   0.0000       0.291563         7.9338 
  82   0.0000       0.297840         8.1046 
  83   0.0000       0.302878         8.2417 
  84   0.0000       0.306918         8.3517 
  85   0.0000       0.312768         8.5108 
  86   0.0000       0.317148         8.6300 
  87   0.0000       0.319958         8.7065 
  88   0.0000       0.327011         8.8984 
  89   0.0000       0.331101         9.0097 
  90   0.0000       0.337806         9.1922 
  91   0.0000       0.343754         9.3540 
  92   0.0000       0.348792         9.4911 
  93   0.0000       0.355976         9.6866 
  94   0.0000       0.360493         9.8095 
  95   0.0000       0.366716         9.9788 
  96   0.0000       0.368716        10.0333 
  97   0.0000       0.372600        10.1390 
  98   0.0000       0.377336        10.2678 
  99   0.0000       0.380850        10.3635 
 100   0.0000       0.385514        10.4904 
 101   0.0000       0.391397        10.6505 
 102   0.0000       0.397521        10.8171 
 103   0.0000       0.401315        10.9203 
 104   0.0000       0.407508        11.0889 
 105   0.0000       0.415504        11.3064 
 106   0.0000       0.416969        11.3463 
 107   0.0000       0.422115        11.4863 
 108   0.0000       0.434178        11.8146 
 109   0.0000       0.437408        11.9025 
 110   0.0000       0.442176        12.0322 
 111   0.0000       0.443551        12.0696 
 112   0.0000       0.448453        12.2030 
 113   0.0000       0.453156        12.3310 
 114   0.0000       0.458710        12.4821 
 115   0.0000       0.464172        12.6307 
 116   0.0000       0.467268        12.7150 
 117   0.0000       0.473198        12.8764 
 118   0.0000       0.482046        13.1171 
 119   0.0000       0.485791        13.2191 
 120   0.0000       0.492421        13.3995 
 121   0.0000       0.497087        13.5264 
 122   0.0000       0.506892        13.7932 
 123   0.0000       0.511231        13.9113 
 124   0.0000       0.515447        14.0260 
 125   0.0000       0.518034        14.0964 
 126   0.0000       0.519915        14.1476 
 127   0.0000       0.528428        14.3793 
 128   0.0000       0.538313        14.6482 
 129   0.0000       0.546146        14.8614 
 130   0.0000       0.549655        14.9569 
 131   0.0000       0.552688        15.0394 
 132   0.0000       0.561933        15.2910 
 133   0.0000       0.565863        15.3979 
 134   0.0000       0.572220        15.5709 
 135   0.0000       0.579162        15.7598 
 136   0.0000       0.583721        15.8839 
 137   0.0000       0.587683        15.9917 
 138   0.0000       0.590177        16.0595 
 139   0.0000       0.597599        16.2615 
 140   0.0000       0.611062        16.6279 
 141   0.0000       0.612332        16.6624 
 142   0.0000       0.618640        16.8341 
 143   0.0000       0.626602        17.0507 
 144   0.0000       0.627763        17.0823 
 145   0.0000       0.636327        17.3153 
 146   0.0000       0.638953        17.3868 
 147   0.0000       0.645196        17.5567 
 148   0.0000       0.655193        17.8287 
 149   0.0000       0.665825        18.1180 
 150   0.0000       0.670133        18.2352 
 151   0.0000       0.676741        18.4151 
 152   0.0000       0.681054        18.5324 
 153   0.0000       0.689346        18.7581 
 154   0.0000       0.696760        18.9598 
 155   0.0000       0.697329        18.9753 
 156   0.0000       0.707360        19.2483 
 157   0.0000       0.718263        19.5449 
 158   0.0000       0.731236        19.8979 
 159   0.0000       0.740506        20.1502 
 160   0.0000       0.747430        20.3386 
 161   0.0000       0.753970        20.5166 
 162   0.0000       0.758586        20.6422 
 163   0.0000       0.770940        20.9783 
 164   0.0000       0.777840        21.1661 
 165   0.0000       0.785145        21.3649 
 166   0.0000       0.799831        21.7645 
 167   0.0000       0.804889        21.9021 
 168   0.0000       0.806159        21.9367 
 169   0.0000       0.809196        22.0193 
 170   0.0000       0.829840        22.5811 
 171   0.0000       0.833383        22.6775 
 172   0.0000       0.848627        23.0923 
 173   0.0000       0.855105        23.2686 
 174   0.0000       0.859468        23.3873 
 175   0.0000       0.868705        23.6387 
 176   0.0000       0.873493        23.7689 
 177   0.0000       0.880714        23.9654 
 178   0.0000       0.884522        24.0691 
 179   0.0000       0.891278        24.2529 
 180   0.0000       0.901409        24.5286 
 181   0.0000       0.905953        24.6522 
 182   0.0000       0.916751        24.9461 
 183   0.0000       0.920618        25.0513 
 184   0.0000       0.924833        25.1660 
 185   0.0000       0.933266        25.3954 
 186   0.0000       0.941923        25.6310 
 187   0.0000       0.944204        25.6931 
 188   0.0000       0.954617        25.9764 
 189   0.0000       0.961463        26.1627 
 190   0.0000       0.965063        26.2607 
 191   0.0000       0.976474        26.5712 
 192   0.0000       0.978725        26.6325 
 193   0.0000       0.992488        27.0070 
 194   0.0000       0.995371        27.0854 
 195   0.0000       0.997619        27.1466 
 196   0.0000       1.014574        27.6080 
 197   0.0000       1.018246        27.7079 
 198   0.0000       1.026887        27.9430 
 199   0.0000       1.033318        28.1180 
 200   0.0000       1.039269        28.2799 
 201   0.0000       1.043137        28.3852 
 202   0.0000       1.051110        28.6022 
 203   0.0000       1.061557        28.8864 
 204   0.0000       1.064714        28.9723 
 205   0.0000       1.065694        28.9990 
 206   0.0000       1.073831        29.2204 
 207   0.0000       1.084265        29.5044 
 208   0.0000       1.087700        29.5978 
 209   0.0000       1.098305        29.8864 
 210   0.0000       1.104103        30.0442 
 211   0.0000       1.112402        30.2700 
 212   0.0000       1.120956        30.5028 
 213   0.0000       1.128227        30.7006 
 214   0.0000       1.132722        30.8229 
 215   0.0000       1.145297        31.1651 
 216   0.0000       1.155625        31.4462 
 217   0.0000       1.158092        31.5133 
 218   0.0000       1.161235        31.5988 
 219   0.0000       1.170660        31.8553 
 220   0.0000       1.178123        32.0584 
 221   0.0000       1.179292        32.0902 
 222   0.0000       1.187656        32.3178 
 223   0.0000       1.199724        32.6462 
 224   0.0000       1.210538        32.9404 
 225   0.0000       1.212984        33.0070 
 226   0.0000       1.225242        33.3405 
 227   0.0000       1.233405        33.5627 
 228   0.0000       1.238280        33.6953 
 229   0.0000       1.245752        33.8986 
 230   0.0000       1.248001        33.9598 
 231   0.0000       1.255710        34.1696 
 232   0.0000       1.262824        34.3632 
 233   0.0000       1.270611        34.5751 
 234   0.0000       1.274307        34.6757 
 235   0.0000       1.282195        34.8903 
 236   0.0000       1.288696        35.0672 
 237   0.0000       1.292425        35.1687 
 238   0.0000       1.302921        35.4543 
 239   0.0000       1.313305        35.7369 
 240   0.0000       1.321790        35.9677 
 241   0.0000       1.328261        36.1438 
 242   0.0000       1.335997        36.3543 
 243   0.0000       1.345450        36.6116 
 244   0.0000       1.349100        36.7109 
 245   0.0000       1.355032        36.8723 
 246   0.0000       1.362789        37.0834 
 247   0.0000       1.377412        37.4813 
 248   0.0000       1.378444        37.5094 
 249   0.0000       1.399732        38.0886 
 250   0.0000       1.406548        38.2741 
 251   0.0000       1.410045        38.3693 
 252   0.0000       1.417100        38.5612 
 253   0.0000       1.420001        38.6402 
 254   0.0000       1.425480        38.7893 
 255   0.0000       1.444686        39.3119 
 256   0.0000       1.461939        39.7814 
 257   0.0000       1.466220        39.8979 
 258   0.0000       1.485450        40.4211 
 259   0.0000       1.492586        40.6153 
 260   0.0000       1.498971        40.7891 
 261   0.0000       1.505721        40.9728 
 262   0.0000       1.511320        41.1251 
 263   0.0000       1.519449        41.3463 
 264   0.0000       1.526289        41.5324 
 265   0.0000       1.542912        41.9848 
 266   0.0000       1.548562        42.1385 
 267   0.0000       1.560340        42.4590 
 268   0.0000       1.562730        42.5240 
 269   0.0000       1.574409        42.8419 
 270   0.0000       1.580691        43.0128 
 271   0.0000       1.585121        43.1333 
 272   0.0000       1.591264        43.3005 
 273   0.0000       1.600299        43.5464 
 274   0.0000       1.603192        43.6251 
 275   0.0000       1.617328        44.0097 
 276   0.0000       1.621187        44.1147 
 277   0.0000       1.628439        44.3121 
 278   0.0000       1.634157        44.4677 
 279   0.0000       1.650008        44.8990 
 280   0.0000       1.654186        45.0127 
 281   0.0000       1.661729        45.2179 
 282   0.0000       1.670287        45.4508 
 283   0.0000       1.674774        45.5729 
 284   0.0000       1.683428        45.8084 
 285   0.0000       1.694998        46.1232 
 286   0.0000       1.713497        46.6266 
 287   0.0000       1.715294        46.6755 
 288   0.0000       1.725754        46.9602 
 289   0.0000       1.732615        47.1469 
 290   0.0000       1.744207        47.4623 
 291   0.0000       1.749925        47.6179 
 292   0.0000       1.764558        48.0161 
 293   0.0000       1.769138        48.1407 
 294   0.0000       1.777300        48.3628 
 295   0.0000       1.788119        48.6572 
 296   0.0000       1.795175        48.8492 
 297   0.0000       1.804707        49.1086 
 298   0.0000       1.815651        49.4064 
 299   0.0000       1.829500        49.7832 
 300   0.0000       1.839817        50.0640 
 301   0.0000       1.846944        50.2579 
 302   0.0000       1.852988        50.4224 
 303   0.0000       1.863628        50.7119 
 304   0.0000       1.873236        50.9733 
 305   0.0000       1.879205        51.1358 
 306   0.0000       1.893040        51.5122 
 307   0.0000       1.898700        51.6663 
 308   0.0000       1.904524        51.8247 
 309   0.0000       1.920514        52.2598 
 310   0.0000       1.925179        52.3868 
 311   0.0000       1.936349        52.6907 
 312   0.0000       1.954114        53.1742 
 313   0.0000       1.961286        53.3693 
 314   0.0000       1.974911        53.7401 
 315   0.0000       1.981199        53.9112 
 316   0.0000       1.991542        54.1926 
 317   0.0000       2.010528        54.7092 
 318   0.0000       2.017735        54.9054 
 319   0.0000       2.027088        55.1599 
 320   0.0000       2.037738        55.4497 
 321   0.0000       2.043388        55.6034 
 322   0.0000       2.047735        55.7217 
 323   0.0000       2.056499        55.9602 
 324   0.0000       2.061939        56.1082 
 325   0.0000       2.078451        56.5575 
 326   0.0000       2.088906        56.8420 
 327   0.0000       2.107429        57.3461 
 328   0.0000       2.116848        57.6024 
 329   0.0000       2.123872        57.7935 
 330   0.0000       2.127302        57.8868 
 331   0.0000       2.154790        58.6348 
 332   0.0000       2.159589        58.7654 
 333   0.0000       2.172042        59.1043 
 334   0.0000       2.178355        59.2761 
 335   0.0000       2.190629        59.6100 
 336   0.0000       2.197151        59.7875 
 337   0.0000       2.205257        60.0081 
 338   0.0000       2.209243        60.1165 
 339   0.0000       2.220221        60.4153 
 340   0.0000       2.238325        60.9079 
 341   0.0000       2.254379        61.3448 
 342   0.0000       2.261464        61.5376 
 343   0.0000       2.265059        61.6354 
 344   0.0000       2.286587        62.2212 
 345   0.0000       2.298575        62.5474 
 346   0.0000       2.323149        63.2161 
 347   0.0000       2.331715        63.4492 
 348   0.0000       2.342293        63.7370 
 349   0.0000       2.370697        64.5099 
 350   0.0000       2.381144        64.7942 
 351   0.0000       2.387127        64.9570 
 352   0.0000       2.393946        65.1426 
 353   0.0000       2.410627        65.5965 
 354   0.0000       2.413886        65.6852 
 355   0.0000       2.424782        65.9817 
 356   0.0000       2.438815        66.3635 
 357   0.0000       2.474021        67.3215 
 358   0.0000       2.480971        67.5106 
 359   0.0000       2.486310        67.6559 
 360   0.0000       2.492345        67.8202 
 361   0.0000       2.524309        68.6899 
 362   0.0000       2.533376        68.9367 
 363   0.0000       2.540468        69.1296 
 364   0.0000       2.552202        69.4489 
 365   0.0000       2.571528        69.9748 
 366   0.0000       2.584446        70.3263 
 367   0.0000       2.594284        70.5941 
 368   0.0000       2.598018        70.6957 
 369   0.0000       2.610375        71.0319 
 370   0.0000       2.625445        71.4420 
 371   0.0000       2.633601        71.6639 
 372   0.0000       2.652970        72.1910 
 373   0.0000       2.661536        72.4241 
 374   0.0000       2.685347        73.0720 
 375   0.0000       2.696062        73.3636 
 376   0.0000       2.714776        73.8728 
 377   0.0000       2.735992        74.4501 
 378   0.0000       2.762442        75.1699 
 379   0.0000       2.766336        75.2758 
 380   0.0000       2.794580        76.0444 
 381   0.0000       2.805212        76.3337 
 382   0.0000       2.830312        77.0167 
 383   0.0000       2.853069        77.6360 
 384   0.0000       2.879359        78.3513 
 385   0.0000       2.899515        78.8998 
 386   0.0000       2.936135        79.8963 
 387   0.0000       2.950054        80.2750 
 388   0.0000       2.968714        80.7828 
 389   0.0000       3.003215        81.7216 
 390   0.0000       3.026275        82.3491 
 391   0.0000       3.059272        83.2470 
 392   0.0000       3.080089        83.8135 
 393   0.0000       3.097410        84.2848 
 394   0.0000       3.143261        85.5325 
 395   0.0000       3.150099        85.7186 
 396   0.0000       3.159095        85.9633 
 397   0.0000       3.168537        86.2203 
 398   0.0000       3.208861        87.3176 
 399   0.0000       3.228457        87.8508 
 400   0.0000       3.263416        88.8021 
 401   0.0000       3.279549        89.2411 
 402   0.0000       3.307981        90.0147 
 403   0.0000       3.329626        90.6037 
 404   0.0000       3.347920        91.1015 
 405   0.0000       3.378664        91.9381 
 406   0.0000       3.384651        92.1010 
 407   0.0000       3.403416        92.6117 
 408   0.0000       3.428619        93.2975 
 409   0.0000       3.445293        93.7512 
 410   0.0000       3.452072        93.9357 
 411   0.0000       3.470907        94.4482 
 412   0.0000       3.478674        94.6595 
 413   0.0000       3.487935        94.9115 
 414   0.0000       3.514163        95.6252 
 415   0.0000       3.531062        96.0851 
 416   0.0000       3.544163        96.4416 
 417   0.0000       3.562117        96.9301 
 418   0.0000       3.578996        97.3894 
 419   0.0000       3.584025        97.5263 
 420   0.0000       3.593620        97.7874 
 421   0.0000       3.607679        98.1699 
 422   0.0000       3.615822        98.3915 
 423   0.0000       3.623004        98.5870 
 424   0.0000       3.641298        99.0848 
 425   0.0000       3.653484        99.4164 
 426   0.0000       3.673639        99.9648 
 427   0.0000       3.693955       100.5176 
 428   0.0000       3.700381       100.6925 
 429   0.0000       3.718060       101.1736 
 430   0.0000       3.726378       101.3999 
 431   0.0000       3.741566       101.8132 
 432   0.0000       3.758021       102.2610 
 433   0.0000       3.769575       102.5754 
 434   0.0000       3.775315       102.7316 
 435   0.0000       3.790960       103.1573 
 436   0.0000       3.809536       103.6627 
 437   0.0000       3.816824       103.8611 
 438   0.0000       3.825127       104.0870 
 439   0.0000       3.848388       104.7200 
 440   0.0000       3.868786       105.2750 
 441   0.0000       3.874399       105.4278 
 442   0.0000       3.885216       105.7221 
 443   0.0000       3.897132       106.0464 
 444   0.0000       3.908864       106.3656 
 445   0.0000       3.913377       106.4884 
 446   0.0000       3.918782       106.6355 
 447   0.0000       3.930332       106.9498 
 448   0.0000       3.949554       107.4728 
 449   0.0000       3.959497       107.7434 
 450   0.0000       3.978920       108.2719 
 451   0.0000       3.982200       108.3612 
 452   0.0000       3.993535       108.6696 
 453   0.0000       3.998903       108.8157 
 454   0.0000       4.018477       109.3483 
 455   0.0000       4.029774       109.6557 
 456   0.0000       4.041199       109.9666 
 457   0.0000       4.051658       110.2512 
 458   0.0000       4.066388       110.6520 
 459   0.0000       4.083494       111.1175 
 460   0.0000       4.088766       111.2610 
 461   0.0000       4.097809       111.5071 
 462   0.0000       4.120703       112.1300 
 463   0.0000       4.127436       112.3132 
 464   0.0000       4.145840       112.8140 
 465   0.0000       4.153703       113.0280 
 466   0.0000       4.165984       113.3622 
 467   0.0000       4.180156       113.7478 
 468   0.0000       4.191912       114.0677 
 469   0.0000       4.200322       114.2966 
 470   0.0000       4.226053       114.9967 
 471   0.0000       4.231054       115.1328 
 472   0.0000       4.249010       115.6214 
 473   0.0000       4.276807       116.3778 
 474   0.0000       4.282995       116.5462 
 475   0.0000       4.290270       116.7442 
 476   0.0000       4.306467       117.1849 
 477   0.0000       4.313078       117.3648 
 478   0.0000       4.321428       117.5920 
 479   0.0000       4.325099       117.6919 
 480   0.0000       4.345659       118.2514 
 481   0.0000       4.362966       118.7223 
 482   0.0000       4.374780       119.0438 
 483   0.0000       4.393388       119.5502 
 484   0.0000       4.410232       120.0085 
 485   0.0000       4.430601       120.5628 
 486   0.0000       4.444043       120.9286 
 487   0.0000       4.453676       121.1907 
 488   0.0000       4.464269       121.4789 
 489   0.0000       4.469895       121.6320 
 490   0.0000       4.489261       122.1590 
 491   0.0000       4.501640       122.4959 
 492   0.0000       4.516218       122.8925 
 493   0.0000       4.522018       123.0504 
 494   0.0000       4.552528       123.8806 
 495   0.0000       4.563672       124.1838 
 496   0.0000       4.571822       124.4056 
 497   0.0000       4.590277       124.9078 
 498   0.0000       4.604998       125.3084 
 499   0.0000       4.615070       125.5824 
 500   0.0000       4.625826       125.8751 
 501   0.0000       4.650145       126.5369 
 502   0.0000       4.660208       126.8107 
 503   0.0000       4.675205       127.2188 
 504   0.0000       4.686007       127.5127 
 505   0.0000       4.694695       127.7491 
 506   0.0000       4.711529       128.2072 
 507   0.0000       4.722420       128.5036 
 508   0.0000       4.748427       129.2113 
 509   0.0000       4.771403       129.8365 
 510   0.0000       4.778468       130.0287 
 511   0.0000       4.798350       130.5697 
 512   0.0000       4.821359       131.1958 
 513   0.0000       4.853088       132.0592 
 514   0.0000       4.854564       132.0994 
 515   0.0000       4.879829       132.7869 
 516   0.0000       4.901675       133.3814 
 517   0.0000       4.908056       133.5550 
 518   0.0000       4.918982       133.8523 
 519   0.0000       4.930867       134.1757 
 520   0.0000       4.939642       134.4145 
 521   0.0000       4.963709       135.0694 
 522   0.0000       4.979993       135.5125 
 523   0.0000       5.005951       136.2188 
 524   0.0000       5.016748       136.5127 
 525   0.0000       5.023924       136.7079 
 526   0.0000       5.043417       137.2384 
 527   0.0000       5.058753       137.6557 
 528   0.0000       5.071317       137.9976 
 529   0.0000       5.080118       138.2370 
 530   0.0000       5.096346       138.6786 
 531   0.0000       5.121579       139.3653 
 532   0.0000       5.143945       139.9739 
 533   0.0000       5.156020       140.3024 
 534   0.0000       5.164534       140.5341 
 535   0.0000       5.180148       140.9590 
 536   0.0000       5.189387       141.2104 
 537   0.0000       5.207181       141.6946 
 538   0.0000       5.215730       141.9272 
 539   0.0000       5.232407       142.3810 
 540   0.0000       5.247419       142.7895 
 541   0.0000       5.250501       142.8734 
 542   0.0000       5.269224       143.3829 
 543   0.0000       5.295890       144.1085 
 544   0.0000       5.315699       144.6475 
 545   0.0000       5.317754       144.7034 
 546   0.0000       5.346373       145.4822 
 547   0.0000       5.366691       146.0351 
 548   0.0000       5.373514       146.2207 
 549   0.0000       5.383490       146.4922 
 550   0.0000       5.443537       148.1262 
 551   0.0000       5.447089       148.2228 
 552   0.0000       5.458276       148.5272 
 553   0.0000       5.477341       149.0460 
 554   0.0000       5.494143       149.5032 
 555   0.0000       5.524124       150.3191 
 556   0.0000       5.550567       151.0386 
 557   0.0000       5.561177       151.3273 
 558   0.0000       5.567352       151.4953 
 559   0.0000       5.577494       151.7713 
 560   0.0000       5.591474       152.1517 
 561   0.0000       5.629163       153.1773 
 562   0.0000       5.632563       153.2698 
 563   0.0000       5.643680       153.5724 
 564   0.0000       5.655111       153.8834 
 565   0.0000       5.668823       154.2565 
 566   0.0000       5.697613       155.0399 
 567   0.0000       5.728992       155.8938 
 568   0.0000       5.735870       156.0810 
 569   0.0000       5.765479       156.8866 
 570   0.0000       5.775682       157.1643 
 571   0.0000       5.833262       158.7311 
 572   0.0000       5.842236       158.9753 
 573   0.0000       5.878967       159.9748 
 574   0.0000       5.908996       160.7919 
 575   0.0000       5.917742       161.0300 
 576   0.0000       5.940331       161.6446 
 577   0.0000       5.996524       163.1737 
 578   0.0000       6.002764       163.3435 
 579   0.0000       6.025779       163.9698 
 580   0.0000       6.039259       164.3366 
 581   0.0000       6.058440       164.8585 
 582   0.0000       6.072078       165.2296 
 583   0.0000       6.092148       165.7758 
 584   0.0000       6.134089       166.9170 
 585   0.0000       6.157298       167.5486 
 586   0.0000       6.189926       168.4364 
 587   0.0000       6.237413       169.7286 
 588   0.0000       6.269608       170.6047 
 589   0.0000       6.289549       171.1473 
 590   0.0000       6.318875       171.9453 
 591   0.0000       6.339832       172.5156 
 592   0.0000       6.413580       174.5224 
 593   0.0000       6.420750       174.7175 
 594   0.0000       6.481929       176.3823 
 595   0.0000       6.548258       178.1872 
 596   0.0000       6.567497       178.7107 
 597   0.0000       6.612516       179.9357 
 598   0.0000       6.676683       181.6818 
 599   0.0000       6.690920       182.0692 
 600   0.0000       6.703878       182.4218 
 601   0.0000       6.724202       182.9749 
 602   0.0000       6.760332       183.9580 
 603   0.0000       6.848332       186.3526 
 604   0.0000       6.903757       187.8608 
 605   0.0000       6.979250       189.9150 
 606   0.0000       6.990630       190.2247 
 607   0.0000       7.023977       191.1321 
 608   0.0000       7.048913       191.8107 
 609   0.0000       7.080752       192.6770 
 610   0.0000       7.201552       195.9642 
 611   0.0000       7.240055       197.0119 
 612   0.0000       7.344081       199.8426 
 613   0.0000       7.388921       201.0628 
 614   0.0000       7.453717       202.8260 
 615   0.0000       7.526634       204.8101 
 616   0.0000       7.579340       206.2443 
 617   0.0000       7.651654       208.2121 
 618   0.0000       7.718227       210.0236 
 619   0.0000       7.857975       213.8264 
 620   0.0000       7.877810       214.3661 
 621   0.0000       7.900513       214.9839 
 622   0.0000       8.035701       218.6625 
 623   0.0000       9.161606       249.3000 
 624   0.0000       9.185929       249.9618 
 625   0.0000       9.339214       254.1329 
 626   0.0000       9.353429       254.5198 
 627   0.0000       9.402046       255.8427 
 628   0.0000       9.518173       259.0027 
 629   0.0000       9.585074       260.8231 
 630   0.0000       9.640281       262.3254 
 631   0.0000       9.717600       264.4293 
 632   0.0000       9.766584       265.7623 
 633   0.0000      10.071598       274.0621 
 634   0.0000      10.270613       279.4776 
 635   0.0000      15.985321       434.9827 
 636   0.0000      16.445425       447.5028 
 637   0.0000      17.529169       476.9929 
 638   0.0000      18.347514       499.2612 
 639   0.0000      18.485526       503.0167 
 640   0.0000      19.092469       519.5325 
 641   0.0000      20.009962       544.4988 
 642   0.0000      20.164798       548.7120 
 643   0.0000      21.536583       586.0402 

                    ********************************
                    * MULLIKEN POPULATION ANALYSIS *
                    ********************************

-----------------------
MULLIKEN ATOMIC CHARGES
-----------------------
   0 C :    0.039449
   1 C :   -0.481701
   2 C :   -0.291626
   3 H :    0.332614
   4 H :    0.237376
   5 C :    0.734543
   6 C :    1.024980
   7 C :   -1.712443
   8 N :   -0.732348
   9 H :   -0.045841
  10 H :    0.334750
  11 H :    0.152671
  12 H :    0.509502
  13 H :    0.209856
  14 H :    0.286098
  15 O :   -0.821215
  16 F :   -0.237567
  17 H :    0.076690
  18 H :    0.384210
Sum of atomic charges:    0.0000000

--------------------------------
MULLIKEN REDUCED ORBITAL CHARGES
--------------------------------
  0 C s       :     2.803771  s :     2.803771
      pz      :     1.019250  p :     3.117652
      px      :     1.043668
      py      :     1.054734
      dz2     :     0.038948  d :     0.041751
      dxz     :     0.017531
      dyz     :     0.026618
      dx2y2   :     0.019082
      dxy     :    -0.060429
      f0      :     0.000012  f :    -0.002623
      f+1     :     0.000419
      f-1     :    -0.004681
      f+2     :    -0.004540
      f-2     :     0.001669
      f+3     :     0.000693
      f-3     :     0.003805
  1 C s       :     2.923296  s :     2.923296
      pz      :     1.223264  p :     3.356427
      px      :     1.121485
      py      :     1.011679
      dz2     :     0.053185  d :     0.195605
      dxz     :     0.061955
      dyz     :     0.015023
      dx2y2   :     0.027302
      dxy     :     0.038141
      f0      :     0.000960  f :     0.006373
      f+1     :     0.004750
      f-1     :    -0.000413
      f+2     :     0.000482
      f-2     :     0.000955
      f+3     :    -0.000300
      f-3     :    -0.000061
  2 C s       :     2.943497  s :     2.943497
      pz      :     1.052648  p :     3.183527
      px      :     1.062988
      py      :     1.067891
      dz2     :     0.025270  d :     0.168591
      dxz     :     0.037401
      dyz     :     0.028021
      dx2y2   :     0.022675
      dxy     :     0.055224
      f0      :    -0.004422  f :    -0.003989
      f+1     :    -0.002679
      f-1     :    -0.000652
      f+2     :     0.001108
      f-2     :    -0.000558
      f+3     :     0.006526
      f-3     :    -0.003312
  3 H s       :     0.613786  s :     0.613786
      pz      :     0.015369  p :     0.042993
      px      :     0.018309
      py      :     0.009314
      dz2     :     0.001488  d :     0.010608
      dxz     :     0.001051
      dyz     :     0.001949
      dx2y2   :     0.002269
      dxy     :     0.003850
  4 H s       :     0.657895  s :     0.657895
      pz      :     0.040049  p :     0.092419
      px      :     0.025632
      py      :     0.026738
      dz2     :     0.004249  d :     0.012310
      dxz     :     0.001349
      dyz     :     0.003652
      dx2y2   :    -0.000287
      dxy     :     0.003347
  5 C s       :     3.266639  s :     3.266639
      pz      :     0.756055  p :     1.756967
      px      :     0.489735
      py      :     0.511177
      dz2     :     0.018670  d :     0.191843
      dxz     :     0.084462
      dyz     :     0.033114
      dx2y2   :     0.028033
      dxy     :     0.027565
      f0      :     0.015651  f :     0.050009
      f+1     :     0.005985
      f-1     :     0.008013
      f+2     :     0.005388
      f-2     :     0.010670
      f+3     :     0.002772
      f-3     :     0.001529
  6 C s       :     3.270571  s :     3.270571
      pz      :     0.521455  p :     1.845154
      px      :     0.596080
      py      :     0.727619
      dz2     :    -0.039105  d :    -0.120082
      dxz     :    -0.060976
      dyz     :    -0.013839
      dx2y2   :    -0.026951
      dxy     :     0.020789
      f0      :    -0.004616  f :    -0.020624
      f+1     :    -0.002381
      f-1     :    -0.001025
      f+2     :    -0.006262
      f-2     :    -0.004282
      f+3     :    -0.002695
      f-3     :     0.000637
  7 C s       :     3.970793  s :     3.970793
      pz      :     1.135589  p :     3.673187
      px      :     1.301469
      py      :     1.236128
      dz2     :     0.028413  d :     0.067288
      dxz     :    -0.002530
      dyz     :     0.009827
      dx2y2   :     0.035128
      dxy     :    -0.003550
      f0      :    -0.000776  f :     0.001175
      f+1     :     0.000790
      f-1     :     0.000931
      f+2     :    -0.000080
      f-2     :    -0.001980
      f+3     :     0.001517
      f-3     :     0.000773
  8 N s       :     3.842804  s :     3.842804
      pz      :     1.290526  p :     3.808389
      px      :     0.962854
      py      :     1.555009
      dz2     :     0.015459  d :     0.077532
      dxz     :     0.032188
      dyz     :     0.014966
      dx2y2   :    -0.001979
      dxy     :     0.016899
      f0      :     0.000662  f :     0.003622
      f+1     :    -0.000455
      f-1     :     0.000488
      f+2     :     0.001578
      f-2     :     0.000192
      f+3     :     0.001065
      f-3     :     0.000093
  9 H s       :     0.924792  s :     0.924792
      pz      :     0.010408  p :     0.095673
      px      :     0.035406
      py      :     0.049859
      dz2     :     0.007712  d :     0.025375
      dxz     :     0.002076
      dyz     :     0.005291
      dx2y2   :     0.006357
      dxy     :     0.003940
 10 H s       :     0.650438  s :     0.650438
      pz      :    -0.037139  p :    -0.002052
      px      :     0.002021
      py      :     0.033066
      dz2     :     0.000715  d :     0.016864
      dxz     :     0.007022
      dyz     :    -0.003657
      dx2y2   :     0.007610
      dxy     :     0.005173
 11 H s       :     0.729766  s :     0.729766
      pz      :     0.011285  p :     0.113316
      px      :     0.055531
      py      :     0.046499
      dz2     :    -0.000740  d :     0.004247
      dxz     :     0.003924
      dyz     :     0.000158
      dx2y2   :    -0.001008
      dxy     :     0.001913
 12 H s       :     0.459694  s :     0.459694
      pz      :    -0.009321  p :     0.028388
      px      :     0.012932
      py      :     0.024778
      dz2     :    -0.000134  d :     0.002416
      dxz     :    -0.000188
      dyz     :    -0.000074
      dx2y2   :     0.001486
      dxy     :     0.001325
 13 H s       :     0.696484  s :     0.696484
      pz      :     0.021643  p :     0.082383
      px      :     0.037512
      py      :     0.023228
      dz2     :     0.003071  d :     0.011278
      dxz     :     0.000823
      dyz     :     0.001768
      dx2y2   :     0.001410
      dxy     :     0.004207
 14 H s       :     0.625514  s :     0.625514
      pz      :     0.019568  p :     0.077711
      px      :     0.027376
      py      :     0.030767
      dz2     :     0.002424  d :     0.010676
      dxz     :     0.002651
      dyz     :     0.001196
      dx2y2   :     0.001886
      dxy     :     0.002518
 15 O s       :     4.038515  s :     4.038515
      pz      :     1.448826  p :     4.711354
      px      :     1.696242
      py      :     1.566286
      dz2     :     0.014974  d :     0.065703
      dxz     :     0.019866
      dyz     :     0.019241
      dx2y2   :     0.006452
      dxy     :     0.005169
      f0      :     0.001192  f :     0.005643
      f+1     :     0.001403
      f-1     :     0.001072
      f+2     :     0.001241
      f-2     :     0.000662
      f+3     :     0.000011
      f-3     :     0.000061
 16 F s       :     3.905859  s :     3.905859
      pz      :     1.896550  p :     5.309313
      px      :     1.707908
      py      :     1.704855
      dz2     :     0.004533  d :     0.019281
      dxz     :     0.000523
      dyz     :     0.002293
      dx2y2   :     0.007741
      dxy     :     0.004191
      f0      :     0.000393  f :     0.003114
      f+1     :     0.000433
      f-1     :     0.000131
      f+2     :     0.000120
      f-2     :     0.000819
      f+3     :     0.000587
      f-3     :     0.000630
 17 H s       :     0.778873  s :     0.778873
      pz      :     0.045779  p :     0.134718
      px      :     0.027889
      py      :     0.061051
      dz2     :     0.002925  d :     0.009719
      dxz     :     0.000304
      dyz     :     0.003897
      dx2y2   :     0.002352
      dxy     :     0.000241
 18 H s       :     0.586933  s :     0.586933
      pz      :     0.008355  p :     0.017045
      px      :     0.002063
      py      :     0.006628
      dz2     :     0.000114  d :     0.011811
      dxz     :     0.004056
      dyz     :     0.001049
      dx2y2   :     0.005770
      dxy     :     0.000823


                     *******************************
                     * LOEWDIN POPULATION ANALYSIS *
                     *******************************

----------------------
LOEWDIN ATOMIC CHARGES
----------------------
   0 C :    0.296159
   1 C :    0.298288
   2 C :    0.286554
   3 H :   -0.155540
   4 H :   -0.163885
   5 C :   -0.839891
   6 C :   -0.305110
   7 C :    0.569757
   8 N :    0.851526
   9 H :   -0.241487
  10 H :   -0.610790
  11 H :   -0.296439
  12 H :   -0.290985
  13 H :   -0.144913
  14 H :   -0.128528
  15 O :    0.434928
  16 F :    0.736534
  17 H :   -0.157624
  18 H :   -0.138553

-------------------------------
LOEWDIN REDUCED ORBITAL CHARGES
-------------------------------
  0 C s       :     2.409079  s :     2.409079
      pz      :     0.737715  p :     2.202120
      px      :     0.740731
      py      :     0.723674
      dz2     :     0.167532  d :     0.761233
      dxz     :     0.143965
      dyz     :     0.143788
      dx2y2   :     0.125393
      dxy     :     0.180554
      f0      :     0.057049  f :     0.331409
      f+1     :     0.040701
      f-1     :     0.038891
      f+2     :     0.052053
      f-2     :     0.045226
      f+3     :     0.051455
      f-3     :     0.046035
  1 C s       :     2.416009  s :     2.416009
      pz      :     0.765310  p :     2.194801
      px      :     0.723299
      py      :     0.706192
      dz2     :     0.100657  d :     0.758607
      dxz     :     0.190278
      dyz     :     0.106888
      dx2y2   :     0.179305
      dxy     :     0.181479
      f0      :     0.040616  f :     0.332295
      f+1     :     0.027265
      f-1     :     0.027370
      f+2     :     0.040940
      f-2     :     0.051026
      f+3     :     0.082770
      f-3     :     0.062309
  2 C s       :     2.430966  s :     2.430966
      pz      :     0.738849  p :     2.234453
      px      :     0.732186
      py      :     0.763418
      dz2     :     0.149205  d :     0.729993
      dxz     :     0.217805
      dyz     :     0.080793
      dx2y2   :     0.147703
      dxy     :     0.134487
      f0      :     0.056858  f :     0.318034
      f+1     :     0.049095
      f-1     :     0.033876
      f+2     :     0.033393
      f-2     :     0.053803
      f+3     :     0.050300
      f-3     :     0.040711
  3 H s       :     0.625230  s :     0.625230
      pz      :     0.081150  p :     0.296101
      px      :     0.088661
      py      :     0.126290
      dz2     :     0.024166  d :     0.234209
      dxz     :     0.031995
      dyz     :     0.056920
      dx2y2   :     0.051635
      dxy     :     0.069492
  4 H s       :     0.620281  s :     0.620281
      pz      :     0.124104  p :     0.306352
      px      :     0.095219
      py      :     0.087028
      dz2     :     0.070589  d :     0.237252
      dxz     :     0.055293
      dyz     :     0.053671
      dx2y2   :     0.019045
      dxy     :     0.038653
  5 C s       :     2.493943  s :     2.493943
      pz      :     0.886917  p :     2.116050
      px      :     0.630669
      py      :     0.598465
      dz2     :     0.351283  d :     1.387563
      dxz     :     0.325371
      dyz     :     0.297589
      dx2y2   :     0.189375
      dxy     :     0.223945
      f0      :     0.195810  f :     0.842335
      f+1     :     0.129445
      f-1     :     0.121407
      f+2     :     0.070940
      f-2     :     0.146834
      f+3     :     0.095003
      f-3     :     0.082897
  6 C s       :     2.432270  s :     2.432270
[...]
--------------------------------

Orbital window:       9 to 34
Number of PAOs:     644
Basis functions:    644 (216 shells)
Aux. functions:    1414 (392 shells)
Use SHARK:           on

Processing maps (0.0 sec)
Average map sizes:
   Aux shells -> MOs              26.0
   Aux shells -> PAOs            644.0
   MOs        -> AO shells       215.5
   PAOs       -> AO shells       216.0

Calculating integrals (2.6 sec, 180.650 MB)
Sorting integrals (0.4 sec, 180.634 MB)
Total time for the integral transformation: 3.0 sec
--------------------------------
INITIAL GUESS AND PNO GENERATION
--------------------------------

PNO truncation parameters                   .... 
    ScaleTCutPNO       =        1.000e-02
    PAOOverlapThresh   =        1.000e-08

    TCutPairs          =        1.000e-05
    TCutPNO            =        1.000e-07
    TCutPNOSingles     =        3.000e-09
    TCutMP2Pairs       =        1.000e-06
    TCutMKN            =        1.000e-03
    TCutDO             =        5.000e-03

Pair selection                          .... not used
Type of local MP2 treatment                 .... full local PMP2
Strategy for PNO selection                  .... occupation number selection
Pair density normalization                  .... MP2 norm
Spin component scaling                      .... not used

PASS-1: Formation of initial guess LMP2 amplitudes
Initial amplitudes guess done. Entering LMP2 iteration loop:
   Max. no of iterations          ...  50
   Energy convergence tolerance   ...    1.0e-07
   Residual convergence tolerance ...    5.0e-07
   Fock matrix cutoff             ...    1.0e-05 Eh
   DIIS convergence acceleration parameters:
        Max # vectors in DIIS     ... 7
        Start iteration of DIIS   ... 0
        Levelshift                ... 2.000e-01
        Damping factor 1          ... 5.000e-01
        Damping factor 2          ... 1.000e+00
   L-MP2 PNO cut-off              ...   1.0e-09
   L-MP2 PNO cut-off (core)       ...   1.0e-11
                           *** Turning on DIIS ***
LMP2-Iter=   0:  ELMP2= -1.700801272108  DE=   3.8e-02 RMAX=   2.1e-02
LMP2-Iter=   1:  ELMP2= -1.719995664625  DE=   1.9e-02 RMAX=   9.2e-03
LMP2-Iter=   2:  ELMP2= -1.723644921453  DE=   3.6e-03 RMAX=   3.7e-03
LMP2-Iter=   3:  ELMP2= -1.724144289906  DE=   5.0e-04 RMAX=   1.3e-03
LMP2-Iter=   4:  ELMP2= -1.724140583638  DE=   3.7e-06 RMAX=   3.4e-04
LMP2-Iter=   5:  ELMP2= -1.724127200596  DE=   1.3e-05 RMAX=   6.5e-05
LMP2-Iter=   6:  ELMP2= -1.724125274707  DE=   1.9e-06 RMAX=   1.1e-05
LMP2-Iter=   7:  ELMP2= -1.724125752769  DE=   4.8e-07 RMAX=   3.2e-06
LMP2-Iter=   8:  ELMP2= -1.724125929773  DE=   1.8e-07 RMAX=   1.1e-06
LMP2-Iter=   9:  ELMP2= -1.724125920904  DE=   8.9e-09 RMAX=   2.1e-07
LMP2-Iter=  10:  ELMP2= -1.724125915023  DE=   5.9e-09 RMAX=   4.4e-08 => CONVERGED
PASS-2: Formation of Pair natural orbitals
   .... Finished loop over pairs

 PNO Occupation Number Statistics: 
  | Av. % of trace(Dij) retained        ...  98.940776210459
  | sigma^2 in % of trace(Dij) retained ...   1.70e+00
  | Av. % of trace(Di) retained         ...  99.999580286108
  | sigma^2 in % of trace(Di) retained  ...   1.18e-08
 Distributions of % trace(Dij) recovered:
  |       >= 99.9  ...    82 ( 23.4 % of all pairs)
  |   [90.0, 99.0) ...   121 ( 34.5 % of all pairs)
  |   [99.0, 99.9) ...   148 ( 42.2 % of all pairs)
 Distributions of % trace(Di) recovered :
  |       >= 99.9  ...    26 (100.0 % of all I-pairs )

Making pair pair interaction lists          ... done

                       ===========================
                        331 OF  351 PAIRS ARE KEPT
                       ===========================

Total time spent in the initial guess                 ...    65.628 sec
L-MP2 correlation energy (all non-screened pairs)     ...      -1.724125915023 Eh
L-MP2 PNO error correction                            ...      -0.000056136736 Eh
                                                          --------------------
Initial total L-MP2 energy (non-screened pairs)       ...      -1.724182051759 Eh

Initial PNO correlation energy                        ...      -1.722000142348 Eh
sum of pair energies estimated for screened out pairs ...       0.000000000000 Eh
sum of MP2 pair energies for pairs that were not kept ...      -0.000127795213 Eh
sum of PNO error estimates for the kept pairs         ...      -0.002097754457 Eh
                                                          --------------------
sum of all corrections                                         -0.002225549669
Initial total correlation energy                               -1.724225692018
Thresholds for map construction and integral transformation for fine MP2 and CCSD(T) calculation:
   TCutMKN   ...     1.0e-03
   TCutDO    ...     5.0e-03
   TCutPairs ...     1.0e-05
   TCutCMO   ...     1.0e-03
   TCutCPAO  ...     1.0e-03

Time for aux screen maps:            0.007
Time for maps after fine MP2:            0.033
-----------------------------
LOCAL RI TRANSFORMATION (IJV)
-----------------------------

Orbital window:       9 to 34
Basis functions:    644 (216 shells)
Aux. functions:    1414 (392 shells)
Use SHARK:           on

Processing maps (0.0 sec)
Average map sizes:
   Aux shells -> MOs(i)           26.0
   Aux shells -> MOs(j)           26.0
   MOs        -> AO shells       215.5

Calculating integrals (2.3 sec, 7.309 MB)
Sorting integrals (0.0 sec, 7.293 MB)
Total time for the integral transformation: 2.3 sec
--------------------------------
LOCAL RI TRANSFORMATION (VABPAO)
--------------------------------

Number of PAOs:     644
Basis functions:    644 (216 shells)
Aux. functions:    1414 (392 shells)
Use SHARK:           on

Processing maps (0.0 sec)
Average map sizes:
   Aux shells -> PAOs            644.0
   PAOs       -> AO shells       216.0

Calculating integrals (6.6 sec, 4474.173 MB)
Finished


-------------------------------------
Pair Pair Term precalculation with     
RI-(ij|mn) and (im|jn) transformation  
ON THE FLY                             
-------------------------------------

   IBatch   1 (of   1)              ... done (  339.887 sec)
Total EXT                           ...         339.887 sec

---------------------
RI-PNO TRANSFORMATION
---------------------

Total Number of PNOs                   ... 13273
Average number of PNOs per pair        ...    40
Maximal number of PNOs per pair        ...   105
   #pairs with  1 -  5 PNOs   :    0
   #pairs with  6 - 10 PNOs   :   31
   #pairs with 11 - 15 PNOs   :   41
   #pairs with 16 - 20 PNOs   :   22
   #pairs with 21 - 25 PNOs   :   20
   #pairs with 26 - 30 PNOs   :   24
   #pairs with 31 - 35 PNOs   :   20
   #pairs with 36 - 40 PNOs   :   20
   #pairs with 41 - 45 PNOs   :   14
   #pairs with 46 - 50 PNOs   :   16
   #pairs with 51 - 55 PNOs   :   23
   #pairs with 56 - 60 PNOs   :   30
   #pairs with 61 - 65 PNOs   :   15
   #pairs with 66 - 70 PNOs   :   12
   #pairs with 71 - 75 PNOs   :   12
   #pairs with 76 - 80 PNOs   :   20
   #pairs with 81 - 85 PNOs   :    5
   #pairs with 86 - 90 PNOs   :    3
   #pairs with 91 - 95 PNOs   :    2
   #pairs with > 96 PNOs      :    1

Generation of (ij|ab)[P] integrals            ... on
Generation of (ia|bc)[P],(ja|bc)[P] integrals ... on
Storage of 3 and 4 external integrals         ... on
Generation of ALL (ka|bc)[P] integrals        ... on
Keep RI integrals in memory                   ... off

Ibatch:  1 (of  1)
Starting 2-4 index PNO integral generation ... done

Timings:
Total PNO integral transformation time     ...        275.488 sec
Size of the 3-external file                ...       345 MB
Size of the 4-external file                ...      2968 MB
Size of the IKJL file                      ...         0 MB
Size of the all 3-external file            ...      4489 MB
Size of the 1-external file                ...         7 MB

Making pair/pair overlap matrices          ... done (   31.312 sec)
Size of the pair overlap file              ... 992 MB
Redoing the guess amplitudes               ... done (    0.016 sec)

-------------------------
FINAL STARTUP INFORMATION
-------------------------

E(0)                                       ...   -461.903571734
E(L-MP2)                                   ...     -1.724182052
E(L-MP2) including corrections             ...     -1.724225692
Initial E(tot)                             ...   -463.627797426
<T|T>                                      ...      0.427733996
Number of pairs included                   ... 331
Total number of pairs                      ... 351

------------------------------------------------
                  RHF COUPLED CLUSTER ITERATIONS
------------------------------------------------

Number of PNO amplitudes to be optimized   ...       714061
Number of non-PNO amplitudes               ...    122761611
Untruncated number of regular amplitudes   ...    130179231

Iter       E(tot)           E(Corr)          Delta-E          Residual     Time
  0   -463.566354725     -1.660557441      0.063624611      0.020531312   37.97
                           *** Turning on DIIS ***
  1   -463.616407730     -1.710610446     -0.050053005      0.013603177   36.79
  2   -463.656464257     -1.750666973     -0.040056527      0.006948896   35.75
  3   -463.664986396     -1.759189112     -0.008522139      0.004056125   38.99
  4   -463.667579041     -1.761781757     -0.002592645      0.002024200   44.76
  5   -463.668422075     -1.762624791     -0.000843034      0.000773848   44.45
  6   -463.668609217     -1.762811934     -0.000187142      0.000322082   44.46
  7   -463.668637631     -1.762840347     -0.000028413      0.000153590   44.40
  8   -463.668647776     -1.762850492     -0.000010145      0.000069524   44.43
  9   -463.668634451     -1.762837167      0.000013325      0.000029962   44.31
 10   -463.668638079     -1.762840796     -0.000003628      0.000014216   45.08
 11   -463.668636621     -1.762839337      0.000001458      0.000006776   40.41
               --- The Coupled-Cluster iterations have converged ---

----------------------
COUPLED CLUSTER ENERGY
----------------------

E(0)                                       ...   -461.903571734
E(CORR)(strong-pairs)                      ...     -1.762839337
E(CORR)(weak-pairs)                        ...     -0.002225550
E(CORR)(corrected)                         ...     -1.765064887
E(TOT)                                     ...   -463.668636621
Singles Norm <S|S>**1/2                    ...      0.091626283  
T1 diagnostic                              ...      0.012706279  

------------------
LARGEST AMPLITUDES
------------------
  30-> 35  30-> 35       0.055610
  31-> 35  31-> 35       0.051721
  31-> 35  30-> 35       0.045093
  21-> 35  21-> 35       0.036142
  32-> 36  32-> 36       0.035782
  24-> 35  24-> 35       0.035213
  33-> 35  33-> 35       0.035178
  17-> 35  17-> 35       0.035088
  16-> 35  16-> 35       0.033473
  18-> 36  18-> 36       0.033374
  29-> 35  29-> 35       0.033244
  28-> 35  28-> 35       0.033071
  34-> 35  34-> 35       0.033062
  29-> 44  29-> 44       0.032774
  20-> 35  20-> 35       0.031741
  28-> 44  28-> 44       0.031018


-------------------------------------------
DLPNO BASED TRIPLES CORRECTION
-------------------------------------------

Singles multiplier          ...  1.000000
TCutTNO                     ... 1.000e-09
TCutMP2Pairs                ... 1.000e-06
TCutDOStrong                ... 1.000e-02
TCutMKNStrong               ... 1.000e-02
TCutDOWeak                  ... 2.000e-02
TCutMKNWeak                 ... 1.000e-01

Fragment selection                          .... not used
Number of Triples that are to be computed   ...      3140

 . . . . . . . . .
10% done  
20% done  
30% done  
40% done  
50% done  
60% done  
70% done  
80% done  
90% done               (   1994.853 sec)
Triples timings:
Total time for T0               ...  2060.786 sec
Total time for Iterative (T)    ...     0.000 sec
Total time of overall (T)       ...  2239.901 sec

Triples List generation         ...     0.000 sec
TNO generation                  ...    65.892 sec
Pair density generation         ...     0.016 sec
Look up tables                  ...     0.000 sec
Generating 3-index integrals    ...  1779.855 sec
  Make 4-ind.int. from 3-ind.int...    71.496 sec
  Projecting amplitudes (D + S) ...    86.119 sec
  Downprojecting integrals      ...     0.007 sec
  Energy contr. (sum over a,b,c)...    19.109 sec
Fitting ET(->0)                 ...     0.000 sec

Everything after 3-index        ...   214.999 sec

Timing details:
 TNO integrals                  ...  1821.029 sec
   Reading 3-index integrals    ...     4.521 sec
   Sorting integrals            ...   158.754 sec
       Sorting integrals 1      ...     0.004 sec
       Sorting integrals 2      ...   129.713 sec
       Sorting integrals 3      ...     3.827 sec
       Sorting integrals 4      ...     0.118 sec
       Sorting integrals 5      ...     1.191 sec
       Sorting integrals 6      ...    23.901 sec
   Calculating local VM**-1/2   ...     7.269 sec
   Orthogonal. integrals        ...     8.200 sec
   Multipl. 3-index integrals   ...  1642.285 sec
   All concerning IRIab (w/TNO) ...    30.440 sec

 Calculate W0/W1                ...    38.203 sec
 W 3-ext contribution           ...    17.297 sec
 W 3-int contribution           ...     6.294 sec
 Sorting W                      ...    14.107 sec

 V exchange contribution        ...     6.438 sec

 Timings for Triples without generation
     of 3-index integrals       ...   214.994 sec
       0 weak pairs             ...   206.383 sec
       1 weak pair              ...     8.610 sec
       2 weak pairs             ...     0.000 sec
       3 weak pairs             ...     0.000 sec
  Extra time for extrapolation  ...     0.000 sec

Number of Triples   (0, 1, 2, 3 weak pairs; overall):   2800     340       0       0  (  3140)
Number of Atoms     (0, 1, 2, 3 weak pairs; overall):   18.5    18.0     0.0     0.0  (    19)
Number of PAOs      (0, 1, 2, 3 weak pairs; overall):  630.1   621.3     0.0     0.0  (   644)
Number of AuxFcns   (0, 1, 2, 3 weak pairs; overall):  799.5   492.3     0.0     0.0  (  1414)
Number of TNOs      (0, 1, 2, 3 weak pairs         ):  102.7    67.3     0.0     0.0
Aver. Number of NTNO, Atoms, PAOs, AuxFcns / Triples:   3140    98.8    18.5   629.1   766.3

Triples Correction (T)                     ...     -0.073846908
Final correlation energy                   ...     -1.838911795
E(CCSD)                                    ...   -463.668636621
E(CCSD(T))                                 ...   -463.742483529



------------------------------------------------------------------------------- 
                                     TIMINGS                                   
------------------------------------------------------------------------------- 


Total execution time                   ...     3694.489 sec

Localization of occupied MO's          ...        1.619 sec (  0.0%)
Fock Matrix Formation                  ...       13.496 sec (  0.4%)
Global overlap, Fock, MKN matrices     ...        1.164 sec (  0.0%)
Differential overlap integrals         ...        2.000 sec (  0.1%)
Organizing maps                        ...        0.102 sec (  0.0%)
RI 3-index integral generations        ...       15.772 sec (  0.4%)
RI-PNO integral transformation         ...      837.141 sec ( 22.7%)
Initial Guess                          ...       78.673 sec (  2.1%)
DIIS Solver                            ...        5.659 sec (  0.2%)
State Vector Update                    ...        0.086 sec (  0.0%)
Sigma-vector construction              ...      500.791 sec ( 13.6%)
  <0|H|D>                              ...        0.002 sec (  0.0% of sigma)
  <D|H|D>(0-ext)                       ...        6.226 sec (  1.2% of sigma)
  <D|H|D>(2-ext Fock)                  ...        0.017 sec (  0.0% of sigma)
  <D|H|D>(2-ext)                       ...       78.351 sec ( 15.6% of sigma)
  <D|H|D>(4-ext)                       ...       63.330 sec ( 12.6% of sigma)
  <D|H|D>(4-ext-corr)                  ...      283.514 sec ( 56.6% of sigma)
  CCSD doubles correction              ...        0.391 sec (  0.1% of sigma)
  <S|H|S>                              ...        0.887 sec (  0.2% of sigma)
  <S|H|D>(1-ext)                       ...        0.637 sec (  0.1% of sigma)
  <D|H|S>(1-ext)                       ...        0.013 sec (  0.0% of sigma)
  <S|H|D>(3-ext)                       ...        0.903 sec (  0.2% of sigma)
  Fock-dressing                        ...       44.569 sec (  8.9% of sigma)
  Singles amplitudes                   ...        2.517 sec (  0.5% of sigma)
  (ik|jl)-dressing                     ...        4.794 sec (  1.0% of sigma)
  (ij|ab),(ia|jb)-dressing             ...        4.491 sec (  0.9% of sigma)
  Pair energies                        ...        0.022 sec (  0.0% of sigma)
Total Time for computing (T)           ...     2240.203 sec ( 60.6% of ALL)


Maximum memory used throughout the entire MDCI-calculation: 15323.5 MB

-------------------------   --------------------
FINAL SINGLE POINT ENERGY      -463.742483529128
-------------------------   --------------------


                            ***************************************
                            *     ORCA property calculations      *
                            ***************************************


  WARNING: The energy has been calculated at the MDCI level but the densities
           used in the property calculations are still SCF densities
           MDCI response densities have not been calculated 
           use %mdci Density linearized end
           or  %mdci Density unrelaxed end
           or  %mdci Density orbopt end

                                    ---------------------
                                    Active property flags
                                    ---------------------
   (+) Dipole Moment


------------------------------------------------------------------------------
                       ORCA ELECTRIC PROPERTIES CALCULATION
------------------------------------------------------------------------------

Dipole Moment Calculation                       ... on
Quadrupole Moment Calculation                   ... off
Polarizability Calculation                      ... off
GBWName                                         ... D3_dlpno.gbw
Electron density file                           ... D3_dlpno.scfp
The origin for moment calculation is the CENTER OF MASS  = ( 8.441087,  4.543744 -6.535848)

-------------
DIPOLE MOMENT
-------------
                                X             Y             Z
Electronic contribution:      7.41763      -3.59995       7.96760
Nuclear contribution   :     -7.21688       3.18902      -8.52197
                        -----------------------------------------
Total Dipole Moment    :      0.20075      -0.41093      -0.55437
                        -----------------------------------------
Magnitude (a.u.)       :      0.71867
Magnitude (Debye)      :      1.82672



--------------------
Rotational spectrum 
--------------------
 
Rotational constants in cm-1:     0.103917     0.036987     0.030872 
Rotational constants in MHz :  3115.342573  1108.839114   925.506342 

 Dipole components along the rotational axes: 
x,y,z [a.u.] :    -0.115338    -0.078086     0.705048 
x,y,z [Debye]:    -0.293167    -0.198479     1.792088 

 

Timings for individual modules:

Sum of individual times         ...     3792.043 sec (=  63.201 min)
GTO integral calculation        ...        2.475 sec (=   0.041 min)   0.1 %
SCF iterations                  ...       93.502 sec (=   1.558 min)   2.5 %
MDCI module                     ...     3696.066 sec (=  61.601 min)  97.5 %
                             ****ORCA TERMINATED NORMALLY****
TOTAL RUN TIME: 0 days 1 hours 3 minutes 13 seconds 144 msec
