
                                        *****************
                                        * O   R   C   A *
                                        *****************

                                            #,                                       
                                            ###                                      
                                            ####                                     
                                            #####                                    
                                            ######                                   
                                           ########,                                 
                                     ,,################,,,,,                         
                               ,,#################################,,                 
                          ,,##########################################,,             
                       ,#########################################, ''#####,          
                    ,#############################################,,   '####,        
                  ,##################################################,,,,####,       
                ,###########''''           ''''###############################       
              ,#####''   ,,,,##########,,,,          '''####'''          '####       
            ,##' ,,,,###########################,,,                        '##       
           ' ,,###''''                  '''############,,,                           
         ,,##''                                '''############,,,,        ,,,,,,###''
      ,#''                                            '''#######################'''  
     '                                                          ''''####''''         
             ,#######,   #######,   ,#######,      ##                                
            ,#'     '#,  ##    ##  ,#'     '#,    #''#        ######   ,####,        
            ##       ##  ##   ,#'  ##            #'  '#       #        #'  '#        
            ##       ##  #######   ##           ,######,      #####,   #    #        
            '#,     ,#'  ##    ##  '#,     ,#' ,#      #,         ##   #,  ,#        
             '#######'   ##     ##  '#######'  #'      '#     #####' # '####'        



                  #######################################################
                  #                        -***-                        #
                  #          Department of theory and spectroscopy      #
                  #    Directorship and core code : Frank Neese         #
                  #        Max Planck Institute fuer Kohlenforschung    #
                  #                Kaiser Wilhelm Platz 1               #
                  #                 D-45470 Muelheim/Ruhr               #
                  #                      Germany                        #
                  #                                                     #
                  #                  All rights reserved                #
                  #                        -***-                        #
                  #######################################################


                         Program Version 5.0.0 -  RELEASE  -
                                (SVN: $Rev: 19529$)
                ($Date: 2021-06-28 11:36:33 +0200 (Mo, 28 Jun 2021) $)


 With contributions from (in alphabetic order):
   Daniel Aravena         : Magnetic Suceptibility
   Michael Atanasov       : Ab Initio Ligand Field Theory (pilot matlab implementation)
   Alexander A. Auer      : GIAO ZORA, VPT2 properties, NMR spectrum
   Ute Becker             : Parallelization
   Giovanni Bistoni       : ED, misc. LED, open-shell LED, HFLD
   Martin Brehm           : Molecular dynamics
   Dmytro Bykov           : SCF Hessian
   Vijay G. Chilkuri      : MRCI spin determinant printing, contributions to CSF-ICE
   Dipayan Datta          : RHF DLPNO-CCSD density
   Achintya Kumar Dutta   : EOM-CC, STEOM-CC
   Dmitry Ganyushin       : Spin-Orbit,Spin-Spin,Magnetic field MRCI
   Miquel Garcia          : C-PCM Hessian, Gaussian charge scheme
   Yang Guo               : DLPNO-NEVPT2, F12-NEVPT2, CIM, IAO-localization
   Andreas Hansen         : Spin unrestricted coupled pair/coupled cluster methods
   Benjamin Helmich-Paris : MC-RPA, TRAH-SCF, COSX integrals
   Lee Huntington         : MR-EOM, pCC
   Robert Izsak           : Overlap fitted RIJCOSX, COSX-SCS-MP3, EOM
   Marcus Kettner         : VPT2
   Christian Kollmar      : KDIIS, OOCD, Brueckner-CCSD(T), CCSD density, CASPT2, CASPT2-K
   Simone Kossmann        : Meta GGA functionals, TD-DFT gradient, OOMP2, MP2 Hessian
   Martin Krupicka        : Initial AUTO-CI
   Lucas Lang             : DCDCAS
   Marvin Lechner         : AUTO-CI (C++ implementation), FIC-MRCC
   Dagmar Lenk            : GEPOL surface, SMD
   Dimitrios Liakos       : Extrapolation schemes; Compound Job, initial MDCI parallelization
   Dimitrios Manganas     : Further ROCIS development; embedding schemes
   Dimitrios Pantazis     : SARC Basis sets
   Anastasios Papadopoulos: AUTO-CI, single reference methods and gradients
   Taras Petrenko         : DFT Hessian,TD-DFT gradient, ASA, ECA, R-Raman, ABS, FL, XAS/XES, NRVS
   Peter Pinski           : DLPNO-MP2, DLPNO-MP2 Gradient
   Christoph Reimann      : Effective Core Potentials
   Marius Retegan         : Local ZFS, SOC
   Christoph Riplinger    : Optimizer, TS searches, QM/MM, DLPNO-CCSD(T), (RO)-DLPNO pert. Triples
   Tobias Risthaus        : Range-separated hybrids, TD-DFT gradient, RPA, STAB
   Michael Roemelt        : Original ROCIS implementation
   Masaaki Saitow         : Open-shell DLPNO-CCSD energy and density
   Barbara Sandhoefer     : DKH picture change effects
   Avijit Sen             : IP-ROCIS
   Kantharuban Sivalingam : CASSCF convergence, NEVPT2, FIC-MRCI
   Bernardo de Souza      : ESD, SOC TD-DFT
   Georgi Stoychev        : AutoAux, RI-MP2 NMR
   Willem Van den Heuvel  : Paramagnetic NMR
   Boris Wezisla          : Elementary symmetry handling
   Frank Wennmohs         : Technical directorship


 We gratefully acknowledge several colleagues who have allowed us to
 interface, adapt or use parts of their codes:
   Stefan Grimme, W. Hujo, H. Kruse, P. Pracht,  : VdW corrections, initial TS optimization,
                  C. Bannwarth, S. Ehlert          DFT functionals, gCP, sTDA/sTD-DF
   Ed Valeev, F. Pavosevic, A. Kumar             : LibInt (2-el integral package), F12 methods
   Garnet Chan, S. Sharma, J. Yang, R. Olivares  : DMRG
   Ulf Ekstrom                                   : XCFun DFT Library
   Mihaly Kallay                                 : mrcc  (arbitrary order and MRCC methods)
   Jiri Pittner, Ondrej Demel                    : Mk-CCSD
   Frank Weinhold                                : gennbo (NPA and NBO analysis)
   Christopher J. Cramer and Donald G. Truhlar   : smd solvation model
   Lars Goerigk                                  : TD-DFT with DH, B97 family of functionals
   V. Asgeirsson, H. Jonsson                     : NEB implementation
   FAccTs GmbH                                   : IRC, NEB, NEB-TS, DLPNO-Multilevel, CI-OPT
                                                   MM, QMMM, 2- and 3-layer-ONIOM, Crystal-QMMM,
                                                   LR-CPCM, SF, NACMEs, symmetry and pop. for TD-DFT,
                                                   nearIR, NL-DFT gradient (VV10), updates on ESD,
                                                   ML-optimized integration grids
   S Lehtola, MJT Oliveira, MAL Marques          : LibXC Library
   Liviu Ungur et al                             : ANISO software


 Your calculation uses the libint2 library for the computation of 2-el integrals
 For citations please refer to: http://libint.valeyev.net

 Your ORCA version has been built with support for libXC version: 5.1.0
 For citations please refer to: https://tddft.org/programs/libxc/

 This ORCA versions uses:
   CBLAS   interface :  Fast vector & matrix operations
   LAPACKE interface :  Fast linear algebra routines
   SCALAPACK package :  Parallel linear algebra routines
   Shared memory     :  Shared parallel matrices
   BLAS/LAPACK       :  OpenBLAS 0.3.15  USE64BITINT DYNAMIC_ARCH NO_AFFINITY Haswell SINGLE_THREADED
        Core in use  :  Haswell
   Copyright (c) 2011-2014, The OpenBLAS Project


Your calculation utilizes the atom-pairwise dispersion correction
with the zero-damping scheme (D30)
Cite in your paper:
S.Grimme, J.Antony, S.Ehrlich and H.Krieg, J.Chem.Phys., 132, (2010), 154104 
   

XCFun DFT library Copyright 2009-2010 Ulf Ekstrom and contributors.
See http://admol.org/xcfun for more information.
This is free software; see the source code for copying conditions.
There is ABSOLUTELY NO WARRANTY; not even for MERCHANTABILITY or FITNESS FOR A PARTICULAR PURPOSE.
For details see the documentation.
Scientific users of this library should cite U. Ekstrom, L. Visscher, R. Bast, A. J. Thorvaldsen and K. Ruud;
J.Chem.Theor.Comp. 2010, DOI: 10.1021/ct100117s
XCFun Version 0.99 

================================================================================

----- Orbital basis set information -----
Your calculation utilizes the basis: def2-TZVP
   F. Weigend and R. Ahlrichs, Phys. Chem. Chem. Phys. 7, 3297 (2005).

----- AuxJ basis set information -----
Your calculation utilizes the auxiliary basis: def2/J
   F. Weigend, Phys. Chem. Chem. Phys. 8, 1057 (2006).

================================================================================
                                        WARNINGS
                       Please study these warnings very carefully!
================================================================================


WARNING: Minnesota functionals are quite sensitive to the integration grid.
         see SE Wheeler, KN Houk, JCTC 2010, 6, 395,
             N Mardirossian, M Head-Gordon, JCTC 2016, 12, 4303.
         DEFGRID3 seems to be a minimum grid for reliable results with these functionals!
  ===> : Please increase the integration grid!


INFO   : the flag for use of the SHARK integral package has been found!

================================================================================
                                       INPUT FILE
================================================================================
NAME = TZVP_M062X_C2_wt_dlpno_neg.com
|  1> !M062X D3Zero RIJCOSX def2-TZVP def2/J TightSCF
|  2> *xyz 0 1
|  3> C          2.49556        1.81615       -2.13636
|  4> C          1.87218        0.42790       -2.07750
|  5> H          2.61427       -0.36583       -2.19889
|  6> H          1.38995        0.27309       -1.11236
|  7> S          0.57902        0.14047       -3.29794
|  8> O          0.22886       -1.24687       -3.12787
|  9> F         -0.43927        1.11897       -3.01455
| 10> O          1.24788        0.40347       -4.59565
| 11> H          2.96535        1.95613       -3.08747
| 12> H          3.22581        1.91242       -1.36024
| 13> H          1.73350        2.55528       -2.00274
| 14> *
| 15> 
| 16> %MaxCore 64000
| 17> 
| 18> %pal nprocs 4
| 19> end  
| 20> 
| 21> %scf
| 22>   MaxIter 150
| 23> end
| 24> 
| 25> 
| 26>                          ****END OF INPUT****
================================================================================

                       ****************************
                       * Single Point Calculation *
                       ****************************

---------------------------------
CARTESIAN COORDINATES (ANGSTROEM)
---------------------------------
  C      2.495560    1.816150   -2.136360
  C      1.872180    0.427900   -2.077500
  H      2.614270   -0.365830   -2.198890
  H      1.389950    0.273090   -1.112360
  S      0.579020    0.140470   -3.297940
  O      0.228860   -1.246870   -3.127870
  F     -0.439270    1.118970   -3.014550
  O      1.247880    0.403470   -4.595650
  H      2.965350    1.956130   -3.087470
  H      3.225810    1.912420   -1.360240
  H      1.733500    2.555280   -2.002740

----------------------------
CARTESIAN COORDINATES (A.U.)
----------------------------
  NO LB      ZA    FRAG     MASS         X           Y           Z
   0 C     6.0000    0    12.011    4.715925    3.432026   -4.037135
   1 C     6.0000    0    12.011    3.537907    0.808614   -3.925906
   2 H     1.0000    0     1.008    4.940254   -0.691319   -4.155300
   3 H     1.0000    0     1.008    2.626625    0.516065   -2.102056
   4 S    16.0000    0    32.060    1.094189    0.265450   -6.232203
   5 O     8.0000    0    15.999    0.432483   -2.356243   -5.910818
   6 F     9.0000    0    18.998   -0.830100    2.114547   -5.696674
   7 O     8.0000    0    15.999    2.358151    0.762448   -8.684520
   8 H     1.0000    0     1.008    5.603699    3.696550   -5.834473
   9 H     1.0000    0     1.008    6.095897    3.613950   -2.570481
  10 H     1.0000    0     1.008    3.275840    4.828779   -3.784630

--------------------------------
INTERNAL COORDINATES (ANGSTROEM)
--------------------------------
 C      0   0   0     0.000000000000     0.00000000     0.00000000
 C      1   0   0     1.522926520388     0.00000000     0.00000000
 H      2   1   0     1.093361977160   112.31154333     0.00000000
 H      2   1   3     1.089957397608   110.16934889   119.40652228
 S      2   1   3     1.801208645355   114.40296888   237.46816637
 O      5   2   1     1.440919187914   104.36734258   175.27794274
 F      5   2   1     1.440377265233   105.41688411   299.48593912
 O      5   2   1     1.483439902288   103.92992138    57.15078243
 H      1   2   3     1.070003400275   109.47078833    60.59400396
 H      1   2   3     1.069997770932   109.47165530   300.59389070
 H      1   2   3     1.070001357429   109.47127925   180.59358257

---------------------------
INTERNAL COORDINATES (A.U.)
---------------------------
 C      0   0   0     0.000000000000     0.00000000     0.00000000
 C      1   0   0     2.877914045618     0.00000000     0.00000000
 H      2   1   0     2.066154702076   112.31154333     0.00000000
 H      2   1   3     2.059720979120   110.16934889   119.40652228
 S      2   1   3     3.403791049771   114.40296888   237.46816637
 O      5   2   1     2.722942646270   104.36734258   175.27794274
 F      5   2   1     2.721918560817   105.41688411   299.48593912
 O      5   2   1     2.803295151455   103.92992138    57.15078243
 H      1   2   3     2.022013388884   109.47078833    60.59400396
 H      1   2   3     2.022002750968   109.47165530   300.59389070
 H      1   2   3     2.022009528465   109.47127925   180.59358257

---------------------
BASIS SET INFORMATION
---------------------
There are 5 groups of distinct atoms

 Group   1 Type C   : 11s6p2d1f contracted to 5s3p2d1f pattern {62111/411/11/1}
 Group   2 Type H   : 5s1p contracted to 3s1p pattern {311/1}
 Group   3 Type S   : 14s9p3d1f contracted to 5s5p2d1f pattern {73211/51111/21/1}
 Group   4 Type O   : 11s6p2d1f contracted to 5s3p2d1f pattern {62111/411/11/1}
 Group   5 Type F   : 11s6p2d1f contracted to 5s3p2d1f pattern {62111/411/11/1}

Atom   0C    basis set group =>   1
Atom   1C    basis set group =>   1
Atom   2H    basis set group =>   2
Atom   3H    basis set group =>   2
Atom   4S    basis set group =>   3
Atom   5O    basis set group =>   4
Atom   6F    basis set group =>   5
Atom   7O    basis set group =>   4
Atom   8H    basis set group =>   2
Atom   9H    basis set group =>   2
Atom  10H    basis set group =>   2
---------------------------------
AUXILIARY/J BASIS SET INFORMATION
---------------------------------
There are 5 groups of distinct atoms

 Group   1 Type C   : 12s5p4d2f1g contracted to 6s4p3d1f1g pattern {711111/2111/211/2/1}
 Group   2 Type H   : 5s2p1d contracted to 3s1p1d pattern {311/2/1}
 Group   3 Type S   : 14s5p5d2f1g contracted to 8s4p3d1f1g pattern {71111111/2111/311/2/1}
 Group   4 Type O   : 12s5p4d2f1g contracted to 6s4p3d1f1g pattern {711111/2111/211/2/1}
 Group   5 Type F   : 12s5p4d2f1g contracted to 6s4p3d1f1g pattern {711111/2111/211/2/1}

Atom   0C    basis set group =>   1
Atom   1C    basis set group =>   1
Atom   2H    basis set group =>   2
Atom   3H    basis set group =>   2
Atom   4S    basis set group =>   3
Atom   5O    basis set group =>   4
Atom   6F    basis set group =>   5
Atom   7O    basis set group =>   4
Atom   8H    basis set group =>   2
Atom   9H    basis set group =>   2
Atom  10H    basis set group =>   2


           ************************************************************
           *        Program running with 4 parallel MPI-processes     *
           *              working on a common directory               *
           ************************************************************
------------------------------------------------------------------------------
                           ORCA GTO INTEGRAL CALCULATION
                           -- RI-GTO INTEGRALS CHOSEN --
------------------------------------------------------------------------------
------------------------------------------------------------------------------
                   ___                                                        
                  /   \      - P O W E R E D   B Y -                         
                 /     \                                                     
                 |  |  |   _    _      __       _____    __    __             
                 |  |  |  | |  | |    /  \     |  _  \  |  |  /  |          
                  \  \/   | |  | |   /    \    | | | |  |  | /  /          
                 / \  \   | |__| |  /  /\  \   | |_| |  |  |/  /          
                |  |  |   |  __  | /  /__\  \  |    /   |      \           
                |  |  |   | |  | | |   __   |  |    \   |  |\   \          
                \     /   | |  | | |  |  |  |  | |\  \  |  | \   \       
                 \___/    |_|  |_| |__|  |__|  |_| \__\ |__|  \__/        
                                                                              
                      - O R C A' S   B I G   F R I E N D -                    
                                      &                                       
                       - I N T E G R A L  F E E D E R -                       
                                                                              
 v1 FN, 2020, v2 2021                                                         
------------------------------------------------------------------------------


Reading SHARK input file TZVP_M062X_C2_wt_dlpno_neg.SHARKINP.tmp ... ok
----------------------
SHARK INTEGRAL PACKAGE
----------------------

Number of atoms                             ...     11
Number of basis functions                   ...    222
Number of shells                            ...     88
Maximum angular momentum                    ...      3
Integral batch strategy                     ... SHARK/LIBINT Hybrid
RI-J (if used) integral strategy            ... SPLIT-RIJ (Revised 2003 algorithm where possible)
Printlevel                                  ...      1
Contraction scheme used                     ... SEGMENTED contraction
Coulomb Range Separation                    ... NOT USED
Exchange Range Separation                   ... NOT USED
Finite Nucleus Model                        ... NOT USED
Auxiliary Coulomb fitting basis             ... AVAILABLE
   # of basis functions in Aux-J            ...    351
   # of shells in Aux-J                     ...    117
   Maximum angular momentum in Aux-J        ...      4
Auxiliary J/K fitting basis                 ... NOT available
Auxiliary Correlation fitting basis         ... NOT available
Auxiliary 'external' fitting basis          ... NOT available
Integral threshold                          ...     2.500000e-11
Primitive cut-off                           ...     2.500000e-12
Primitive pair pre-selection threshold      ...     2.500000e-12

Calculating pre-screening integrals         ... done (  0.1 sec) Dimension = 88
Organizing shell pair data                  ... done (  0.0 sec)
Shell pair information
Total number of shell pairs                 ...      3916
Shell pairs after pre-screening             ...      3663
Total number of primitive shell pairs       ...     12564
Primitive shell pairs kept                  ...      8880
          la=0 lb=0:    924 shell pairs
          la=1 lb=0:   1059 shell pairs
          la=1 lb=1:    319 shell pairs
          la=2 lb=0:    499 shell pairs
          la=2 lb=1:    293 shell pairs
          la=2 lb=2:     77 shell pairs
          la=3 lb=0:    252 shell pairs
          la=3 lb=1:    147 shell pairs
          la=3 lb=2:     72 shell pairs
          la=3 lb=3:     21 shell pairs

Calculating one electron integrals          ... done (  0.0 sec)
Calculating RI/J V-Matrix + Cholesky decomp.... done (  0.0 sec)
Calculating Nuclear repulsion               ... done (  0.0 sec) ENN=    363.498430763624 Eh

SHARK setup successfully completed in   0.2 seconds

Maximum memory used throughout the entire GTOINT-calculation: 15.3 MB


           ************************************************************
           *        Program running with 4 parallel MPI-processes     *
           *              working on a common directory               *
           ************************************************************
-------------------------------------------------------------------------------
                                 ORCA SCF
-------------------------------------------------------------------------------

------------
SCF SETTINGS
------------
Hamiltonian:
 Density Functional     Method          .... DFT(GTOs)
 Exchange Functional    Exchange        .... M062X
 Correlation Functional Correlation     .... M062X
 Gradients option       PostSCFGGA      .... off
 Hybrid DFT is turned on
   Fraction HF Exchange ScalHFX         ....  0.540000
   Scaling of DF-GGA-X  ScalDFX         ....  0.460000
   Scaling of DF-GGA-C  ScalDFC         ....  1.000000
   Scaling of DF-LDA-C  ScalLDAC        ....  1.000000
   Perturbative correction              ....  0.000000
   Density functional embedding theory  .... OFF
 RI-approximation to the Coulomb term is turned on
   Number of AuxJ basis functions       .... 351
   RIJ-COSX (HFX calculated with COS-X)).... on


General Settings:
 Integral files         IntName         .... TZVP_M062X_C2_wt_dlpno_neg
 Hartree-Fock type      HFTyp           .... RHF
 Total Charge           Charge          ....    0
 Multiplicity           Mult            ....    1
 Number of Electrons    NEL             ....   58
 Basis Dimension        Dim             ....  222
 Nuclear Repulsion      ENuc            ....    363.4984307636 Eh

Convergence Acceleration:
 DIIS                   CNVDIIS         .... on
   Start iteration      DIISMaxIt       ....    12
   Startup error        DIISStart       ....  0.200000
   # of expansion vecs  DIISMaxEq       ....     5
   Bias factor          DIISBfac        ....   1.050
   Max. coefficient     DIISMaxC        ....  10.000
 Trust-Rad. Augm. Hess. CNVTRAH         .... auto
   Auto Start mean grad. ratio tolernc. ....  1.125000
   Auto Start start iteration           ....    20
   Auto Start num. interpolation iter.  ....    10
   Max. Number of Micro iterations      ....    16
   Max. Number of Macro iterations      .... Maxiter - #DIIS iter
   Number of Davidson start vectors     ....     2
   Converg. threshold I  (grad. norm)   ....   1.000e-05
   Converg. threshold II (energy diff.) ....   1.000e-08
   Grad. Scal. Fac. for Micro threshold ....   0.100
   Minimum threshold for Micro iter.    ....   0.010
   NR start threshold (gradient norm)   ....   0.001
   Initial trust radius                 ....   0.400
   Minimum AH scaling param. (alpha)    ....   1.000
   Maximum AH scaling param. (alpha)    .... 1000.000
   Orbital update algorithm             .... Taylor
   White noise on init. David. guess    .... on
   Maximum white noise                  ....   0.010
   Quad. conv. algorithm                .... NR
 SOSCF                  CNVSOSCF        .... on
   Start iteration      SOSCFMaxIt      ....   150
   Startup grad/error   SOSCFStart      ....  0.003300
 Level Shifting         CNVShift        .... on
   Level shift para.    LevelShift      ....    0.2500
   Turn off err/grad.   ShiftErr        ....    0.0010
 Zerner damping         CNVZerner       .... off
 Static damping         CNVDamp         .... on
   Fraction old density DampFac         ....    0.7000
   Max. Damping (<1)    DampMax         ....    0.9800
   Min. Damping (>=0)   DampMin         ....    0.0000
   Turn off err/grad.   DampErr         ....    0.1000
 Fernandez-Rico         CNVRico         .... off

SCF Procedure:
 Maximum # iterations   MaxIter         ....   150
 SCF integral mode      SCFMode         .... Direct
   Integral package                     .... SHARK and LIBINT hybrid scheme
 Reset frequency        DirectResetFreq ....    20
 Integral Threshold     Thresh          ....  2.500e-11 Eh
 Primitive CutOff       TCut            ....  2.500e-12 Eh

Convergence Tolerance:
 Convergence Check Mode ConvCheckMode   .... Total+1el-Energy
 Convergence forced     ConvForced      .... 0
 Energy Change          TolE            ....  1.000e-08 Eh
 1-El. energy change                    ....  1.000e-05 Eh
 Orbital Gradient       TolG            ....  1.000e-05
 Orbital Rotation angle TolX            ....  1.000e-05
 DIIS Error             TolErr          ....  5.000e-07


Diagonalization of the overlap matrix:
Smallest eigenvalue                        ... 4.526e-04
Time for diagonalization                   ...    0.013 sec
Threshold for overlap eigenvalues          ... 1.000e-08
Number of eigenvalues below threshold      ... 0
Time for construction of square roots      ...    0.008 sec
Total time needed                          ...    0.022 sec

Time for model grid setup =    0.071 sec

------------------------------
INITIAL GUESS: MODEL POTENTIAL
------------------------------
Loading Hartree-Fock densities                     ... done
Calculating cut-offs                               ... done
Initializing the effective Hamiltonian             ... done
Setting up the integral package (SHARK)            ... done
Starting the Coulomb interaction                   ... done (   0.1 sec)
Reading the grid                                   ... done
Mapping shells                                     ... done
Starting the XC term evaluation                    ... done (   0.1 sec)
  promolecular density results
     # of electrons  =     57.996161760
     EX              =    -63.056068636
     EC              =     -2.063656258
     EX+EC           =    -65.119724893
Transforming the Hamiltonian                       ... done (   0.0 sec)
Diagonalizing the Hamiltonian                      ... done (   0.0 sec)
Back transforming the eigenvectors                 ... done (   0.0 sec)
Now organizing SCF variables                       ... done
                      ------------------
                      INITIAL GUESS DONE (   0.2 sec)
                      ------------------
-------------------
DFT GRID GENERATION
-------------------

General Integration Accuracy     IntAcc      ... 4.388
Radial Grid Type                 RadialGrid  ... OptM3 with GC (2021)
Angular Grid (max. ang.)         AngularGrid ... 4 (Lebedev-302)
Angular grid pruning method      GridPruning ... 4 (adaptive)
Weight generation scheme         WeightScheme... Becke
Basis function cutoff            BFCut       ... 1.0000e-11
Integration weight cutoff        WCut        ... 1.0000e-14
Angular grids for H and He will be reduced by one unit
Partially contracted basis set               ... off
Rotationally invariant grid construction     ... off

Total number of grid points                  ...    53856
Total number of batches                      ...      846
Average number of points per batch           ...       63
Average number of grid points per atom       ...     4896
Time for grid setup =    0.355 sec

--------------------
COSX GRID GENERATION
--------------------

GRIDX 1
-------
General Integration Accuracy     IntAcc      ... 3.816
Radial Grid Type                 RadialGrid  ... OptM3 with GC (2021)
Angular Grid (max. ang.)         AngularGrid ... 1 (Lebedev-50)
Angular grid pruning method      GridPruning ... 4 (adaptive)
Weight generation scheme         WeightScheme... Becke
Basis function cutoff            BFCut       ... 1.0000e-11
Integration weight cutoff        WCut        ... 1.0000e-14
Angular grids for H and He will be reduced by one unit
Partially contracted basis set               ... on
Rotationally invariant grid construction     ... off

Total number of grid points                  ...     6790
Total number of batches                      ...      113
Average number of points per batch           ...       60
Average number of grid points per atom       ...      617
UseSFitting                                  ... on

GRIDX 2
-------
General Integration Accuracy     IntAcc      ... 4.020
Radial Grid Type                 RadialGrid  ... OptM3 with GC (2021)
Angular Grid (max. ang.)         AngularGrid ... 2 (Lebedev-110)
Angular grid pruning method      GridPruning ... 4 (adaptive)
Weight generation scheme         WeightScheme... Becke
Basis function cutoff            BFCut       ... 1.0000e-11
Integration weight cutoff        WCut        ... 1.0000e-14
Angular grids for H and He will be reduced by one unit
Partially contracted basis set               ... on
Rotationally invariant grid construction     ... off

Total number of grid points                  ...    14980
Total number of batches                      ...      240
Average number of points per batch           ...       62
Average number of grid points per atom       ...     1362
UseSFitting                                  ... on

GRIDX 3
-------
General Integration Accuracy     IntAcc      ... 4.338
Radial Grid Type                 RadialGrid  ... OptM3 with GC (2021)
Angular Grid (max. ang.)         AngularGrid ... 3 (Lebedev-194)
Angular grid pruning method      GridPruning ... 4 (adaptive)
Weight generation scheme         WeightScheme... Becke
Basis function cutoff            BFCut       ... 1.0000e-11
Integration weight cutoff        WCut        ... 1.0000e-14
Angular grids for H and He will be reduced by one unit
Partially contracted basis set               ... on
Rotationally invariant grid construction     ... off

Total number of grid points                  ...    33645
Total number of batches                      ...      532
Average number of points per batch           ...       63
Average number of grid points per atom       ...     3059
UseSFitting                                  ... on

Time for X-Grid setup             =    0.303 sec

--------------
SCF ITERATIONS
--------------
ITER       Energy         Delta-E        Max-DP      RMS-DP      [F,P]     Damp
               ***  Starting incremental Fock matrix formation  ***
  0   -727.3274261588   0.000000000000 0.11908464  0.00151590  0.3143978 0.7000
  1   -727.4873371466  -0.159910987802 0.05369737  0.00099213  0.1343477 0.7000
                               ***Turning on DIIS***
  2   -727.5473019276  -0.059964780983 0.04992336  0.00155273  0.0492726 0.0000
  3   -727.6509363127  -0.103634385148 0.05202474  0.00069780  0.0685179 0.0000
  4   -727.6690207581  -0.018084445383 0.00921252  0.00020013  0.0128315 0.0000
  5   -727.6697226115  -0.000701853397 0.00285802  0.00006603  0.0035120 0.0000
                      *** Initiating the SOSCF procedure ***
                           *** Shutting down DIIS ***
                      *** Re-Reading the Fockian *** 
                      *** Removing any level shift *** 
ITER      Energy       Delta-E        Grad      Rot      Max-DP    RMS-DP
  6   -727.66976980  -0.0000471853  0.000251  0.000251  0.001526  0.000036
               *** Restarting incremental Fock matrix formation ***
  7   -727.66976384   0.0000059538  0.000123  0.000261  0.000758  0.000014
  8   -727.66976409  -0.0000002427  0.000119  0.000089  0.000179  0.000005
  9   -727.66976487  -0.0000007810  0.000027  0.000046  0.000195  0.000002
 10   -727.66976488  -0.0000000106  0.000024  0.000014  0.000112  0.000001
 11   -727.66976491  -0.0000000328  0.000006  0.000004  0.000012  0.000000
 12   -727.66976491   0.0000000026  0.000005  0.000002  0.000006  0.000000
                  ***Gradient check signals convergence***
              ***Rediagonalizing the Fockian in SOSCF/NRSCF***

               *****************************************************
               *                     SUCCESS                       *
               *           SCF CONVERGED AFTER  13 CYCLES          *
               *****************************************************

Old exchange energy                            =    -34.488274211 Eh
New exchange energy                            =    -34.488378422 Eh
Exchange energy change after final integration =     -0.000104211 Eh
Total energy after final integration           =   -727.669869118 Eh
Final COS-X integration done in                =     2.606 sec

----------------
TOTAL SCF ENERGY
----------------

Total Energy       :         -727.66986912 Eh          -19800.90380 eV

Components:
Nuclear Repulsion  :          363.49843076 Eh            9891.29516 eV
Electronic Energy  :        -1091.16829988 Eh          -29692.19896 eV
One Electron Energy:        -1722.82354089 Eh          -46880.41190 eV
Two Electron Energy:          631.65524100 Eh           17188.21294 eV
Max COSX asymmetry :            0.00002168 Eh               0.00059 eV

Virial components:
Potential Energy   :        -1453.52795954 Eh          -39552.50659 eV
Kinetic Energy     :          725.85809042 Eh           19751.60279 eV
Virial Ratio       :            2.00249605


DFT components:
N(Alpha)           :       29.000008345774 electrons
N(Beta)            :       29.000008345774 electrons
N(Total)           :       58.000016691549 electrons
E(XC)              :      -31.638224481770 Eh       
DFET-embed. en.    :        0.000000000000 Eh       

---------------
SCF CONVERGENCE
---------------

  Last Energy change         ...    1.5291e-10  Tolerance :   1.0000e-08
  Last MAX-Density change    ...    2.2204e-15  Tolerance :   1.0000e-07
  Last RMS-Density change    ...    2.3691e-17  Tolerance :   5.0000e-09
  Last Orbital Gradient      ...    2.6790e-07  Tolerance :   1.0000e-05
  Last Orbital Rotation      ...    5.0503e-07  Tolerance :   1.0000e-05

             **** THE GBW FILE WAS UPDATED (TZVP_M062X_C2_wt_dlpno_neg.gbw) ****
             **** DENSITY TZVP_M062X_C2_wt_dlpno_neg.scfp WAS UPDATED ****
             **** ENERGY FILE WAS UPDATED (TZVP_M062X_C2_wt_dlpno_neg.en.tmp) ****
             **** THE GBW FILE WAS UPDATED (TZVP_M062X_C2_wt_dlpno_neg.gbw) ****
             **** DENSITY TZVP_M062X_C2_wt_dlpno_neg.scfp WAS UPDATED ****
----------------
ORBITAL ENERGIES
----------------

  NO   OCC          E(Eh)            E(eV) 
   0   2.0000     -90.151936     -2453.1589 
   1   2.0000     -25.371100      -690.3827 
   2   2.0000     -19.641708      -534.4780 
   3   2.0000     -19.627102      -534.0806 
   4   2.0000     -10.596109      -288.3348 
   5   2.0000     -10.554267      -287.1962 
   6   2.0000      -8.477153      -230.6751 
   7   2.0000      -6.402053      -174.2087 
   8   2.0000      -6.396945      -174.0697 
   9   2.0000      -6.396388      -174.0546 
  10   2.0000      -1.534547       -41.7572 
  11   2.0000      -1.229131       -33.4464 
  12   2.0000      -1.125844       -30.6358 
  13   2.0000      -0.923249       -25.1229 
  14   2.0000      -0.835704       -22.7407 
  15   2.0000      -0.769810       -20.9476 
  16   2.0000      -0.696605       -18.9556 
  17   2.0000      -0.690888       -18.8000 
  18   2.0000      -0.635665       -17.2973 
  19   2.0000      -0.567336       -15.4380 
  20   2.0000      -0.557560       -15.1720 
  21   2.0000      -0.531184       -14.4543 
  22   2.0000      -0.504561       -13.7298 
  23   2.0000      -0.477912       -13.0047 
  24   2.0000      -0.465899       -12.6778 
  25   2.0000      -0.448741       -12.2109 
  26   2.0000      -0.407486       -11.0882 
  27   2.0000      -0.389977       -10.6118 
  28   2.0000      -0.383609       -10.4385 
  29   0.0000       0.046867         1.2753 
  30   0.0000       0.083689         2.2773 
  31   0.0000       0.093151         2.5348 
  32   0.0000       0.100564         2.7365 
  33   0.0000       0.113683         3.0935 
  34   0.0000       0.120486         3.2786 
  35   0.0000       0.138609         3.7717 
  36   0.0000       0.152402         4.1471 
  37   0.0000       0.174099         4.7375 
  38   0.0000       0.196288         5.3413 
  39   0.0000       0.217122         5.9082 
  40   0.0000       0.238945         6.5020 
  41   0.0000       0.242588         6.6011 
  42   0.0000       0.289675         7.8825 
  43   0.0000       0.298104         8.1118 
  44   0.0000       0.305489         8.3128 
  45   0.0000       0.315863         8.5951 
  46   0.0000       0.332589         9.0502 
  47   0.0000       0.395823        10.7709 
  48   0.0000       0.407332        11.0841 
  49   0.0000       0.413105        11.2412 
  50   0.0000       0.418807        11.3963 
  51   0.0000       0.453119        12.3300 
  52   0.0000       0.464166        12.6306 
  53   0.0000       0.481557        13.1038 
  54   0.0000       0.493452        13.4275 
  55   0.0000       0.507385        13.8066 
  56   0.0000       0.522760        14.2250 
  57   0.0000       0.543409        14.7869 
  58   0.0000       0.543737        14.7958 
  59   0.0000       0.579180        15.7603 
  60   0.0000       0.591064        16.0837 
  61   0.0000       0.617058        16.7910 
  62   0.0000       0.626867        17.0579 
  63   0.0000       0.644653        17.5419 
  64   0.0000       0.651170        17.7192 
  65   0.0000       0.690320        18.7846 
  66   0.0000       0.739308        20.1176 
  67   0.0000       0.768677        20.9168 
  68   0.0000       0.780666        21.2430 
  69   0.0000       0.803479        21.8638 
  70   0.0000       0.840534        22.8721 
  71   0.0000       0.867268        23.5996 
  72   0.0000       0.896441        24.3934 
  73   0.0000       0.910589        24.7784 
  74   0.0000       0.926937        25.2232 
  75   0.0000       0.956237        26.0205 
  76   0.0000       0.995128        27.0788 
  77   0.0000       1.020227        27.7618 
  78   0.0000       1.077893        29.3310 
  79   0.0000       1.104886        30.0655 
  80   0.0000       1.110597        30.2209 
  81   0.0000       1.141319        31.0569 
  82   0.0000       1.204351        32.7720 
  83   0.0000       1.348229        36.6872 
  84   0.0000       1.375593        37.4318 
  85   0.0000       1.399220        38.0747 
  86   0.0000       1.449415        39.4406 
  87   0.0000       1.473656        40.1002 
  88   0.0000       1.497014        40.7358 
  89   0.0000       1.504046        40.9272 
  90   0.0000       1.526642        41.5420 
  91   0.0000       1.535909        41.7942 
  92   0.0000       1.573030        42.8043 
  93   0.0000       1.594087        43.3773 
  94   0.0000       1.599361        43.5208 
  95   0.0000       1.602144        43.5966 
  96   0.0000       1.622895        44.1612 
  97   0.0000       1.629194        44.3326 
  98   0.0000       1.669818        45.4381 
  99   0.0000       1.684421        45.8354 
 100   0.0000       1.704074        46.3702 
 101   0.0000       1.745065        47.4856 
 102   0.0000       1.787872        48.6505 
 103   0.0000       1.816691        49.4347 
 104   0.0000       1.846374        50.2424 
 105   0.0000       1.853064        50.4244 
 106   0.0000       1.885293        51.3014 
 107   0.0000       1.928201        52.4690 
 108   0.0000       1.954503        53.1847 
 109   0.0000       2.011348        54.7316 
 110   0.0000       2.036301        55.4106 
 111   0.0000       2.047812        55.7238 
 112   0.0000       2.108843        57.3845 
 113   0.0000       2.133875        58.0657 
 114   0.0000       2.193891        59.6988 
 115   0.0000       2.238795        60.9207 
 116   0.0000       2.260267        61.5050 
 117   0.0000       2.280507        62.0558 
 118   0.0000       2.321569        63.1731 
 119   0.0000       2.325845        63.2895 
 120   0.0000       2.348919        63.9173 
 121   0.0000       2.353774        64.0494 
 122   0.0000       2.366350        64.3917 
 123   0.0000       2.366921        64.4072 
 124   0.0000       2.405233        65.4497 
 125   0.0000       2.432035        66.1790 
 126   0.0000       2.450785        66.6893 
 127   0.0000       2.477182        67.4075 
 128   0.0000       2.497388        67.9574 
 129   0.0000       2.568360        69.8886 
 130   0.0000       2.592543        70.5467 
 131   0.0000       2.601578        70.7925 
 132   0.0000       2.620337        71.3030 
 133   0.0000       2.625836        71.4526 
 134   0.0000       2.668533        72.6145 
 135   0.0000       2.679239        72.9058 
 136   0.0000       2.730061        74.2887 
 137   0.0000       2.763071        75.1870 
 138   0.0000       2.791956        75.9730 
 139   0.0000       2.815289        76.6079 
 140   0.0000       2.890516        78.6549 
 141   0.0000       2.918528        79.4172 
 142   0.0000       2.944828        80.1328 
 143   0.0000       3.019811        82.1732 
 144   0.0000       3.028927        82.4213 
 145   0.0000       3.054933        83.1290 
 146   0.0000       3.066549        83.4451 
 147   0.0000       3.093740        84.1849 
 148   0.0000       3.109093        84.6027 
 149   0.0000       3.141298        85.4791 
 150   0.0000       3.170774        86.2811 
 151   0.0000       3.188984        86.7767 
 152   0.0000       3.251811        88.4863 
 153   0.0000       3.298149        89.7472 
 154   0.0000       3.334854        90.7460 
 155   0.0000       3.363202        91.5174 
 156   0.0000       3.396030        92.4107 
 157   0.0000       3.442467        93.6743 
 158   0.0000       3.463075        94.2351 
 159   0.0000       3.495930        95.1291 
 160   0.0000       3.533129        96.1413 
 161   0.0000       3.626133        98.6721 
 162   0.0000       3.713364       101.0458 
 163   0.0000       3.720035       101.2273 
 164   0.0000       3.805684       103.5579 
 165   0.0000       3.837425       104.4217 
 166   0.0000       3.859820       105.0310 
 167   0.0000       3.927263       106.8663 
 168   0.0000       3.957619       107.6923 
 169   0.0000       4.147407       112.8567 
 170   0.0000       4.224690       114.9597 
 171   0.0000       4.272667       116.2652 
 172   0.0000       4.411564       120.0448 
 173   0.0000       4.413667       120.1020 
 174   0.0000       4.519580       122.9840 
 175   0.0000       4.566457       124.2596 
 176   0.0000       4.687254       127.5467 
 177   0.0000       5.151759       140.1865 
 178   0.0000       5.153599       140.2366 
 179   0.0000       5.170091       140.6853 
 180   0.0000       5.171819       140.7323 
 181   0.0000       5.185850       141.1142 
 182   0.0000       5.205301       141.6434 
 183   0.0000       5.217299       141.9699 
 184   0.0000       5.330149       145.0407 
 185   0.0000       5.370812       146.1472 
 186   0.0000       5.443577       148.1273 
 187   0.0000       5.483545       149.2149 
 188   0.0000       5.541323       150.7871 
 189   0.0000       5.598210       152.3350 
 190   0.0000       5.666429       154.1914 
 191   0.0000       6.270605       170.6318 
 192   0.0000       6.318207       171.9271 
 193   0.0000       6.345157       172.6605 
 194   0.0000       6.378747       173.5745 
 195   0.0000       6.581276       179.0856 
 196   0.0000       6.650550       180.9707 
 197   0.0000       6.690870       182.0678 
 198   0.0000       6.783912       184.5996 
 199   0.0000       6.790922       184.7904 
 200   0.0000       6.800480       185.0505 
 201   0.0000       6.840738       186.1459 
 202   0.0000       6.850163       186.4024 
 203   0.0000       6.864110       186.7819 
 204   0.0000       6.905297       187.9027 
 205   0.0000       6.921982       188.3567 
 206   0.0000       6.978338       189.8902 
 207   0.0000       7.084085       192.7678 
 208   0.0000       8.256854       224.6804 
 209   0.0000       8.261317       224.8019 
 210   0.0000       8.610016       234.2904 
 211   0.0000       8.639727       235.0989 
 212   0.0000       8.708147       236.9607 
 213   0.0000       9.393046       255.5978 
 214   0.0000       9.583979       260.7933 
 215   0.0000       9.776430       266.0302 
 216   0.0000      22.224085       604.7481 
 217   0.0000      22.465322       611.3125 
 218   0.0000      22.596758       614.8890 
 219   0.0000      43.585097      1186.0108 
 220   0.0000      43.801417      1191.8971 
 221   0.0000      57.177076      1555.8673 

                    ********************************
                    * MULLIKEN POPULATION ANALYSIS *
                    ********************************

-----------------------
MULLIKEN ATOMIC CHARGES
-----------------------
   0 C :   -0.410238
   1 C :   -0.309367
   2 H :    0.188026
   3 H :    0.164738
   4 S :    0.929426
   5 O :   -0.436768
   6 F :   -0.107973
   7 O :   -0.482413
   8 H :    0.173036
   9 H :    0.148440
  10 H :    0.143092
Sum of atomic charges:   -0.0000000

--------------------------------
MULLIKEN REDUCED ORBITAL CHARGES
--------------------------------
  0 C s       :     3.295990  s :     3.295990
      pz      :     1.099095  p :     3.060736
      px      :     1.047746
      py      :     0.913895
      dz2     :     0.008480  d :     0.050359
      dxz     :     0.010800
      dyz     :     0.008993
      dx2y2   :     0.007545
      dxy     :     0.014540
      f0      :     0.000407  f :     0.003154
      f+1     :     0.000622
      f-1     :     0.000221
      f+2     :     0.000294
      f-2     :     0.000336
      f+3     :     0.000506
      f-3     :     0.000768
  1 C s       :     3.241466  s :     3.241466
      pz      :     0.989320  p :     2.981948
      px      :     0.984452
      py      :     1.008176
      dz2     :     0.010771  d :     0.081673
      dxz     :     0.022573
      dyz     :     0.014062
      dx2y2   :     0.016204
      dxy     :     0.018062
      f0      :     0.000653  f :     0.004280
      f+1     :     0.000629
      f-1     :     0.000168
      f+2     :     0.000809
      f-2     :     0.000513
      f+3     :     0.000597
      f-3     :     0.000911
  2 H s       :     0.791433  s :     0.791433
      pz      :     0.003559  p :     0.020542
      px      :     0.007992
      py      :     0.008991
  3 H s       :     0.814859  s :     0.814859
      pz      :     0.011232  p :     0.020403
      px      :     0.005089
      py      :     0.004081
  4 S s       :     5.340007  s :     5.340007
      pz      :     2.889468  p :     8.479917
      px      :     2.842458
      py      :     2.747991
      dz2     :     0.211623  d :     1.124298
      dxz     :     0.223868
      dyz     :     0.244363
      dx2y2   :     0.201015
      dxy     :     0.243428
      f0      :     0.020756  f :     0.126352
      f+1     :     0.009430
      f-1     :     0.016768
      f+2     :     0.017099
      f-2     :     0.019851
      f+3     :     0.020807
      f-3     :     0.021641
  5 O s       :     3.856181  s :     3.856181
      pz      :     1.660883  p :     4.542618
      px      :     1.625855
      py      :     1.255880
      dz2     :     0.003731  d :     0.035728
      dxz     :     0.000739
      dyz     :     0.009856
      dx2y2   :     0.011051
      dxy     :     0.010351
      f0      :     0.000248  f :     0.002241
      f+1     :     0.000058
      f-1     :     0.000363
      f+2     :     0.000331
      f-2     :     0.000110
      f+3     :     0.000547
      f-3     :     0.000583
  6 F s       :     3.903192  s :     3.903192
      pz      :     1.835353  p :     5.182919
      px      :     1.672741
      py      :     1.674824
      dz2     :     0.002517  d :     0.020875
      dxz     :     0.003262
      dyz     :     0.002857
      dx2y2   :     0.005374
      dxy     :     0.006865
      f0      :     0.000098  f :     0.000987
      f+1     :     0.000097
      f-1     :     0.000092
      f+2     :     0.000033
      f-2     :     0.000179
      f+3     :     0.000245
      f-3     :     0.000244
  7 O s       :     3.867826  s :     3.867826
      pz      :     1.366505  p :     4.579319
      px      :     1.531687
      py      :     1.681127
      dz2     :     0.010914  d :     0.033213
      dxz     :     0.010388
      dyz     :     0.007472
      dx2y2   :     0.002430
      dxy     :     0.002010
      f0      :     0.000488  f :     0.002054
      f+1     :     0.000618
      f-1     :     0.000321
      f+2     :     0.000292
      f-2     :     0.000260
      f+3     :     0.000039
      f-3     :     0.000036
  8 H s       :     0.806679  s :     0.806679
      pz      :     0.010933  p :     0.020285
      px      :     0.005391
      py      :     0.003961
  9 H s       :     0.831538  s :     0.831538
      pz      :     0.008053  p :     0.020022
      px      :     0.007968
      py      :     0.004000
 10 H s       :     0.836981  s :     0.836981
      pz      :     0.004024  p :     0.019926
      px      :     0.007597
      py      :     0.008304


                     *******************************
                     * LOEWDIN POPULATION ANALYSIS *
                     *******************************

----------------------
LOEWDIN ATOMIC CHARGES
----------------------
   0 C :   -0.317305
   1 C :   -0.394190
   2 H :    0.151202
   3 H :    0.137397
   4 S :    0.549887
   5 O :   -0.271047
   6 F :    0.095213
   7 O :   -0.325023
   8 H :    0.128245
   9 H :    0.125391
  10 H :    0.120231

-------------------------------
LOEWDIN REDUCED ORBITAL CHARGES
-------------------------------
  0 C s       :     2.824233  s :     2.824233
      pz      :     1.090989  p :     3.210114
      px      :     1.074037
      py      :     1.045088
      dz2     :     0.040557  d :     0.256711
      dxz     :     0.054265
      dyz     :     0.038281
      dx2y2   :     0.047778
      dxy     :     0.075831
      f0      :     0.002845  f :     0.026247
      f+1     :     0.003114
      f-1     :     0.003338
      f+2     :     0.004381
      f-2     :     0.002253
      f+3     :     0.003900
      f-3     :     0.006416
  1 C s       :     2.849942  s :     2.849942
      pz      :     1.034453  p :     3.152570
      px      :     1.034005
      py      :     1.084112
      dz2     :     0.057876  d :     0.359774
      dxz     :     0.089879
      dyz     :     0.053111
      dx2y2   :     0.068464
      dxy     :     0.090443
      f0      :     0.003758  f :     0.031904
      f+1     :     0.004307
      f-1     :     0.003051
      f+2     :     0.006721
      f-2     :     0.003570
      f+3     :     0.003850
      f-3     :     0.006647
  2 H s       :     0.786402  s :     0.786402
      pz      :     0.012447  p :     0.062396
      px      :     0.024553
      py      :     0.025396
  3 H s       :     0.799694  s :     0.799694
      pz      :     0.032528  p :     0.062909
      px      :     0.016682
      py      :     0.013699
  4 S s       :     4.750267  s :     4.750267
      pz      :     2.898026  p :     8.555776
      px      :     2.831417
      py      :     2.826333
      dz2     :     0.336347  d :     1.761747
      dxz     :     0.367782
      dyz     :     0.339582
      dx2y2   :     0.326302
      dxy     :     0.391734
      f0      :     0.057263  f :     0.382323
      f+1     :     0.036846
      f-1     :     0.050718
      f+2     :     0.050390
      f-2     :     0.056906
      f+3     :     0.061971
      f-3     :     0.068228
  5 O s       :     3.564116  s :     3.564116
      pz      :     1.605909  p :     4.633900
      px      :     1.579136
      py      :     1.448854
      dz2     :     0.010125  d :     0.068325
      dxz     :     0.001573
      dyz     :     0.013859
      dx2y2   :     0.026606
      dxy     :     0.016161
      f0      :     0.000422  f :     0.004707
      f+1     :     0.000110
      f-1     :     0.000930
      f+2     :     0.000549
      f-2     :     0.000261
      f+3     :     0.001119
      f-3     :     0.001317
  6 F s       :     3.652492  s :     3.652492
      pz      :     1.788050  p :     5.210937
      px      :     1.710944
      py      :     1.711944
      dz2     :     0.005567  d :     0.039572
      dxz     :     0.005546
      dyz     :     0.004401
      dx2y2   :     0.007793
      dxy     :     0.016264
      f0      :     0.000165  f :     0.001786
      f+1     :     0.000188
      f-1     :     0.000169
      f+2     :     0.000063
      f-2     :     0.000305
      f+3     :     0.000428
      f-3     :     0.000468
  7 O s       :     3.589688  s :     3.589688
      pz      :     1.490536  p :     4.668157
      px      :     1.542567
      py      :     1.635054
      dz2     :     0.023267  d :     0.062944
      dxz     :     0.022756
      dyz     :     0.010227
      dx2y2   :     0.003490
      dxy     :     0.003203
      f0      :     0.000968  f :     0.004234
      f+1     :     0.001581
      f-1     :     0.000554
      f+2     :     0.000526
      f-2     :     0.000476
      f+3     :     0.000062
      f-3     :     0.000067
  8 H s       :     0.806593  s :     0.806593
      pz      :     0.033658  p :     0.065162
      px      :     0.018029
      py      :     0.013476
  9 H s       :     0.810312  s :     0.810312
      pz      :     0.026234  p :     0.064297
      px      :     0.024453
      py      :     0.013611
 10 H s       :     0.815668  s :     0.815668
      pz      :     0.014837  p :     0.064101
      px      :     0.025390
      py      :     0.023874


                      *****************************
                      * MAYER POPULATION ANALYSIS *
                      *****************************

  NA   - Mulliken gross atomic population
  ZA   - Total nuclear charge
  QA   - Mulliken gross atomic charge
  VA   - Mayer's total valence
  BVA  - Mayer's bonded valence
  FA   - Mayer's free valence

  ATOM       NA         ZA         QA         VA         BVA        FA
  0 C      6.4102     6.0000    -0.4102     3.8326     3.8326    -0.0000
  1 C      6.3094     6.0000    -0.3094     3.7925     3.7925     0.0000
  2 H      0.8120     1.0000     0.1880     0.9520     0.9520    -0.0000
  3 H      0.8353     1.0000     0.1647     0.9534     0.9534    -0.0000
  4 S     15.0706    16.0000     0.9294     5.8800     5.8800    -0.0000
  5 O      8.4368     8.0000    -0.4368     2.0185     2.0185     0.0000
  6 F      9.1080     9.0000    -0.1080     1.1801     1.1801    -0.0000
  7 O      8.4824     8.0000    -0.4824     1.9440     1.9440    -0.0000
  8 H      0.8270     1.0000     0.1730     0.9616     0.9616    -0.0000
  9 H      0.8516     1.0000     0.1484     0.9567     0.9567    -0.0000
 10 H      0.8569     1.0000     0.1431     0.9586     0.9586     0.0000

  Mayer bond orders larger than 0.100000
B(  0-C ,  1-C ) :   0.9342 B(  0-C ,  8-H ) :   0.9629 B(  0-C ,  9-H ) :   0.9630 
B(  0-C , 10-H ) :   0.9678 B(  1-C ,  2-H ) :   0.9418 B(  1-C ,  3-H ) :   0.9456 
B(  1-C ,  4-S ) :   0.9186 B(  4-S ,  5-O ) :   1.9348 B(  4-S ,  6-F ) :   1.1183 
B(  4-S ,  7-O ) :   1.8571 

-------
TIMINGS
-------

Total SCF time: 0 days 0 hours 0 min 22 sec 

Total time                  ....      22.364 sec
Sum of individual times     ....      22.154 sec  ( 99.1%)

Fock matrix formation       ....      21.072 sec  ( 94.2%)
  Split-RI-J                ....       1.442 sec  (  6.8% of F)
  Chain of spheres X        ....      13.834 sec  ( 65.7% of F)
  XC integration            ....       5.741 sec  ( 27.2% of F)
    Basis function eval.    ....       0.996 sec  ( 17.4% of XC)
    Density eval.           ....       1.913 sec  ( 33.3% of XC)
    XC-Functional eval.     ....       0.399 sec  (  6.9% of XC)
    XC-Potential eval.      ....       2.277 sec  ( 39.7% of XC)
Diagonalization             ....       0.076 sec  (  0.3%)
Density matrix formation    ....       0.006 sec  (  0.0%)
Population analysis         ....       0.010 sec  (  0.0%)
Initial guess               ....       0.147 sec  (  0.7%)
Orbital Transformation      ....       0.000 sec  (  0.0%)
Orbital Orthonormalization  ....       0.000 sec  (  0.0%)
DIIS solution               ....       0.056 sec  (  0.2%)
SOSCF solution              ....       0.058 sec  (  0.3%)
Grid generation             ....       0.729 sec  (  3.3%)

Maximum memory used throughout the entire SCF-calculation: 70.2 MB


-------------------------------------------------------------------------------
                          DFT DISPERSION CORRECTION                            
                                                                               
                              DFTD3 V3.1  Rev 1                                
                              USING zero damping                               
-------------------------------------------------------------------------------
The M062X functional is recognized
Active option DFTDOPT                   ...         3   

molecular C6(AA) [au] = 1445.579836 


            DFT-D V3
 parameters
 s6 scaling factor         :     1.0000 
 rs6 scaling factor        :     1.6190 
 s8 scaling factor         :     0.0000 
 rs8 scaling factor        :     1.0000 
 Damping factor alpha6     :    14.0000 
 Damping factor alpha8     :    16.0000 
 ad hoc parameters k1-k3   :    16.0000     1.3333    -4.0000 

 Edisp/kcal,au: -0.094584318118  -0.000150729689 
 E6   /kcal   :  -0.094584318 
 E8   /kcal   :  -0.000000000 
 % E8         :   0.000000000 

-------------------------   ----------------
Dispersion correction           -0.000150730
-------------------------   ----------------


-------------------------   --------------------
FINAL SINGLE POINT ENERGY      -727.670019847896
-------------------------   --------------------


                            ***************************************
                            *     ORCA property calculations      *
                            ***************************************

                                    ---------------------
                                    Active property flags
                                    ---------------------
   (+) Dipole Moment


------------------------------------------------------------------------------
                       ORCA ELECTRIC PROPERTIES CALCULATION
------------------------------------------------------------------------------

Dipole Moment Calculation                       ... on
Quadrupole Moment Calculation                   ... off
Polarizability Calculation                      ... off
GBWName                                         ... TZVP_M062X_C2_wt_dlpno_neg.gbw
Electron density file                           ... TZVP_M062X_C2_wt_dlpno_neg.scfp
The origin for moment calculation is the CENTER OF MASS  = ( 1.657328,  0.768631 -5.849010)

-------------
DIPOLE MOMENT
-------------
                                X             Y             Z
Electronic contribution:     -7.93835      -2.39181      -3.86530
Nuclear contribution   :      8.30151       3.35500       5.26935
                        -----------------------------------------
Total Dipole Moment    :      0.36316       0.96319       1.40405
                        -----------------------------------------
Magnitude (a.u.)       :      1.74097
Magnitude (Debye)      :      4.42520



--------------------
Rotational spectrum 
--------------------
 
Rotational constants in cm-1:     0.152913     0.083043     0.080351 
Rotational constants in MHz :  4584.227971  2489.580280  2408.872860 

 Dipole components along the rotational axes: 
x,y,z [a.u.] :    -1.411307    -0.426283     0.926003 
x,y,z [Debye]:    -3.587257    -1.083526     2.353712 

 

Timings for individual modules:

Sum of individual times         ...       22.998 sec (=   0.383 min)
GTO integral calculation        ...        0.427 sec (=   0.007 min)   1.9 %
SCF iterations                  ...       22.571 sec (=   0.376 min)  98.1 %
                             ****ORCA TERMINATED NORMALLY****
TOTAL RUN TIME: 0 days 0 hours 0 minutes 23 seconds 404 msec
