
                                        *****************
                                        * O   R   C   A *
                                        *****************

                                            #,                                       
                                            ###                                      
                                            ####                                     
                                            #####                                    
                                            ######                                   
                                           ########,                                 
                                     ,,################,,,,,                         
                               ,,#################################,,                 
                          ,,##########################################,,             
                       ,#########################################, ''#####,          
                    ,#############################################,,   '####,        
                  ,##################################################,,,,####,       
                ,###########''''           ''''###############################       
              ,#####''   ,,,,##########,,,,          '''####'''          '####       
            ,##' ,,,,###########################,,,                        '##       
           ' ,,###''''                  '''############,,,                           
         ,,##''                                '''############,,,,        ,,,,,,###''
      ,#''                                            '''#######################'''  
     '                                                          ''''####''''         
             ,#######,   #######,   ,#######,      ##                                
            ,#'     '#,  ##    ##  ,#'     '#,    #''#        ######   ,####,        
            ##       ##  ##   ,#'  ##            #'  '#       #        #'  '#        
            ##       ##  #######   ##           ,######,      #####,   #    #        
            '#,     ,#'  ##    ##  '#,     ,#' ,#      #,         ##   #,  ,#        
             '#######'   ##     ##  '#######'  #'      '#     #####' # '####'        



                  #######################################################
                  #                        -***-                        #
                  #          Department of theory and spectroscopy      #
                  #    Directorship and core code : Frank Neese         #
                  #        Max Planck Institute fuer Kohlenforschung    #
                  #                Kaiser Wilhelm Platz 1               #
                  #                 D-45470 Muelheim/Ruhr               #
                  #                      Germany                        #
                  #                                                     #
                  #                  All rights reserved                #
                  #                        -***-                        #
                  #######################################################


                         Program Version 5.0.0 -  RELEASE  -
                                (SVN: $Rev: 19529$)
                ($Date: 2021-06-28 11:36:33 +0200 (Mo, 28 Jun 2021) $)


 With contributions from (in alphabetic order):
   Daniel Aravena         : Magnetic Suceptibility
   Michael Atanasov       : Ab Initio Ligand Field Theory (pilot matlab implementation)
   Alexander A. Auer      : GIAO ZORA, VPT2 properties, NMR spectrum
   Ute Becker             : Parallelization
   Giovanni Bistoni       : ED, misc. LED, open-shell LED, HFLD
   Martin Brehm           : Molecular dynamics
   Dmytro Bykov           : SCF Hessian
   Vijay G. Chilkuri      : MRCI spin determinant printing, contributions to CSF-ICE
   Dipayan Datta          : RHF DLPNO-CCSD density
   Achintya Kumar Dutta   : EOM-CC, STEOM-CC
   Dmitry Ganyushin       : Spin-Orbit,Spin-Spin,Magnetic field MRCI
   Miquel Garcia          : C-PCM Hessian, Gaussian charge scheme
   Yang Guo               : DLPNO-NEVPT2, F12-NEVPT2, CIM, IAO-localization
   Andreas Hansen         : Spin unrestricted coupled pair/coupled cluster methods
   Benjamin Helmich-Paris : MC-RPA, TRAH-SCF, COSX integrals
   Lee Huntington         : MR-EOM, pCC
   Robert Izsak           : Overlap fitted RIJCOSX, COSX-SCS-MP3, EOM
   Marcus Kettner         : VPT2
   Christian Kollmar      : KDIIS, OOCD, Brueckner-CCSD(T), CCSD density, CASPT2, CASPT2-K
   Simone Kossmann        : Meta GGA functionals, TD-DFT gradient, OOMP2, MP2 Hessian
   Martin Krupicka        : Initial AUTO-CI
   Lucas Lang             : DCDCAS
   Marvin Lechner         : AUTO-CI (C++ implementation), FIC-MRCC
   Dagmar Lenk            : GEPOL surface, SMD
   Dimitrios Liakos       : Extrapolation schemes; Compound Job, initial MDCI parallelization
   Dimitrios Manganas     : Further ROCIS development; embedding schemes
   Dimitrios Pantazis     : SARC Basis sets
   Anastasios Papadopoulos: AUTO-CI, single reference methods and gradients
   Taras Petrenko         : DFT Hessian,TD-DFT gradient, ASA, ECA, R-Raman, ABS, FL, XAS/XES, NRVS
   Peter Pinski           : DLPNO-MP2, DLPNO-MP2 Gradient
   Christoph Reimann      : Effective Core Potentials
   Marius Retegan         : Local ZFS, SOC
   Christoph Riplinger    : Optimizer, TS searches, QM/MM, DLPNO-CCSD(T), (RO)-DLPNO pert. Triples
   Tobias Risthaus        : Range-separated hybrids, TD-DFT gradient, RPA, STAB
   Michael Roemelt        : Original ROCIS implementation
   Masaaki Saitow         : Open-shell DLPNO-CCSD energy and density
   Barbara Sandhoefer     : DKH picture change effects
   Avijit Sen             : IP-ROCIS
   Kantharuban Sivalingam : CASSCF convergence, NEVPT2, FIC-MRCI
   Bernardo de Souza      : ESD, SOC TD-DFT
   Georgi Stoychev        : AutoAux, RI-MP2 NMR
   Willem Van den Heuvel  : Paramagnetic NMR
   Boris Wezisla          : Elementary symmetry handling
   Frank Wennmohs         : Technical directorship


 We gratefully acknowledge several colleagues who have allowed us to
 interface, adapt or use parts of their codes:
   Stefan Grimme, W. Hujo, H. Kruse, P. Pracht,  : VdW corrections, initial TS optimization,
                  C. Bannwarth, S. Ehlert          DFT functionals, gCP, sTDA/sTD-DF
   Ed Valeev, F. Pavosevic, A. Kumar             : LibInt (2-el integral package), F12 methods
   Garnet Chan, S. Sharma, J. Yang, R. Olivares  : DMRG
   Ulf Ekstrom                                   : XCFun DFT Library
   Mihaly Kallay                                 : mrcc  (arbitrary order and MRCC methods)
   Jiri Pittner, Ondrej Demel                    : Mk-CCSD
   Frank Weinhold                                : gennbo (NPA and NBO analysis)
   Christopher J. Cramer and Donald G. Truhlar   : smd solvation model
   Lars Goerigk                                  : TD-DFT with DH, B97 family of functionals
   V. Asgeirsson, H. Jonsson                     : NEB implementation
   FAccTs GmbH                                   : IRC, NEB, NEB-TS, DLPNO-Multilevel, CI-OPT
                                                   MM, QMMM, 2- and 3-layer-ONIOM, Crystal-QMMM,
                                                   LR-CPCM, SF, NACMEs, symmetry and pop. for TD-DFT,
                                                   nearIR, NL-DFT gradient (VV10), updates on ESD,
                                                   ML-optimized integration grids
   S Lehtola, MJT Oliveira, MAL Marques          : LibXC Library
   Liviu Ungur et al                             : ANISO software


 Your calculation uses the libint2 library for the computation of 2-el integrals
 For citations please refer to: http://libint.valeyev.net

 Your ORCA version has been built with support for libXC version: 5.1.0
 For citations please refer to: https://tddft.org/programs/libxc/

 This ORCA versions uses:
   CBLAS   interface :  Fast vector & matrix operations
   LAPACKE interface :  Fast linear algebra routines
   SCALAPACK package :  Parallel linear algebra routines
   Shared memory     :  Shared parallel matrices
   BLAS/LAPACK       :  OpenBLAS 0.3.15  USE64BITINT DYNAMIC_ARCH NO_AFFINITY Haswell SINGLE_THREADED
        Core in use  :  Haswell
   Copyright (c) 2011-2014, The OpenBLAS Project


XCFun DFT library Copyright 2009-2010 Ulf Ekstrom and contributors.
See http://admol.org/xcfun for more information.
This is free software; see the source code for copying conditions.
There is ABSOLUTELY NO WARRANTY; not even for MERCHANTABILITY or FITNESS FOR A PARTICULAR PURPOSE.
For details see the documentation.
Scientific users of this library should cite U. Ekstrom, L. Visscher, R. Bast, A. J. Thorvaldsen and K. Ruud;
J.Chem.Theor.Comp. 2010, DOI: 10.1021/ct100117s
XCFun Version 0.99 

================================================================================

----- Orbital basis set information -----
Your calculation utilizes the basis: def2-TZVPD
   F. Weigend and R. Ahlrichs, Phys. Chem. Chem. Phys. 7, 3297 (2005).
   D. Rappoport and F. Furche, J. Chem. Phys. 133 134105 (2010).

----- AuxJ basis set information -----
Your calculation utilizes the auxiliary basis: def2/J
   F. Weigend, Phys. Chem. Chem. Phys. 8, 1057 (2006).

================================================================================
                                        WARNINGS
                       Please study these warnings very carefully!
================================================================================


INFO   : the flag for use of the SHARK integral package has been found!

================================================================================
                                       INPUT FILE
================================================================================
NAME = TZVPD_CAMB3LYP_C3_wt_dlpno_neg.com
|  1> !CAM-B3LYP RIJCOSX def2-TZVPD def2/J TightSCF
|  2> *xyz 0 1
|  3> C          0.84888        2.66797       -4.30235
|  4> C          2.09343        1.86104       -4.65684
|  5> H          2.44481        2.04157       -5.67499
|  6> H          2.90175        2.13786       -3.98034
|  7> S          1.87964        0.07859       -4.46297
|  8> O          3.20757       -0.46611       -4.42026
|  9> O          1.07506       -0.05616       -3.26876
| 10> F          1.13166       -0.31996       -5.67903
| 11> H          0.05064        2.40112       -4.96303
| 12> H          1.06043        3.71210       -4.40203
| 13> H          0.56237        2.45684       -3.29327
| 14> *
| 15> 
| 16> %MaxCore 64000
| 17> 
| 18> %pal nprocs 4
| 19> end  
| 20> 
| 21> %scf
| 22>   MaxIter 150
| 23> end
| 24> 
| 25> 
| 26>                          ****END OF INPUT****
================================================================================

                       ****************************
                       * Single Point Calculation *
                       ****************************

---------------------------------
CARTESIAN COORDINATES (ANGSTROEM)
---------------------------------
  C      0.848880    2.667970   -4.302350
  C      2.093430    1.861040   -4.656840
  H      2.444810    2.041570   -5.674990
  H      2.901750    2.137860   -3.980340
  S      1.879640    0.078590   -4.462970
  O      3.207570   -0.466110   -4.420260
  O      1.075060   -0.056160   -3.268760
  F      1.131660   -0.319960   -5.679030
  H      0.050640    2.401120   -4.963030
  H      1.060430    3.712100   -4.402030
  H      0.562370    2.456840   -3.293270

----------------------------
CARTESIAN COORDINATES (A.U.)
----------------------------
  NO LB      ZA    FRAG     MASS         X           Y           Z
   0 C     6.0000    0    12.011    1.604151    5.041733   -8.130263
   1 C     6.0000    0    12.011    3.956009    3.516856   -8.800152
   2 H     1.0000    0     1.008    4.620021    3.858008  -10.724177
   3 H     1.0000    0     1.008    5.483513    4.039970   -7.521753
   4 S    16.0000    0    32.060    3.552005    0.148514   -8.433791
   5 O     8.0000    0    15.999    6.061429   -0.880820   -8.353081
   6 O     8.0000    0    15.999    2.031569   -0.106127   -6.177061
   7 F     9.0000    0    18.998    2.138527   -0.604637  -10.731811
   8 H     1.0000    0     1.008    0.095696    4.537459   -9.378767
   9 H     1.0000    0     1.008    2.003922    7.014852   -8.318631
  10 H     1.0000    0     1.008    1.062725    4.642755   -6.223378

--------------------------------
INTERNAL COORDINATES (ANGSTROEM)
--------------------------------
 C      0   0   0     0.000000000000     0.00000000     0.00000000
 C      1   0   0     1.525025864535     0.00000000     0.00000000
 H      2   1   0     1.092102745991   113.06736607     0.00000000
 H      2   1   3     1.089799424114   109.06281783   119.33732853
 S      2   1   3     1.805663241997   113.62454011   237.05743021
 O      5   2   1     1.435938828432   105.55460841   197.66012960
 O      5   2   1     1.446251728780   104.27042723   321.55528125
 F      5   2   1     1.482267892960   103.71447179    78.73659451
 H      1   2   3     1.069997234810   109.47089969    60.66283857
 H      1   2   3     1.069998580279   109.47101711   300.66281263
 H      1   2   3     1.070002945510   109.47085826   180.66253675

---------------------------
INTERNAL COORDINATES (A.U.)
---------------------------
 C      0   0   0     0.000000000000     0.00000000     0.00000000
 C      1   0   0     2.881881231117     0.00000000     0.00000000
 H      2   1   0     2.063775100025   113.06736607     0.00000000
 H      2   1   3     2.059422452481   109.06281783   119.33732853
 S      2   1   3     3.412209017463   113.62454011   237.05743021
 O      5   2   1     2.713531130801   105.55460841   197.66012960
 O      5   2   1     2.733019688105   104.27042723   321.55528125
 F      5   2   1     2.801080374799   103.71447179    78.73659451
 H      1   2   3     2.022001737843   109.47089969    60.66283857
 H      1   2   3     2.022004280413   109.47101711   300.66281263
 H      1   2   3     2.022012529503   109.47085826   180.66253675

---------------------
BASIS SET INFORMATION
---------------------
There are 5 groups of distinct atoms

 Group   1 Type C   : 12s6p3d1f contracted to 6s3p3d1f pattern {621111/411/111/1}
 Group   2 Type H   : 5s2p contracted to 3s2p pattern {311/11}
 Group   3 Type S   : 15s10p4d1f contracted to 6s6p3d1f pattern {732111/511111/211/1}
 Group   4 Type O   : 12s7p3d1f contracted to 6s4p3d1f pattern {621111/4111/111/1}
 Group   5 Type F   : 12s7p3d1f contracted to 6s4p3d1f pattern {621111/4111/111/1}

Atom   0C    basis set group =>   1
Atom   1C    basis set group =>   1
Atom   2H    basis set group =>   2
Atom   3H    basis set group =>   2
Atom   4S    basis set group =>   3
Atom   5O    basis set group =>   4
Atom   6O    basis set group =>   4
Atom   7F    basis set group =>   5
Atom   8H    basis set group =>   2
Atom   9H    basis set group =>   2
Atom  10H    basis set group =>   2
---------------------------------
AUXILIARY/J BASIS SET INFORMATION
---------------------------------
There are 5 groups of distinct atoms

 Group   1 Type C   : 12s5p4d2f1g contracted to 6s4p3d1f1g pattern {711111/2111/211/2/1}
 Group   2 Type H   : 5s2p1d contracted to 3s1p1d pattern {311/2/1}
 Group   3 Type S   : 14s5p5d2f1g contracted to 8s4p3d1f1g pattern {71111111/2111/311/2/1}
 Group   4 Type O   : 12s5p4d2f1g contracted to 6s4p3d1f1g pattern {711111/2111/211/2/1}
 Group   5 Type F   : 12s5p4d2f1g contracted to 6s4p3d1f1g pattern {711111/2111/211/2/1}

Atom   0C    basis set group =>   1
Atom   1C    basis set group =>   1
Atom   2H    basis set group =>   2
Atom   3H    basis set group =>   2
Atom   4S    basis set group =>   3
Atom   5O    basis set group =>   4
Atom   6O    basis set group =>   4
Atom   7F    basis set group =>   5
Atom   8H    basis set group =>   2
Atom   9H    basis set group =>   2
Atom  10H    basis set group =>   2


           ************************************************************
           *        Program running with 4 parallel MPI-processes     *
           *              working on a common directory               *
           ************************************************************
------------------------------------------------------------------------------
                           ORCA GTO INTEGRAL CALCULATION
                           -- RI-GTO INTEGRALS CHOSEN --
------------------------------------------------------------------------------
------------------------------------------------------------------------------
                   ___                                                        
                  /   \      - P O W E R E D   B Y -                         
                 /     \                                                     
                 |  |  |   _    _      __       _____    __    __             
                 |  |  |  | |  | |    /  \     |  _  \  |  |  /  |          
                  \  \/   | |  | |   /    \    | | | |  |  | /  /          
                 / \  \   | |__| |  /  /\  \   | |_| |  |  |/  /          
                |  |  |   |  __  | /  /__\  \  |    /   |      \           
                |  |  |   | |  | | |   __   |  |    \   |  |\   \          
                \     /   | |  | | |  |  |  |  | |\  \  |  | \   \       
                 \___/    |_|  |_| |__|  |__|  |_| \__\ |__|  \__/        
                                                                              
                      - O R C A' S   B I G   F R I E N D -                    
                                      &                                       
                       - I N T E G R A L  F E E D E R -                       
                                                                              
 v1 FN, 2020, v2 2021                                                         
------------------------------------------------------------------------------


Reading SHARK input file TZVPD_CAMB3LYP_C3_wt_dlpno_neg.SHARKINP.tmp ... ok
----------------------
SHARK INTEGRAL PACKAGE
----------------------

Number of atoms                             ...     11
Number of basis functions                   ...    285
Number of shells                            ...    109
Maximum angular momentum                    ...      3
Integral batch strategy                     ... SHARK/LIBINT Hybrid
RI-J (if used) integral strategy            ... SPLIT-RIJ (Revised 2003 algorithm where possible)
Printlevel                                  ...      1
Contraction scheme used                     ... SEGMENTED contraction
Coulomb Range Separation                    ... NOT USED
Exchange Range Separation                   ... Long Range
   Mu parameter                             ...  0.330000
   Scaling (regular/separated)              ...  0.190000  0.460000
Finite Nucleus Model                        ... NOT USED
Auxiliary Coulomb fitting basis             ... AVAILABLE
   # of basis functions in Aux-J            ...    351
   # of shells in Aux-J                     ...    117
   Maximum angular momentum in Aux-J        ...      4
Auxiliary J/K fitting basis                 ... NOT available
Auxiliary Correlation fitting basis         ... NOT available
Auxiliary 'external' fitting basis          ... NOT available
Integral threshold                          ...     2.500000e-11
Primitive cut-off                           ...     2.500000e-12
Primitive pair pre-selection threshold      ...     2.500000e-12

Calculating pre-screening integrals         ... done (  0.1 sec) Dimension = 109
Organizing shell pair data                  ... done (  0.1 sec)
Shell pair information
Total number of shell pairs                 ...      5995
Shell pairs after pre-screening             ...      5744
Total number of primitive shell pairs       ...     16092
Primitive shell pairs kept                  ...     12413
          la=0 lb=0:   1217 shell pairs
          la=1 lb=0:   1668 shell pairs
          la=1 lb=1:    590 shell pairs
          la=2 lb=0:    876 shell pairs
          la=2 lb=1:    604 shell pairs
          la=2 lb=2:    170 shell pairs
          la=3 lb=0:    289 shell pairs
          la=3 lb=1:    201 shell pairs
          la=3 lb=2:    108 shell pairs
          la=3 lb=3:     21 shell pairs

Calculating one electron integrals          ... done (  0.0 sec)
Calculating RI/J V-Matrix + Cholesky decomp.... done (  0.0 sec)
Calculating Nuclear repulsion               ... done (  0.0 sec) ENN=    363.352447899111 Eh

SHARK setup successfully completed in   0.3 seconds

Maximum memory used throughout the entire GTOINT-calculation: 15.3 MB


           ************************************************************
           *        Program running with 4 parallel MPI-processes     *
           *              working on a common directory               *
           ************************************************************
-------------------------------------------------------------------------------
                                 ORCA SCF
-------------------------------------------------------------------------------

------------
SCF SETTINGS
------------
Hamiltonian:
 Density Functional     Method          .... DFT(GTOs)
 Exchange Functional    Exchange        .... WB88
 Correlation Functional Correlation     .... LYP
 LDA part of GGA corr.  LDAOpt          .... VWN-5
 Gradients option       PostSCFGGA      .... off
 Hybrid DFT is turned on
   Fraction HF Exchange ScalHFX         ....  0.190000
   Scaling of DF-GGA-X  ScalDFX         ....  0.350000
   Scaling of DF-GGA-C  ScalDFC         ....  0.810000
   Scaling of DF-LDA-C  ScalLDAC        ....  1.000000
   Perturbative correction              ....  0.000000
   Density functional embedding theory  .... OFF
 Long-range corrected/Screened/Range-Separated Hybrid DFT is turned on
   Amount of maximum screened exact exchange              ....  0.460000
   Range separation parameter mu (erf(mu*r12)/r12)        ....  0.330000
 RI-approximation to the Coulomb term is turned on
   Number of AuxJ basis functions       .... 351
   RIJ-COSX (HFX calculated with COS-X)).... on


General Settings:
 Integral files         IntName         .... TZVPD_CAMB3LYP_C3_wt_dlpno_neg
 Hartree-Fock type      HFTyp           .... RHF
 Total Charge           Charge          ....    0
 Multiplicity           Mult            ....    1
 Number of Electrons    NEL             ....   58
 Basis Dimension        Dim             ....  285
 Nuclear Repulsion      ENuc            ....    363.3524478991 Eh

Convergence Acceleration:
 DIIS                   CNVDIIS         .... on
   Start iteration      DIISMaxIt       ....    12
   Startup error        DIISStart       ....  0.200000
   # of expansion vecs  DIISMaxEq       ....     5
   Bias factor          DIISBfac        ....   1.050
   Max. coefficient     DIISMaxC        ....  10.000
 Trust-Rad. Augm. Hess. CNVTRAH         .... auto
   Auto Start mean grad. ratio tolernc. ....  1.125000
   Auto Start start iteration           ....    20
   Auto Start num. interpolation iter.  ....    10
   Max. Number of Micro iterations      ....    16
   Max. Number of Macro iterations      .... Maxiter - #DIIS iter
   Number of Davidson start vectors     ....     2
   Converg. threshold I  (grad. norm)   ....   1.000e-05
   Converg. threshold II (energy diff.) ....   1.000e-08
   Grad. Scal. Fac. for Micro threshold ....   0.100
   Minimum threshold for Micro iter.    ....   0.010
   NR start threshold (gradient norm)   ....   0.001
   Initial trust radius                 ....   0.400
   Minimum AH scaling param. (alpha)    ....   1.000
   Maximum AH scaling param. (alpha)    .... 1000.000
   Orbital update algorithm             .... Taylor
   White noise on init. David. guess    .... on
   Maximum white noise                  ....   0.010
   Quad. conv. algorithm                .... NR
 SOSCF                  CNVSOSCF        .... on
   Start iteration      SOSCFMaxIt      ....   150
   Startup grad/error   SOSCFStart      ....  0.003300
 Level Shifting         CNVShift        .... on
   Level shift para.    LevelShift      ....    0.2500
   Turn off err/grad.   ShiftErr        ....    0.0010
 Zerner damping         CNVZerner       .... off
 Static damping         CNVDamp         .... on
   Fraction old density DampFac         ....    0.7000
   Max. Damping (<1)    DampMax         ....    0.9800
   Min. Damping (>=0)   DampMin         ....    0.0000
   Turn off err/grad.   DampErr         ....    0.1000
 Fernandez-Rico         CNVRico         .... off

SCF Procedure:
 Maximum # iterations   MaxIter         ....   150
 SCF integral mode      SCFMode         .... Direct
   Integral package                     .... SHARK and LIBINT hybrid scheme
 Reset frequency        DirectResetFreq ....    20
 Integral Threshold     Thresh          ....  2.500e-11 Eh
 Primitive CutOff       TCut            ....  2.500e-12 Eh

Convergence Tolerance:
 Convergence Check Mode ConvCheckMode   .... Total+1el-Energy
 Convergence forced     ConvForced      .... 0
 Energy Change          TolE            ....  1.000e-08 Eh
 1-El. energy change                    ....  1.000e-05 Eh
 Orbital Gradient       TolG            ....  1.000e-05
 Orbital Rotation angle TolX            ....  1.000e-05
 DIIS Error             TolErr          ....  5.000e-07


Diagonalization of the overlap matrix:
Smallest eigenvalue                        ... 1.139e-05
Time for diagonalization                   ...    0.020 sec
Threshold for overlap eigenvalues          ... 1.000e-08
Number of eigenvalues below threshold      ... 0
Time for construction of square roots      ...    0.015 sec
Total time needed                          ...    0.037 sec

Time for model grid setup =    0.142 sec

------------------------------
INITIAL GUESS: MODEL POTENTIAL
------------------------------
Loading Hartree-Fock densities                     ... done
Calculating cut-offs                               ... done
Initializing the effective Hamiltonian             ... done
Setting up the integral package (SHARK)            ... done
Starting the Coulomb interaction                   ... done (   0.1 sec)
Reading the grid                                   ... done
Mapping shells                                     ... done
Starting the XC term evaluation                    ... done (   0.2 sec)
  promolecular density results
     # of electrons  =     57.996753045
     EX              =    -63.055274634
     EC              =     -2.063817253
     EX+EC           =    -65.119091886
Transforming the Hamiltonian                       ... done (   0.0 sec)
Diagonalizing the Hamiltonian                      ... done (   0.0 sec)
Back transforming the eigenvectors                 ... done (   0.0 sec)
Now organizing SCF variables                       ... done
                      ------------------
                      INITIAL GUESS DONE (   0.4 sec)
                      ------------------
-------------------
DFT GRID GENERATION
-------------------

General Integration Accuracy     IntAcc      ... 4.388
Radial Grid Type                 RadialGrid  ... OptM3 with GC (2021)
Angular Grid (max. ang.)         AngularGrid ... 4 (Lebedev-302)
Angular grid pruning method      GridPruning ... 4 (adaptive)
Weight generation scheme         WeightScheme... Becke
Basis function cutoff            BFCut       ... 1.0000e-11
Integration weight cutoff        WCut        ... 1.0000e-14
Angular grids for H and He will be reduced by one unit
Partially contracted basis set               ... off
Rotationally invariant grid construction     ... off

Total number of grid points                  ...    56578
Total number of batches                      ...      889
Average number of points per batch           ...       63
Average number of grid points per atom       ...     5143
Time for grid setup =    0.402 sec

--------------------
COSX GRID GENERATION
--------------------

GRIDX 1
-------
General Integration Accuracy     IntAcc      ... 3.816
Radial Grid Type                 RadialGrid  ... OptM3 with GC (2021)
Angular Grid (max. ang.)         AngularGrid ... 1 (Lebedev-50)
Angular grid pruning method      GridPruning ... 4 (adaptive)
Weight generation scheme         WeightScheme... Becke
Basis function cutoff            BFCut       ... 1.0000e-11
Integration weight cutoff        WCut        ... 1.0000e-14
Angular grids for H and He will be reduced by one unit
Partially contracted basis set               ... on
Rotationally invariant grid construction     ... off

Total number of grid points                  ...     7031
Total number of batches                      ...      115
Average number of points per batch           ...       61
Average number of grid points per atom       ...      639
UseSFitting                                  ... on

GRIDX 2
-------
General Integration Accuracy     IntAcc      ... 4.020
Radial Grid Type                 RadialGrid  ... OptM3 with GC (2021)
Angular Grid (max. ang.)         AngularGrid ... 2 (Lebedev-110)
Angular grid pruning method      GridPruning ... 4 (adaptive)
Weight generation scheme         WeightScheme... Becke
Basis function cutoff            BFCut       ... 1.0000e-11
Integration weight cutoff        WCut        ... 1.0000e-14
Angular grids for H and He will be reduced by one unit
Partially contracted basis set               ... on
Rotationally invariant grid construction     ... off

Total number of grid points                  ...    17370
Total number of batches                      ...      276
Average number of points per batch           ...       62
Average number of grid points per atom       ...     1579
UseSFitting                                  ... on

GRIDX 3
-------
General Integration Accuracy     IntAcc      ... 4.338
Radial Grid Type                 RadialGrid  ... OptM3 with GC (2021)
Angular Grid (max. ang.)         AngularGrid ... 3 (Lebedev-194)
Angular grid pruning method      GridPruning ... 4 (adaptive)
Weight generation scheme         WeightScheme... Becke
Basis function cutoff            BFCut       ... 1.0000e-11
Integration weight cutoff        WCut        ... 1.0000e-14
Angular grids for H and He will be reduced by one unit
Partially contracted basis set               ... on
Rotationally invariant grid construction     ... off

Total number of grid points                  ...    39256
Total number of batches                      ...      619
Average number of points per batch           ...       63
Average number of grid points per atom       ...     3569
UseSFitting                                  ... on

Time for X-Grid setup             =    0.499 sec

--------------
SCF ITERATIONS
--------------
ITER       Energy         Delta-E        Max-DP      RMS-DP      [F,P]     Damp
               ***  Starting incremental Fock matrix formation  ***
  0   -727.4382661339   0.000000000000 0.13426270  0.00175994  0.2804525 0.7000
  1   -727.5818094368  -0.143543302865 0.11159040  0.00123627  0.1143913 0.7000
                               ***Turning on DIIS***
  2   -727.6338940871  -0.052084650302 0.18598558  0.00226600  0.0449308 0.0000
  3   -727.7262068227  -0.092312735602 0.06497342  0.00063370  0.0612062 0.0000
  4   -727.7413699251  -0.015163102382 0.02797835  0.00021395  0.0128161 0.0000
                      *** Initiating the SOSCF procedure ***
                           *** Shutting down DIIS ***
                      *** Re-Reading the Fockian *** 
                      *** Removing any level shift *** 
ITER      Energy       Delta-E        Grad      Rot      Max-DP    RMS-DP
  5   -727.74204869  -0.0006787648  0.000594  0.000594  0.003454  0.000050
               *** Restarting incremental Fock matrix formation ***
  6   -727.74207514  -0.0000264498  0.000210  0.000373  0.003015  0.000037
  7   -727.74207830  -0.0000031642  0.000190  0.000301  0.001560  0.000015
  8   -727.74207937  -0.0000010661  0.000069  0.000059  0.000750  0.000008
  9   -727.74207949  -0.0000001215  0.000029  0.000027  0.000313  0.000003
 10   -727.74207954  -0.0000000480  0.000010  0.000013  0.000145  0.000002
 11   -727.74207954  -0.0000000006  0.000007  0.000007  0.000119  0.000001
 12   -727.74207954  -0.0000000001  0.000003  0.000005  0.000097  0.000001
                  ***Gradient check signals convergence***
              ***Rediagonalizing the Fockian in SOSCF/NRSCF***

               *****************************************************
               *                     SUCCESS                       *
               *           SCF CONVERGED AFTER  13 CYCLES          *
               *****************************************************

Old exchange energy                            =    -16.759825497 Eh
New exchange energy                            =    -16.759787864 Eh
Exchange energy change after final integration =      0.000037632 Eh
Total energy after final integration           =   -727.742041919 Eh
Final COS-X integration done in                =     9.471 sec

----------------
TOTAL SCF ENERGY
----------------

Total Energy       :         -727.74204192 Eh          -19802.86772 eV

Components:
Nuclear Repulsion  :          363.35244790 Eh            9887.32277 eV
Electronic Energy  :        -1091.09448982 Eh          -29690.19049 eV
One Electron Energy:        -1722.80097832 Eh          -46879.79794 eV
Two Electron Energy:          631.70648851 Eh           17189.60745 eV
Max COSX asymmetry :            0.00000566 Eh               0.00015 eV

Virial components:
Potential Energy   :        -1453.56299596 Eh          -39553.45998 eV
Kinetic Energy     :          725.82095404 Eh           19750.59226 eV
Virial Ratio       :            2.00264678


DFT components:
N(Alpha)           :       29.000005868835 electrons
N(Beta)            :       29.000005868835 electrons
N(Total)           :       58.000011737671 electrons
E(XC)              :      -49.415363877799 Eh       
DFET-embed. en.    :        0.000000000000 Eh       

---------------
SCF CONVERGENCE
---------------

  Last Energy change         ...   -1.0986e-08  Tolerance :   1.0000e-08
  Last MAX-Density change    ...    2.6645e-15  Tolerance :   1.0000e-07
  Last RMS-Density change    ...    2.0491e-17  Tolerance :   5.0000e-09
  Last Orbital Gradient      ...    7.2693e-07  Tolerance :   1.0000e-05
  Last Orbital Rotation      ...    8.8352e-07  Tolerance :   1.0000e-05

             **** THE GBW FILE WAS UPDATED (TZVPD_CAMB3LYP_C3_wt_dlpno_neg.gbw) ****
             **** DENSITY TZVPD_CAMB3LYP_C3_wt_dlpno_neg.scfp WAS UPDATED ****
             **** ENERGY FILE WAS UPDATED (TZVPD_CAMB3LYP_C3_wt_dlpno_neg.en.tmp) ****
             **** THE GBW FILE WAS UPDATED (TZVPD_CAMB3LYP_C3_wt_dlpno_neg.gbw) ****
             **** DENSITY TZVPD_CAMB3LYP_C3_wt_dlpno_neg.scfp WAS UPDATED ****
----------------
ORBITAL ENERGIES
----------------

  NO   OCC          E(Eh)            E(eV) 
   0   2.0000     -89.178267     -2426.6640 
   1   2.0000     -24.861741      -676.5224 
   2   2.0000     -19.217886      -522.9453 
   3   2.0000     -19.214325      -522.8484 
   4   2.0000     -10.303847      -280.3819 
   5   2.0000     -10.259818      -279.1838 
   6   2.0000      -8.222353      -223.7416 
   7   2.0000      -6.190311      -168.4469 
   8   2.0000      -6.183865      -168.2715 
   9   2.0000      -6.183262      -168.2551 
  10   2.0000      -1.438394       -39.1407 
  11   2.0000      -1.203111       -32.7383 
  12   2.0000      -1.110841       -30.2275 
  13   2.0000      -0.905112       -24.6293 
  14   2.0000      -0.802247       -21.8303 
  15   2.0000      -0.748978       -20.3807 
  16   2.0000      -0.656543       -17.8654 
  17   2.0000      -0.642561       -17.4850 
  18   2.0000      -0.624229       -16.9861 
  19   2.0000      -0.567460       -15.4414 
  20   2.0000      -0.551973       -15.0200 
  21   2.0000      -0.529931       -14.4201 
  22   2.0000      -0.502471       -13.6729 
  23   2.0000      -0.475282       -12.9331 
  24   2.0000      -0.470936       -12.8148 
  25   2.0000      -0.450869       -12.2688 
  26   2.0000      -0.411635       -11.2012 
  27   2.0000      -0.399899       -10.8818 
  28   2.0000      -0.392364       -10.6768 
  29   0.0000       0.016336         0.4445 
  30   0.0000       0.039222         1.0673 
  31   0.0000       0.042523         1.1571 
  32   0.0000       0.046014         1.2521 
  33   0.0000       0.072203         1.9647 
  34   0.0000       0.080395         2.1877 
  35   0.0000       0.083680         2.2771 
  36   0.0000       0.102690         2.7943 
  37   0.0000       0.106280         2.8920 
  38   0.0000       0.111191         3.0256 
  39   0.0000       0.114585         3.1180 
  40   0.0000       0.130153         3.5417 
  41   0.0000       0.138123         3.7585 
  42   0.0000       0.142746         3.8843 
  43   0.0000       0.144754         3.9390 
  44   0.0000       0.157530         4.2866 
  45   0.0000       0.161792         4.4026 
  46   0.0000       0.169912         4.6235 
  47   0.0000       0.172182         4.6853 
  48   0.0000       0.174129         4.7383 
  49   0.0000       0.183128         4.9832 
  50   0.0000       0.188713         5.1351 
  51   0.0000       0.189601         5.1593 
  52   0.0000       0.201265         5.4767 
  53   0.0000       0.212800         5.7906 
  54   0.0000       0.233224         6.3463 
  55   0.0000       0.239875         6.5273 
  56   0.0000       0.253581         6.9003 
  57   0.0000       0.266977         7.2648 
  58   0.0000       0.276624         7.5273 
  59   0.0000       0.284653         7.7458 
  60   0.0000       0.290075         7.8934 
  61   0.0000       0.291567         7.9339 
  62   0.0000       0.299597         8.1525 
  63   0.0000       0.306652         8.3444 
  64   0.0000       0.310726         8.4553 
  65   0.0000       0.323466         8.8020 
  66   0.0000       0.332950         9.0600 
  67   0.0000       0.334927         9.1138 
  68   0.0000       0.341481         9.2922 
  69   0.0000       0.345051         9.3893 
  70   0.0000       0.356885         9.7113 
  71   0.0000       0.362409         9.8617 
  72   0.0000       0.375153        10.2084 
  73   0.0000       0.379654        10.3309 
  74   0.0000       0.387972        10.5573 
  75   0.0000       0.405805        11.0425 
  76   0.0000       0.408160        11.1066 
  77   0.0000       0.421139        11.4598 
  78   0.0000       0.423273        11.5179 
  79   0.0000       0.429062        11.6754 
  80   0.0000       0.440352        11.9826 
  81   0.0000       0.446191        12.1415 
  82   0.0000       0.450942        12.2708 
  83   0.0000       0.460676        12.5356 
  84   0.0000       0.469808        12.7841 
  85   0.0000       0.473295        12.8790 
  86   0.0000       0.486151        13.2288 
  87   0.0000       0.502221        13.6661 
  88   0.0000       0.524347        14.2682 
  89   0.0000       0.539282        14.6746 
  90   0.0000       0.556814        15.1517 
  91   0.0000       0.578354        15.7378 
  92   0.0000       0.586180        15.9508 
  93   0.0000       0.596331        16.2270 
  94   0.0000       0.607660        16.5353 
  95   0.0000       0.617608        16.8060 
  96   0.0000       0.624203        16.9854 
  97   0.0000       0.633995        17.2519 
  98   0.0000       0.639704        17.4072 
  99   0.0000       0.652480        17.7549 
 100   0.0000       0.667554        18.1651 
 101   0.0000       0.674949        18.3663 
 102   0.0000       0.686646        18.6846 
 103   0.0000       0.702187        19.1075 
 104   0.0000       0.707916        19.2634 
 105   0.0000       0.715229        19.4624 
 106   0.0000       0.720865        19.6157 
 107   0.0000       0.724616        19.7178 
 108   0.0000       0.728356        19.8196 
 109   0.0000       0.733600        19.9623 
 110   0.0000       0.747425        20.3385 
 111   0.0000       0.764622        20.8064 
 112   0.0000       0.771026        20.9807 
 113   0.0000       0.784196        21.3390 
 114   0.0000       0.800838        21.7919 
 115   0.0000       0.803859        21.8741 
 116   0.0000       0.828546        22.5459 
 117   0.0000       0.846955        23.0468 
 118   0.0000       0.851765        23.1777 
 119   0.0000       0.879113        23.9219 
 120   0.0000       0.891205        24.2509 
 121   0.0000       0.914741        24.8914 
 122   0.0000       0.929318        25.2880 
 123   0.0000       0.950239        25.8573 
 124   0.0000       0.982339        26.7308 
 125   0.0000       0.998209        27.1626 
 126   0.0000       1.014188        27.5975 
 127   0.0000       1.022241        27.8166 
 128   0.0000       1.038775        28.2665 
 129   0.0000       1.054493        28.6942 
 130   0.0000       1.065740        29.0003 
 131   0.0000       1.082977        29.4693 
 132   0.0000       1.083853        29.4931 
 133   0.0000       1.133439        30.8424 
 134   0.0000       1.143194        31.1079 
 135   0.0000       1.169094        31.8127 
 136   0.0000       1.209654        32.9164 
 137   0.0000       1.223590        33.2956 
 138   0.0000       1.262866        34.3643 
 139   0.0000       1.286993        35.0209 
 140   0.0000       1.304302        35.4919 
 141   0.0000       1.314875        35.7796 
 142   0.0000       1.357512        36.9398 
 143   0.0000       1.385125        37.6912 
 144   0.0000       1.405235        38.2384 
 145   0.0000       1.484986        40.4085 
 146   0.0000       1.592291        43.3284 
 147   0.0000       1.623784        44.1854 
 148   0.0000       1.633806        44.4581 
 149   0.0000       1.655025        45.0355 
 150   0.0000       1.687465        45.9183 
 151   0.0000       1.707291        46.4578 
 152   0.0000       1.721735        46.8508 
 153   0.0000       1.792966        48.7891 
 154   0.0000       1.800174        48.9852 
 155   0.0000       1.813898        49.3587 
 156   0.0000       1.839959        50.0678 
 157   0.0000       1.855461        50.4897 
 158   0.0000       1.863244        50.7014 
 159   0.0000       1.890271        51.4369 
 160   0.0000       1.901220        51.7348 
 161   0.0000       1.917523        52.1785 
 162   0.0000       1.947459        52.9930 
 163   0.0000       1.953898        53.1683 
 164   0.0000       1.959067        53.3089 
 165   0.0000       1.974352        53.7249 
 166   0.0000       2.000242        54.4294 
 167   0.0000       2.035660        55.3931 
 168   0.0000       2.050260        55.7904 
 169   0.0000       2.093125        56.9568 
 170   0.0000       2.126771        57.8724 
 171   0.0000       2.177405        59.2502 
 172   0.0000       2.207544        60.0703 
 173   0.0000       2.231569        60.7241 
 174   0.0000       2.305150        62.7263 
 175   0.0000       2.333549        63.4991 
 176   0.0000       2.346403        63.8489 
 177   0.0000       2.418784        65.8185 
 178   0.0000       2.436107        66.2898 
 179   0.0000       2.460263        66.9472 
 180   0.0000       2.479928        67.4823 
 181   0.0000       2.514886        68.4335 
 182   0.0000       2.529157        68.8219 
 183   0.0000       2.536838        69.0309 
 184   0.0000       2.559892        69.6582 
 185   0.0000       2.583160        70.2913 
 186   0.0000       2.597277        70.6755 
 187   0.0000       2.618852        71.2626 
 188   0.0000       2.646909        72.0261 
 189   0.0000       2.653652        72.2095 
 190   0.0000       2.674604        72.7797 
 191   0.0000       2.703608        73.5689 
 192   0.0000       2.728464        74.2453 
 193   0.0000       2.750989        74.8582 
 194   0.0000       2.770715        75.3950 
 195   0.0000       2.810859        76.4874 
 196   0.0000       2.823286        76.8255 
 197   0.0000       2.847833        77.4935 
 198   0.0000       2.852860        77.6303 
 199   0.0000       2.901906        78.9649 
 200   0.0000       2.934506        79.8520 
 201   0.0000       2.974999        80.9538 
 202   0.0000       3.066084        83.4324 
 203   0.0000       3.097659        84.2916 
 204   0.0000       3.163542        86.0844 
 205   0.0000       3.201279        87.1112 
 206   0.0000       3.212214        87.4088 
 207   0.0000       3.239761        88.1584 
 208   0.0000       3.267624        88.9166 
 209   0.0000       3.279343        89.2355 
 210   0.0000       3.301509        89.8386 
 211   0.0000       3.338018        90.8321 
 212   0.0000       3.359740        91.4232 
 213   0.0000       3.390234        92.2530 
 214   0.0000       3.454120        93.9914 
 215   0.0000       3.480070        94.6975 
 216   0.0000       3.505667        95.3940 
 217   0.0000       3.538691        96.2927 
 218   0.0000       3.574682        97.2720 
 219   0.0000       3.582640        97.4886 
 220   0.0000       3.608480        98.1917 
 221   0.0000       3.656437        99.4967 
 222   0.0000       3.689833       100.4054 
 223   0.0000       3.725402       101.3733 
 224   0.0000       3.780540       102.8737 
 225   0.0000       3.881886       105.6315 
 226   0.0000       3.906704       106.3068 
 227   0.0000       3.982103       108.3585 
 228   0.0000       4.039477       109.9198 
 229   0.0000       4.105948       111.7285 
 230   0.0000       4.116594       112.0182 
 231   0.0000       4.186134       113.9105 
 232   0.0000       4.370789       118.9352 
 233   0.0000       4.431181       120.5786 
 234   0.0000       4.478107       121.8555 
 235   0.0000       4.595134       125.0399 
 236   0.0000       4.611601       125.4880 
 237   0.0000       4.716428       128.3405 
 238   0.0000       4.785354       130.2161 
 239   0.0000       4.970397       135.2514 
 240   0.0000       5.201728       141.5462 
 241   0.0000       5.215876       141.9312 
 242   0.0000       5.229784       142.3096 
 243   0.0000       5.235366       142.4616 
 244   0.0000       5.268784       143.3709 
 245   0.0000       5.299924       144.2183 
 246   0.0000       5.333569       145.1338 
 247   0.0000       5.415832       147.3723 
 248   0.0000       5.467578       148.7804 
 249   0.0000       5.613147       152.7415 
 250   0.0000       5.641442       153.5114 
 251   0.0000       5.693905       154.9390 
 252   0.0000       5.712557       155.4466 
 253   0.0000       5.814729       158.2268 
 254   0.0000       6.497228       176.7986 
 255   0.0000       6.515647       177.2998 
 256   0.0000       6.551458       178.2742 
 257   0.0000       6.605597       179.7474 
 258   0.0000       6.741769       183.4529 
 259   0.0000       6.754488       183.7990 
 260   0.0000       6.812166       185.3685 
 261   0.0000       6.844842       186.2576 
 262   0.0000       6.887600       187.4211 
 263   0.0000       6.901357       187.7955 
 264   0.0000       6.955883       189.2792 
 265   0.0000       6.992030       190.2628 
 266   0.0000       7.036275       191.4668 
 267   0.0000       7.083416       192.7496 
 268   0.0000       7.114418       193.5932 
 269   0.0000       7.159340       194.8156 
 270   0.0000       7.179626       195.3675 
 271   0.0000       8.498240       231.2489 
 272   0.0000       8.518209       231.7923 
 273   0.0000       8.706678       236.9208 
 274   0.0000       8.746774       238.0118 
 275   0.0000       8.975048       244.2235 
 276   0.0000       9.508771       258.7468 
 277   0.0000       9.836073       267.6532 
 278   0.0000       9.854757       268.1616 
 279   0.0000      22.398666       609.4987 
 280   0.0000      22.605627       615.1304 
 281   0.0000      22.824522       621.0868 
 282   0.0000      43.951692      1195.9863 
 283   0.0000      44.111437      1200.3332 
 284   0.0000      57.414470      1562.3272 

                    ********************************
                    * MULLIKEN POPULATION ANALYSIS *
                    ********************************

-----------------------
MULLIKEN ATOMIC CHARGES
-----------------------
   0 C :   -1.127672
   1 C :   -0.446284
   2 H :    0.358125
   3 H :    0.325040
   4 S :    1.156645
   5 O :   -0.548790
   6 O :   -0.564047
   7 F :   -0.171593
   8 H :    0.332562
   9 H :    0.341403
  10 H :    0.344612
Sum of atomic charges:    0.0000000

--------------------------------
MULLIKEN REDUCED ORBITAL CHARGES
--------------------------------
  0 C s       :     3.470096  s :     3.470096
      pz      :     1.332167  p :     3.609068
      px      :     1.043550
      py      :     1.233352
      dz2     :     0.019357  d :     0.044887
      dxz     :     0.004873
      dyz     :     0.001229
      dx2y2   :     0.011428
      dxy     :     0.008000
      f0      :     0.000658  f :     0.003621
      f+1     :     0.000688
      f-1     :     0.000257
      f+2     :     0.000110
      f-2     :     0.000353
      f+3     :     0.000813
      f-3     :     0.000742
  1 C s       :     3.199649  s :     3.199649
      pz      :     1.284295  p :     3.225245
      px      :     1.098418
      py      :     0.842532
      dz2     :     0.021334  d :     0.016440
      dxz     :    -0.007152
      dyz     :     0.005479
      dx2y2   :     0.000149
      dxy     :    -0.003371
      f0      :     0.000685  f :     0.004951
      f+1     :     0.000778
      f-1     :     0.000425
      f+2     :     0.000344
      f-2     :     0.000440
      f+3     :     0.001296
      f-3     :     0.000984
  2 H s       :     0.590569  s :     0.590569
      pz      :     0.031862  p :     0.051305
      px      :     0.011855
      py      :     0.007588
  3 H s       :     0.626073  s :     0.626073
      pz      :     0.020501  p :     0.048887
      px      :     0.022905
      py      :     0.005481
  4 S s       :     5.405501  s :     5.405501
      pz      :     2.630416  p :     8.127228
      px      :     2.619667
      py      :     2.877145
      dz2     :     0.244571  d :     1.184588
      dxz     :     0.276168
      dyz     :     0.177717
      dx2y2   :     0.290960
      dxy     :     0.195173
      f0      :     0.029213  f :     0.126038
      f+1     :     0.017638
      f-1     :     0.013741
      f+2     :     0.019704
      f-2     :     0.020741
      f+3     :     0.016379
      f-3     :     0.008623
  5 O s       :     3.946610  s :     3.946610
      pz      :     1.671844  p :     4.562891
      px      :     1.261965
      py      :     1.629082
      dz2     :     0.003201  d :     0.037236
      dxz     :     0.008842
      dyz     :     0.001401
      dx2y2   :     0.009949
      dxy     :     0.013843
      f0      :     0.000244  f :     0.002053
      f+1     :     0.000255
      f-1     :     0.000070
      f+2     :     0.000214
      f-2     :     0.000205
      f+3     :     0.000585
      f-3     :     0.000480
  6 O s       :     3.952191  s :     3.952191
      pz      :     1.320216  p :     4.573227
      px      :     1.567259
      py      :     1.685752
      dz2     :     0.010696  d :     0.036627
      dxz     :     0.011014
      dyz     :     0.009024
      dx2y2   :     0.001965
      dxy     :     0.003928
      f0      :     0.000469  f :     0.002002
      f+1     :     0.000515
      f-1     :     0.000249
      f+2     :     0.000320
      f-2     :     0.000325
      f+3     :     0.000063
      f-3     :     0.000061
  7 F s       :     3.929010  s :     3.929010
      pz      :     1.592056  p :     5.219733
      px      :     1.775671
      py      :     1.852005
      dz2     :     0.004439  d :     0.022035
      dxz     :     0.006540
      dyz     :     0.006281
      dx2y2   :     0.001726
      dxy     :     0.003049
      f0      :     0.000155  f :     0.000815
      f+1     :     0.000234
      f-1     :     0.000114
      f+2     :     0.000127
      f-2     :     0.000135
      f+3     :     0.000027
      f-3     :     0.000023
  8 H s       :     0.604922  s :     0.604922
      pz      :     0.019307  p :     0.062516
      px      :     0.029799
      py      :     0.013410
  9 H s       :     0.596800  s :     0.596800
      pz      :     0.022946  p :     0.061798
      px      :     0.003790
      py      :     0.035062
 10 H s       :     0.592425  s :     0.592425
      pz      :     0.035374  p :     0.062963
      px      :     0.014418
      py      :     0.013171


                     *******************************
                     * LOEWDIN POPULATION ANALYSIS *
                     *******************************

----------------------
LOEWDIN ATOMIC CHARGES
----------------------
   0 C :   -0.118382
   1 C :   -0.275733
   2 H :    0.102498
   3 H :    0.107281
   4 S :    0.595067
   5 O :   -0.272001
   6 O :   -0.275801
   7 F :   -0.081136
   8 H :    0.073529
   9 H :    0.074145
  10 H :    0.070533

-------------------------------
LOEWDIN REDUCED ORBITAL CHARGES
-------------------------------
  0 C s       :     2.720217  s :     2.720217
      pz      :     0.987527  p :     2.905608
      px      :     0.956886
      py      :     0.961196
      dz2     :     0.082821  d :     0.464745
      dxz     :     0.118764
      dyz     :     0.038303
      dx2y2   :     0.145694
      dxy     :     0.079162
      f0      :     0.003505  f :     0.027812
      f+1     :     0.003379
      f-1     :     0.003299
      f+2     :     0.002783
      f-2     :     0.004932
      f+3     :     0.005007
      f-3     :     0.004906
  1 C s       :     2.722857  s :     2.722857
      pz      :     0.981361  p :     2.819941
      px      :     0.981752
      py      :     0.856827
      dz2     :     0.114515  d :     0.700042
      dxz     :     0.144250
      dyz     :     0.087182
      dx2y2   :     0.204005
      dxy     :     0.150091
      f0      :     0.003672  f :     0.032893
      f+1     :     0.003682
      f-1     :     0.003807
      f+2     :     0.003623
      f-2     :     0.004950
      f+3     :     0.007187
      f-3     :     0.005970
  2 H s       :     0.687658  s :     0.687658
      pz      :     0.099066  p :     0.209844
      px      :     0.056677
      py      :     0.054101
  3 H s       :     0.677416  s :     0.677416
      pz      :     0.076398  p :     0.215303
      px      :     0.080288
      py      :     0.058616
  4 S s       :     4.574934  s :     4.574934
      pz      :     2.725401  p :     8.284303
      px      :     2.767466
      py      :     2.791436
      dz2     :     0.459119  d :     2.163155
      dxz     :     0.524857
      dyz     :     0.318952
      dx2y2   :     0.485455
      dxy     :     0.374772
      f0      :     0.080771  f :     0.382542
      f+1     :     0.067171
      f-1     :     0.040290
      f+2     :     0.058287
      f-2     :     0.057810
      f+3     :     0.047455
      f-3     :     0.030758
  5 O s       :     3.479483  s :     3.479483
      pz      :     1.542855  p :     4.540371
      px      :     1.447550
      py      :     1.549966
      dz2     :     0.030604  d :     0.247327
      dxz     :     0.059264
      dyz     :     0.011212
      dx2y2   :     0.076771
      dxy     :     0.069476
      f0      :     0.000405  f :     0.004821
      f+1     :     0.000894
      f-1     :     0.000211
      f+2     :     0.000377
      f-2     :     0.000353
      f+3     :     0.001114
      f-3     :     0.001466
  6 O s       :     3.474384  s :     3.474384
      pz      :     1.445434  p :     4.541585
      px      :     1.542087
      py      :     1.554065
      dz2     :     0.069391  d :     0.255119
      dxz     :     0.072684
      dyz     :     0.047604
      dx2y2   :     0.037239
      dxy     :     0.028201
      f0      :     0.000797  f :     0.004714
      f+1     :     0.001798
      f-1     :     0.000426
      f+2     :     0.000833
      f-2     :     0.000596
      f+3     :     0.000150
      f-3     :     0.000113
  7 F s       :     3.630703  s :     3.630703
      pz      :     1.679762  p :     5.216999
      px      :     1.756544
      py      :     1.780692
      dz2     :     0.070210  d :     0.231749
      dxz     :     0.062270
      dyz     :     0.043708
      dx2y2   :     0.029520
      dxy     :     0.026043
      f0      :     0.000298  f :     0.001685
      f+1     :     0.000525
      f-1     :     0.000230
      f+2     :     0.000249
      f-2     :     0.000282
      f+3     :     0.000057
      f-3     :     0.000045
  8 H s       :     0.701209  s :     0.701209
      pz      :     0.077799  p :     0.225262
      px      :     0.082769
      py      :     0.064694
  9 H s       :     0.703467  s :     0.703467
      pz      :     0.060193  p :     0.222388
      px      :     0.057036
      py      :     0.105159
 10 H s       :     0.691263  s :     0.691263
      pz      :     0.105475  p :     0.238205
      px      :     0.057612
      py      :     0.075118


                      *****************************
                      * MAYER POPULATION ANALYSIS *
                      *****************************

  NA   - Mulliken gross atomic population
  ZA   - Total nuclear charge
  QA   - Mulliken gross atomic charge
  VA   - Mayer's total valence
  BVA  - Mayer's bonded valence
  FA   - Mayer's free valence

  ATOM       NA         ZA         QA         VA         BVA        FA
  0 C      7.1277     6.0000    -1.1277     3.5425     3.5425     0.0000
  1 C      6.4463     6.0000    -0.4463     3.3924     3.3924    -0.0000
  2 H      0.6419     1.0000     0.3581     0.9320     0.9320    -0.0000
  3 H      0.6750     1.0000     0.3250     0.9518     0.9518    -0.0000
  4 S     14.8434    16.0000     1.1566     5.3326     5.3326    -0.0000
  5 O      8.5488     8.0000    -0.5488     1.9141     1.9141     0.0000
  6 O      8.5640     8.0000    -0.5640     1.8900     1.8900    -0.0000
  7 F      9.1716     9.0000    -0.1716     1.0846     1.0846     0.0000
  8 H      0.6674     1.0000     0.3326     1.0019     1.0019    -0.0000
  9 H      0.6586     1.0000     0.3414     0.9926     0.9926     0.0000
 10 H      0.6554     1.0000     0.3446     1.0044     1.0044    -0.0000

  Mayer bond orders larger than 0.100000
B(  0-C ,  1-C ) :   0.6262 B(  0-C ,  8-H ) :   0.9296 B(  0-C ,  9-H ) :   0.9349 
B(  0-C , 10-H ) :   0.9693 B(  1-C ,  2-H ) :   0.8891 B(  1-C ,  3-H ) :   0.9230 
B(  1-C ,  4-S ) :   0.8892 B(  4-S ,  5-O ) :   1.7043 B(  4-S ,  6-O ) :   1.6911 
B(  4-S ,  7-F ) :   0.9691 

-------
TIMINGS
-------

Total SCF time: 0 days 0 hours 1 min 3 sec 

Total time                  ....      63.966 sec
Sum of individual times     ....      63.472 sec  ( 99.2%)

Fock matrix formation       ....      61.640 sec  ( 96.4%)
  Split-RI-J                ....       2.400 sec  (  3.9% of F)
  Chain of spheres X        ....      53.233 sec  ( 86.4% of F)
  XC integration            ....       5.919 sec  (  9.6% of F)
    Basis function eval.    ....       1.535 sec  ( 25.9% of XC)
    Density eval.           ....       1.508 sec  ( 25.5% of XC)
    XC-Functional eval.     ....       0.566 sec  (  9.6% of XC)
    XC-Potential eval.      ....       2.079 sec  ( 35.1% of XC)
Diagonalization             ....       0.302 sec  (  0.5%)
Density matrix formation    ....       0.013 sec  (  0.0%)
Population analysis         ....       0.017 sec  (  0.0%)
Initial guess               ....       0.271 sec  (  0.4%)
Orbital Transformation      ....       0.000 sec  (  0.0%)
Orbital Orthonormalization  ....       0.000 sec  (  0.0%)
DIIS solution               ....       0.064 sec  (  0.1%)
SOSCF solution              ....       0.122 sec  (  0.2%)
Grid generation             ....       1.044 sec  (  1.6%)

Maximum memory used throughout the entire SCF-calculation: 76.4 MB

-------------------------   --------------------
FINAL SINGLE POINT ENERGY      -727.742041918769
-------------------------   --------------------


                            ***************************************
                            *     ORCA property calculations      *
                            ***************************************

                                    ---------------------
                                    Active property flags
                                    ---------------------
   (+) Dipole Moment


------------------------------------------------------------------------------
                       ORCA ELECTRIC PROPERTIES CALCULATION
------------------------------------------------------------------------------

Dipole Moment Calculation                       ... on
Quadrupole Moment Calculation                   ... off
Polarizability Calculation                      ... off
GBWName                                         ... TZVPD_CAMB3LYP_C3_wt_dlpno_neg.gbw
Electron density file                           ... TZVPD_CAMB3LYP_C3_wt_dlpno_neg.scfp
The origin for moment calculation is the CENTER OF MASS  = ( 3.247828,  0.932654 -8.496346)

-------------
DIPOLE MOMENT
-------------
                                X             Y             Z
Electronic contribution:      0.64107      -9.05409      -2.05866
Nuclear contribution   :     -0.92438      10.38956       1.27076
                        -----------------------------------------
Total Dipole Moment    :     -0.28331       1.33547      -0.78790
                        -----------------------------------------
Magnitude (a.u.)       :      1.57624
Magnitude (Debye)      :      4.00648



--------------------
Rotational spectrum 
--------------------
 
Rotational constants in cm-1:     0.154243     0.082247     0.080562 
Rotational constants in MHz :  4624.087322  2465.703680  2415.175852 

 Dipole components along the rotational axes: 
x,y,z [a.u.] :     1.273672     0.401982     0.837077 
x,y,z [Debye]:     3.237418     1.021756     2.127680 

 

Timings for individual modules:

Sum of individual times         ...       68.533 sec (=   1.142 min)
GTO integral calculation        ...        2.633 sec (=   0.044 min)   3.8 %
SCF iterations                  ...       65.900 sec (=   1.098 min)  96.2 %
                             ****ORCA TERMINATED NORMALLY****
TOTAL RUN TIME: 0 days 0 hours 1 minutes 9 seconds 50 msec
