
                                        *****************
                                        * O   R   C   A *
                                        *****************

                                            #,                                       
                                            ###                                      
                                            ####                                     
                                            #####                                    
                                            ######                                   
                                           ########,                                 
                                     ,,################,,,,,                         
                               ,,#################################,,                 
                          ,,##########################################,,             
                       ,#########################################, ''#####,          
                    ,#############################################,,   '####,        
                  ,##################################################,,,,####,       
                ,###########''''           ''''###############################       
              ,#####''   ,,,,##########,,,,          '''####'''          '####       
            ,##' ,,,,###########################,,,                        '##       
           ' ,,###''''                  '''############,,,                           
         ,,##''                                '''############,,,,        ,,,,,,###''
      ,#''                                            '''#######################'''  
     '                                                          ''''####''''         
             ,#######,   #######,   ,#######,      ##                                
            ,#'     '#,  ##    ##  ,#'     '#,    #''#        ######   ,####,        
            ##       ##  ##   ,#'  ##            #'  '#       #        #'  '#        
            ##       ##  #######   ##           ,######,      #####,   #    #        
            '#,     ,#'  ##    ##  '#,     ,#' ,#      #,         ##   #,  ,#        
             '#######'   ##     ##  '#######'  #'      '#     #####' # '####'        



                  #######################################################
                  #                        -***-                        #
                  #          Department of theory and spectroscopy      #
                  #    Directorship and core code : Frank Neese         #
                  #        Max Planck Institute fuer Kohlenforschung    #
                  #                Kaiser Wilhelm Platz 1               #
                  #                 D-45470 Muelheim/Ruhr               #
                  #                      Germany                        #
                  #                                                     #
                  #                  All rights reserved                #
                  #                        -***-                        #
                  #######################################################


                         Program Version 5.0.0 -  RELEASE  -
                                (SVN: $Rev: 19529$)
                ($Date: 2021-06-28 11:36:33 +0200 (Mo, 28 Jun 2021) $)


 With contributions from (in alphabetic order):
   Daniel Aravena         : Magnetic Suceptibility
   Michael Atanasov       : Ab Initio Ligand Field Theory (pilot matlab implementation)
   Alexander A. Auer      : GIAO ZORA, VPT2 properties, NMR spectrum
   Ute Becker             : Parallelization
   Giovanni Bistoni       : ED, misc. LED, open-shell LED, HFLD
   Martin Brehm           : Molecular dynamics
   Dmytro Bykov           : SCF Hessian
   Vijay G. Chilkuri      : MRCI spin determinant printing, contributions to CSF-ICE
   Dipayan Datta          : RHF DLPNO-CCSD density
   Achintya Kumar Dutta   : EOM-CC, STEOM-CC
   Dmitry Ganyushin       : Spin-Orbit,Spin-Spin,Magnetic field MRCI
   Miquel Garcia          : C-PCM Hessian, Gaussian charge scheme
   Yang Guo               : DLPNO-NEVPT2, F12-NEVPT2, CIM, IAO-localization
   Andreas Hansen         : Spin unrestricted coupled pair/coupled cluster methods
   Benjamin Helmich-Paris : MC-RPA, TRAH-SCF, COSX integrals
   Lee Huntington         : MR-EOM, pCC
   Robert Izsak           : Overlap fitted RIJCOSX, COSX-SCS-MP3, EOM
   Marcus Kettner         : VPT2
   Christian Kollmar      : KDIIS, OOCD, Brueckner-CCSD(T), CCSD density, CASPT2, CASPT2-K
   Simone Kossmann        : Meta GGA functionals, TD-DFT gradient, OOMP2, MP2 Hessian
   Martin Krupicka        : Initial AUTO-CI
   Lucas Lang             : DCDCAS
   Marvin Lechner         : AUTO-CI (C++ implementation), FIC-MRCC
   Dagmar Lenk            : GEPOL surface, SMD
   Dimitrios Liakos       : Extrapolation schemes; Compound Job, initial MDCI parallelization
   Dimitrios Manganas     : Further ROCIS development; embedding schemes
   Dimitrios Pantazis     : SARC Basis sets
   Anastasios Papadopoulos: AUTO-CI, single reference methods and gradients
   Taras Petrenko         : DFT Hessian,TD-DFT gradient, ASA, ECA, R-Raman, ABS, FL, XAS/XES, NRVS
   Peter Pinski           : DLPNO-MP2, DLPNO-MP2 Gradient
   Christoph Reimann      : Effective Core Potentials
   Marius Retegan         : Local ZFS, SOC
   Christoph Riplinger    : Optimizer, TS searches, QM/MM, DLPNO-CCSD(T), (RO)-DLPNO pert. Triples
   Tobias Risthaus        : Range-separated hybrids, TD-DFT gradient, RPA, STAB
   Michael Roemelt        : Original ROCIS implementation
   Masaaki Saitow         : Open-shell DLPNO-CCSD energy and density
   Barbara Sandhoefer     : DKH picture change effects
   Avijit Sen             : IP-ROCIS
   Kantharuban Sivalingam : CASSCF convergence, NEVPT2, FIC-MRCI
   Bernardo de Souza      : ESD, SOC TD-DFT
   Georgi Stoychev        : AutoAux, RI-MP2 NMR
   Willem Van den Heuvel  : Paramagnetic NMR
   Boris Wezisla          : Elementary symmetry handling
   Frank Wennmohs         : Technical directorship


 We gratefully acknowledge several colleagues who have allowed us to
 interface, adapt or use parts of their codes:
   Stefan Grimme, W. Hujo, H. Kruse, P. Pracht,  : VdW corrections, initial TS optimization,
                  C. Bannwarth, S. Ehlert          DFT functionals, gCP, sTDA/sTD-DF
   Ed Valeev, F. Pavosevic, A. Kumar             : LibInt (2-el integral package), F12 methods
   Garnet Chan, S. Sharma, J. Yang, R. Olivares  : DMRG
   Ulf Ekstrom                                   : XCFun DFT Library
   Mihaly Kallay                                 : mrcc  (arbitrary order and MRCC methods)
   Jiri Pittner, Ondrej Demel                    : Mk-CCSD
   Frank Weinhold                                : gennbo (NPA and NBO analysis)
   Christopher J. Cramer and Donald G. Truhlar   : smd solvation model
   Lars Goerigk                                  : TD-DFT with DH, B97 family of functionals
   V. Asgeirsson, H. Jonsson                     : NEB implementation
   FAccTs GmbH                                   : IRC, NEB, NEB-TS, DLPNO-Multilevel, CI-OPT
                                                   MM, QMMM, 2- and 3-layer-ONIOM, Crystal-QMMM,
                                                   LR-CPCM, SF, NACMEs, symmetry and pop. for TD-DFT,
                                                   nearIR, NL-DFT gradient (VV10), updates on ESD,
                                                   ML-optimized integration grids
   S Lehtola, MJT Oliveira, MAL Marques          : LibXC Library
   Liviu Ungur et al                             : ANISO software


 Your calculation uses the libint2 library for the computation of 2-el integrals
 For citations please refer to: http://libint.valeyev.net

 Your ORCA version has been built with support for libXC version: 5.1.0
 For citations please refer to: https://tddft.org/programs/libxc/

 This ORCA versions uses:
   CBLAS   interface :  Fast vector & matrix operations
   LAPACKE interface :  Fast linear algebra routines
   SCALAPACK package :  Parallel linear algebra routines
   Shared memory     :  Shared parallel matrices
   BLAS/LAPACK       :  OpenBLAS 0.3.15  USE64BITINT DYNAMIC_ARCH NO_AFFINITY Haswell SINGLE_THREADED
        Core in use  :  Haswell
   Copyright (c) 2011-2014, The OpenBLAS Project




***************************************
The coordinates will be read from file: D9.xyz
***************************************


Your calculation utilizes the atom-pairwise dispersion correction
with the zero-damping scheme (D30)
Cite in your paper:
S.Grimme, J.Antony, S.Ehrlich and H.Krieg, J.Chem.Phys., 132, (2010), 154104 
   

XCFun DFT library Copyright 2009-2010 Ulf Ekstrom and contributors.
See http://admol.org/xcfun for more information.
This is free software; see the source code for copying conditions.
There is ABSOLUTELY NO WARRANTY; not even for MERCHANTABILITY or FITNESS FOR A PARTICULAR PURPOSE.
For details see the documentation.
Scientific users of this library should cite U. Ekstrom, L. Visscher, R. Bast, A. J. Thorvaldsen and K. Ruud;
J.Chem.Theor.Comp. 2010, DOI: 10.1021/ct100117s
XCFun Version 0.99 

================================================================================

----- Orbital basis set information -----
Your calculation utilizes the basis: def2-TZVP
   F. Weigend and R. Ahlrichs, Phys. Chem. Chem. Phys. 7, 3297 (2005).

----- AuxJ basis set information -----
Your calculation utilizes the auxiliary basis: def2/J
   F. Weigend, Phys. Chem. Chem. Phys. 8, 1057 (2006).

================================================================================
                                        WARNINGS
                       Please study these warnings very carefully!
================================================================================


INFO   : the flag for use of the SHARK integral package has been found!

================================================================================
                                       INPUT FILE
================================================================================
NAME = D9.com
|  1> !wB97X-D3 RIJCOSX def2-TZVP def2/J TightSCF xyzfile                                                                                         
|  2> 
|  3> *xyzfile 0 1 D9.xyz
|  4> 
|  5> %MaxCore 64000
|  6> 
|  7> %pal nprocs 18
|  8> end  
|  9> 
| 10> %scf
| 11>   MaxIter 150
| 12> end
| 13> 
| 14> 
| 15>                          ****END OF INPUT****
================================================================================

                       ****************************
                       * Single Point Calculation *
                       ****************************

---------------------------------
CARTESIAN COORDINATES (ANGSTROEM)
---------------------------------
  C      4.490588    1.155899   -2.469290
  N      4.305394    1.222762   -3.908317
  C      4.906458   -3.102816   -5.954844
  C      3.511771   -2.806215   -6.492283
  H      2.736044   -3.373445   -5.973736
  H      3.444904   -3.040831   -7.555281
  S      3.004618   -1.096206   -6.389259
  C      4.631918    2.246365   -4.670958
  N      4.541686    2.143990   -5.987139
  C      5.084086    3.393584   -4.118545
  H      4.920675    3.570501   -3.135870
  H      5.254652    4.197390   -4.706956
  H      3.824530    0.449113   -4.350926
  H      4.343373    1.249318   -6.416646
  H      4.676712    2.956624   -6.574113
  O      4.128856   -0.329647   -6.953717
  O      1.781285   -1.000779   -7.136399
  C      5.942129    0.939500   -2.036893
  H      3.864305    0.328532   -2.136611
  H      4.076233    2.049994   -1.989010
  C      6.462677   -3.117775   -3.944671
  C      5.024977   -3.025679   -4.437625
  H      4.423321   -3.818693   -3.977648
  H      4.579350   -2.087131   -4.108727
  H      5.201533   -4.100207   -6.296905
  H      5.605922   -2.397822   -6.413368
  C      6.559957   -0.356290   -2.559086
  H      5.967976    0.952567   -0.942444
  H      6.547184    1.788331   -2.368849
  C      6.006283   -1.615917   -1.899301
  H      7.642360   -0.318000   -2.402059
  H      6.414855   -0.403433   -3.642587
  C      6.608718   -2.917014   -2.435655
  H      6.190324   -1.561115   -0.820948
  H      4.919250   -1.651245   -2.016586
  H      7.066975   -2.374258   -4.475514
  H      6.887808   -4.089747   -4.215332
  H      6.135197   -3.755573   -1.915159
  H      7.671142   -2.955503   -2.172291
  F      2.851546   -0.783683   -4.956789

----------------------------
CARTESIAN COORDINATES (A.U.)
----------------------------
  NO LB      ZA    FRAG     MASS         X           Y           Z
   0 C     6.0000    0    12.011    8.485982    2.184332   -4.666282
   1 N     7.0000    0    14.007    8.136015    2.310685   -7.385649
   2 C     6.0000    0    12.011    9.271862   -5.863473  -11.253025
   3 C     6.0000    0    12.011    6.636285   -5.302977  -12.268638
   4 H     1.0000    0     1.008    5.170374   -6.374888  -11.288724
   5 H     1.0000    0     1.008    6.509926   -5.746338  -14.277412
   6 S    16.0000    0    32.060    5.677904   -2.071530  -12.073950
   7 C     6.0000    0    12.011    8.753057    4.245015   -8.826831
   8 N     7.0000    0    14.007    8.582543    4.051553  -11.314052
   9 C     6.0000    0    12.011    9.607530    6.412945   -7.782923
  10 H     1.0000    0     1.008    9.298728    6.747268   -5.925936
  11 H     1.0000    0     1.008    9.929852    7.931917   -8.894858
  12 H     1.0000    0     1.008    7.227314    0.848701   -8.222058
  13 H     1.0000    0     1.008    8.207786    2.360868  -12.125704
  14 H     1.0000    0     1.008    8.837705    5.587209  -12.423274
  15 O     8.0000    0    15.999    7.802408   -0.622942  -13.140621
  16 O     8.0000    0    15.999    3.366140   -1.891199  -13.485840
  17 C     6.0000    0    12.011   11.228997    1.775397   -3.849170
  18 H     1.0000    0     1.008    7.302479    0.620836   -4.037610
  19 H     1.0000    0     1.008    7.702964    3.873927   -3.758685
  20 C     6.0000    0    12.011   12.212689   -5.891741   -7.454347
  21 C     6.0000    0    12.011    9.495831   -5.717705   -8.385896
  22 H     1.0000    0     1.008    8.358866   -7.216284   -7.516666
  23 H     1.0000    0     1.008    8.653718   -3.944106   -7.764369
  24 H     1.0000    0     1.008    9.829473   -7.748269  -11.899427
  25 H     1.0000    0     1.008   10.593657   -4.531226  -12.119509
  26 C     6.0000    0    12.011   12.396522   -0.673291   -4.835971
  27 H     1.0000    0     1.008   11.277840    1.800090   -1.780961
  28 H     1.0000    0     1.008   12.372385    3.379455   -4.476477
  29 C     6.0000    0    12.011   11.350230   -3.053641   -3.589158
  30 H     1.0000    0     1.008   14.441966   -0.600934   -4.539234
  31 H     1.0000    0     1.008   12.122318   -0.762378   -6.883492
  32 C     6.0000    0    12.011   12.488666   -5.512358   -4.602721
  33 H     1.0000    0     1.008   11.698016   -2.950080   -1.551366
  34 H     1.0000    0     1.008    9.296035   -3.120400   -3.810796
  35 H     1.0000    0     1.008   13.354648   -4.486697   -8.457496
  36 H     1.0000    0     1.008   13.016070   -7.728501   -7.965822
  37 H     1.0000    0     1.008   11.593841   -7.097005   -3.619127
  38 H     1.0000    0     1.008   14.496357   -5.585092   -4.105035
  39 F     9.0000    0    18.998    5.388641   -1.480946   -9.366974

--------------------------------
INTERNAL COORDINATES (ANGSTROEM)
--------------------------------
 C      0   0   0     0.000000000000     0.00000000     0.00000000
 N      1   0   0     1.452434888732     0.00000000     0.00000000
 C      2   1   0     4.822880648060   111.29935464     0.00000000
 C      3   2   1     1.523799819616    82.01111056   124.72570022
 H      4   3   2     1.091968299252   112.43309611   255.51929182
 H      4   3   2     1.090632873150   110.97759244   134.54655122
 S      4   3   2     1.786602224664   115.19977359    16.50892478
 C      2   1   3     1.317574833962   125.28497018   214.05519914
 N      8   2   1     1.323236350905   119.91604121   173.18858040
 C      8   2   1     1.351194480527   120.39094198   354.48825376
 H     10   8   2     1.011757151303   119.43893893   342.13916756
 H     10   8   2     1.010654769343   119.58539038   185.29571941
 H      2   1   3     1.012750840265   117.28239304    38.84614007
 H      9   8   2     1.012048706728   120.25757225   351.78674532
 H      9   8   2     1.011506480060   120.39405507   172.23609159
 O      7   4   3     1.473139212620   105.02973514    49.07238667
 O      7   4   3     1.436617023222   105.98041552   170.73821441
 C      1   2   3     1.529956533456   114.04751046    71.27147181
 H      1   2   3     1.089697165343   105.31628314   309.84494500
 H      1   2   3     1.096250554262   110.38499465   196.36075284
 C      3   2   1     2.542211031985    75.28786529   328.63877310
 C     21   3   2     1.522650424266    33.45203408    62.46988994
 H     22  21   3     1.096558425421   109.78678321   123.00138599
 H     22  21   3     1.089784085482   109.90626334   238.94967961
 H      3   2   1     1.094926392967   169.46526939   316.66150389
 H      3   2   1     1.093851646948    71.30795148   237.06279558
 C     18   1   2     1.527569327213   114.02213033   299.75436756
 H     18   1   2     1.094832037269   107.65179087   177.40351951
 H     18   1   2     1.093983651653   109.22173402    62.36298160
 C     27  18   1     1.525952470352   113.93276277   288.90034571
 H     27  18   1     1.094403426518   108.74093275   167.10616769
 H     27  18   1     1.094190161747   108.74874272    52.17399198
 C     21   3   2     1.529300762752   146.92063230    53.80488115
 H     30  27  18     1.095317124906   108.86941482   300.75108730
 H     30  27  18     1.093912987644   109.92906200    56.35085961
 H     21   3   2     1.095348999413    87.16372703   291.04892433
 H     21   3   2     1.094861915024    92.71949470   185.57163885
 H     33  21   3     1.094677724411   109.10507473    72.09358689
 H     33  21   3     1.095256828209   108.98305469   187.60350442
 F      7   4   3     1.474133937430   106.76381078   292.33403201

---------------------------
INTERNAL COORDINATES (A.U.)
---------------------------
 C      0   0   0     0.000000000000     0.00000000     0.00000000
 N      1   0   0     2.744704167055     0.00000000     0.00000000
 C      2   1   0     9.113923601421   111.29935464     0.00000000
 C      3   2   1     2.879564341994    82.01111056   124.72570022
 H      4   3   2     2.063521032510   112.43309611   255.51929182
 H      4   3   2     2.060997442905   110.97759244   134.54655122
 S      4   3   2     3.376188914869   115.19977359    16.50892478
 C      2   1   3     2.489855597135   125.28497018   214.05519914
 N      8   2   1     2.500554313659   119.91604121   173.18858040
 C      8   2   1     2.553387521862   120.39094198   354.48825376
 H     10   8   2     1.911943930000   119.43893893   342.13916756
 H     10   8   2     1.909860730000   119.58539038   185.29571941
 H      2   1   3     1.913821729999   117.28239304    38.84614007
 H      9   8   2     1.912494889904   120.25757225   351.78674532
 H      9   8   2     1.911470230000   120.39405507   172.23609159
 O      7   4   3     2.783829668993   105.02973514    49.07238667
 O      7   4   3     2.714812733219   105.98041552   170.73821441
 C      1   2   3     2.891198845036   114.04751046    71.27147181
 H      1   2   3     2.059229211409   105.31628314   309.84494500
 H      1   2   3     2.071613321715   110.38499465   196.36075284
 C      3   2   1     4.804082625084    75.28786529   328.63877310
 C     21   3   2     2.877392299561    33.45203408    62.46988994
 H     22  21   3     2.072195113889   109.78678321   123.00138599
 H     22  21   3     2.059393466667   109.90626334   238.94967961
 H      3   2   1     2.069111019509   169.46526939   316.66150389
 H      3   2   1     2.067080043870    71.30795148   237.06279558
 C     18   1   2     2.886687679010   114.02213033   299.75436756
 H     18   1   2     2.068932713082   107.65179087   177.40351951
 H     18   1   2     2.067329496612   109.22173402    62.36298160
 C     27  18   1     2.883632262346   113.93276277   288.90034571
 H     27  18   1     2.068122756144   108.74093275   167.10616769
 H     27  18   1     2.067719744133   108.74874272    52.17399198
 C     21   3   2     2.889959617997   146.92063230    53.80488115
 H     30  27  18     2.069849395866   108.86941482   300.75108730
 H     30  27  18     2.067195960987   109.92906200    56.35085961
 H     21   3   2     2.069909629955    87.16372703   291.04892433
 H     21   3   2     2.068989173855    92.71949470   185.57163885
 H     33  21   3     2.068641104040   109.10507473    72.09358689
 H     33  21   3     2.069735451623   108.98305469   187.60350442
 F      7   4   3     2.785709426462   106.76381078   292.33403201

---------------------
BASIS SET INFORMATION
---------------------
There are 6 groups of distinct atoms

 Group   1 Type C   : 11s6p2d1f contracted to 5s3p2d1f pattern {62111/411/11/1}
 Group   2 Type N   : 11s6p2d1f contracted to 5s3p2d1f pattern {62111/411/11/1}
 Group   3 Type H   : 5s1p contracted to 3s1p pattern {311/1}
 Group   4 Type S   : 14s9p3d1f contracted to 5s5p2d1f pattern {73211/51111/21/1}
 Group   5 Type O   : 11s6p2d1f contracted to 5s3p2d1f pattern {62111/411/11/1}
 Group   6 Type F   : 11s6p2d1f contracted to 5s3p2d1f pattern {62111/411/11/1}

Atom   0C    basis set group =>   1
Atom   1N    basis set group =>   2
Atom   2C    basis set group =>   1
Atom   3C    basis set group =>   1
Atom   4H    basis set group =>   3
Atom   5H    basis set group =>   3
Atom   6S    basis set group =>   4
Atom   7C    basis set group =>   1
Atom   8N    basis set group =>   2
Atom   9C    basis set group =>   1
Atom  10H    basis set group =>   3
Atom  11H    basis set group =>   3
Atom  12H    basis set group =>   3
Atom  13H    basis set group =>   3
Atom  14H    basis set group =>   3
Atom  15O    basis set group =>   5
Atom  16O    basis set group =>   5
Atom  17C    basis set group =>   1
Atom  18H    basis set group =>   3
Atom  19H    basis set group =>   3
Atom  20C    basis set group =>   1
Atom  21C    basis set group =>   1
Atom  22H    basis set group =>   3
Atom  23H    basis set group =>   3
Atom  24H    basis set group =>   3
Atom  25H    basis set group =>   3
Atom  26C    basis set group =>   1
Atom  27H    basis set group =>   3
Atom  28H    basis set group =>   3
Atom  29C    basis set group =>   1
Atom  30H    basis set group =>   3
Atom  31H    basis set group =>   3
Atom  32C    basis set group =>   1
Atom  33H    basis set group =>   3
Atom  34H    basis set group =>   3
Atom  35H    basis set group =>   3
Atom  36H    basis set group =>   3
Atom  37H    basis set group =>   3
Atom  38H    basis set group =>   3
Atom  39F    basis set group =>   6
---------------------------------
AUXILIARY/J BASIS SET INFORMATION
---------------------------------
There are 6 groups of distinct atoms

 Group   1 Type C   : 12s5p4d2f1g contracted to 6s4p3d1f1g pattern {711111/2111/211/2/1}
 Group   2 Type N   : 12s5p4d2f1g contracted to 6s4p3d1f1g pattern {711111/2111/211/2/1}
 Group   3 Type H   : 5s2p1d contracted to 3s1p1d pattern {311/2/1}
 Group   4 Type S   : 14s5p5d2f1g contracted to 8s4p3d1f1g pattern {71111111/2111/311/2/1}
 Group   5 Type O   : 12s5p4d2f1g contracted to 6s4p3d1f1g pattern {711111/2111/211/2/1}
 Group   6 Type F   : 12s5p4d2f1g contracted to 6s4p3d1f1g pattern {711111/2111/211/2/1}

Atom   0C    basis set group =>   1
Atom   1N    basis set group =>   2
Atom   2C    basis set group =>   1
Atom   3C    basis set group =>   1
Atom   4H    basis set group =>   3
Atom   5H    basis set group =>   3
Atom   6S    basis set group =>   4
Atom   7C    basis set group =>   1
Atom   8N    basis set group =>   2
Atom   9C    basis set group =>   1
Atom  10H    basis set group =>   3
Atom  11H    basis set group =>   3
Atom  12H    basis set group =>   3
Atom  13H    basis set group =>   3
Atom  14H    basis set group =>   3
Atom  15O    basis set group =>   5
Atom  16O    basis set group =>   5
Atom  17C    basis set group =>   1
Atom  18H    basis set group =>   3
Atom  19H    basis set group =>   3
Atom  20C    basis set group =>   1
Atom  21C    basis set group =>   1
Atom  22H    basis set group =>   3
Atom  23H    basis set group =>   3
Atom  24H    basis set group =>   3
Atom  25H    basis set group =>   3
Atom  26C    basis set group =>   1
Atom  27H    basis set group =>   3
Atom  28H    basis set group =>   3
Atom  29C    basis set group =>   1
Atom  30H    basis set group =>   3
Atom  31H    basis set group =>   3
Atom  32C    basis set group =>   1
Atom  33H    basis set group =>   3
Atom  34H    basis set group =>   3
Atom  35H    basis set group =>   3
Atom  36H    basis set group =>   3
Atom  37H    basis set group =>   3
Atom  38H    basis set group =>   3
Atom  39F    basis set group =>   6


           ************************************************************
           *        Program running with 18 parallel MPI-processes    *
           *              working on a common directory               *
           ************************************************************
------------------------------------------------------------------------------
                           ORCA GTO INTEGRAL CALCULATION
                           -- RI-GTO INTEGRALS CHOSEN --
------------------------------------------------------------------------------
------------------------------------------------------------------------------
                   ___                                                        
                  /   \      - P O W E R E D   B Y -                         
                 /     \                                                     
                 |  |  |   _    _      __       _____    __    __             
                 |  |  |  | |  | |    /  \     |  _  \  |  |  /  |          
                  \  \/   | |  | |   /    \    | | | |  |  | /  /          
                 / \  \   | |__| |  /  /\  \   | |_| |  |  |/  /          
                |  |  |   |  __  | /  /__\  \  |    /   |      \           
                |  |  |   | |  | | |   __   |  |    \   |  |\   \          
                \     /   | |  | | |  |  |  |  | |\  \  |  | \   \       
                 \___/    |_|  |_| |__|  |__|  |_| \__\ |__|  \__/        
                                                                              
                      - O R C A' S   B I G   F R I E N D -                    
                                      &                                       
                       - I N T E G R A L  F E E D E R -                       
                                                                              
 v1 FN, 2020, v2 2021                                                         
------------------------------------------------------------------------------


Reading SHARK input file D9.SHARKINP.tmp ... ok
----------------------
SHARK INTEGRAL PACKAGE
----------------------

Number of atoms                             ...     40
Number of basis functions                   ...    671
Number of shells                            ...    281
Maximum angular momentum                    ...      3
Integral batch strategy                     ... SHARK/LIBINT Hybrid
RI-J (if used) integral strategy            ... SPLIT-RIJ (Revised 2003 algorithm where possible)
Printlevel                                  ...      1
Contraction scheme used                     ... SEGMENTED contraction
Coulomb Range Separation                    ... NOT USED
Exchange Range Separation                   ... Long Range
   Mu parameter                             ...  0.250000
   Scaling (regular/separated)              ...  0.195728  0.804272
Finite Nucleus Model                        ... NOT USED
Auxiliary Coulomb fitting basis             ... AVAILABLE
   # of basis functions in Aux-J            ...   1088
   # of shells in Aux-J                     ...    372
   Maximum angular momentum in Aux-J        ...      4
Auxiliary J/K fitting basis                 ... NOT available
Auxiliary Correlation fitting basis         ... NOT available
Auxiliary 'external' fitting basis          ... NOT available
Integral threshold                          ...     2.500000e-11
Primitive cut-off                           ...     2.500000e-12
Primitive pair pre-selection threshold      ...     2.500000e-12

Calculating pre-screening integrals         ... done (  0.5 sec) Dimension = 281
Organizing shell pair data                  ... done (  0.4 sec)
Shell pair information
Total number of shell pairs                 ...     39621
Shell pairs after pre-screening             ...     30255
Total number of primitive shell pairs       ...    118312
Primitive shell pairs kept                  ...     61129
          la=0 lb=0:   9058 shell pairs
          la=1 lb=0:   9091 shell pairs
          la=1 lb=1:   2349 shell pairs
          la=2 lb=0:   3926 shell pairs
          la=2 lb=1:   2034 shell pairs
          la=2 lb=2:    468 shell pairs
          la=3 lb=0:   1853 shell pairs
          la=3 lb=1:    958 shell pairs
          la=3 lb=2:    418 shell pairs
          la=3 lb=3:    100 shell pairs

Calculating one electron integrals          ... done (  0.1 sec)
Calculating RI/J V-Matrix + Cholesky decomp.... done (  0.4 sec)
Calculating Nuclear repulsion               ... done (  0.0 sec) ENN=   1577.324071640470 Eh

SHARK setup successfully completed in   1.4 seconds

Maximum memory used throughout the entire GTOINT-calculation: 45.0 MB


           ************************************************************
           *        Program running with 18 parallel MPI-processes    *
           *              working on a common directory               *
           ************************************************************
-------------------------------------------------------------------------------
                                 ORCA SCF
-------------------------------------------------------------------------------

------------
SCF SETTINGS
------------
Hamiltonian:
 Density Functional     Method          .... DFT(GTOs)
 Exchange Functional    Exchange        .... WB97X-D3
 Correlation Functional Correlation     .... WB97X-D3
 Gradients option       PostSCFGGA      .... off
 Hybrid DFT is turned on
   Fraction HF Exchange ScalHFX         ....  0.195728
   Scaling of DF-GGA-X  ScalDFX         ....  0.000000
   Scaling of DF-GGA-C  ScalDFC         ....  1.000000
   Scaling of DF-LDA-C  ScalLDAC        ....  1.000000
   Perturbative correction              ....  0.000000
   Density functional embedding theory  .... OFF
 Long-range corrected/Screened/Range-Separated Hybrid DFT is turned on
   Amount of maximum screened exact exchange              ....  0.804272
   Range separation parameter mu (erf(mu*r12)/r12)        ....  0.250000
 RI-approximation to the Coulomb term is turned on
   Number of AuxJ basis functions       .... 1088
   RIJ-COSX (HFX calculated with COS-X)).... on


General Settings:
 Integral files         IntName         .... D9
 Hartree-Fock type      HFTyp           .... RHF
 Total Charge           Charge          ....    0
 Multiplicity           Mult            ....    1
 Number of Electrons    NEL             ....  144
 Basis Dimension        Dim             ....  671
 Nuclear Repulsion      ENuc            ....   1577.3240716405 Eh

Convergence Acceleration:
 DIIS                   CNVDIIS         .... on
   Start iteration      DIISMaxIt       ....    12
   Startup error        DIISStart       ....  0.200000
   # of expansion vecs  DIISMaxEq       ....     5
   Bias factor          DIISBfac        ....   1.050
   Max. coefficient     DIISMaxC        ....  10.000
 Trust-Rad. Augm. Hess. CNVTRAH         .... auto
   Auto Start mean grad. ratio tolernc. ....  1.125000
   Auto Start start iteration           ....    20
   Auto Start num. interpolation iter.  ....    10
   Max. Number of Micro iterations      ....    16
   Max. Number of Macro iterations      .... Maxiter - #DIIS iter
   Number of Davidson start vectors     ....     2
   Converg. threshold I  (grad. norm)   ....   1.000e-05
   Converg. threshold II (energy diff.) ....   1.000e-08
   Grad. Scal. Fac. for Micro threshold ....   0.100
   Minimum threshold for Micro iter.    ....   0.010
   NR start threshold (gradient norm)   ....   0.001
   Initial trust radius                 ....   0.400
   Minimum AH scaling param. (alpha)    ....   1.000
   Maximum AH scaling param. (alpha)    .... 1000.000
   Orbital update algorithm             .... Taylor
   White noise on init. David. guess    .... on
   Maximum white noise                  ....   0.010
   Quad. conv. algorithm                .... NR
 SOSCF                  CNVSOSCF        .... on
   Start iteration      SOSCFMaxIt      ....   150
   Startup grad/error   SOSCFStart      ....  0.003300
 Level Shifting         CNVShift        .... on
   Level shift para.    LevelShift      ....    0.2500
   Turn off err/grad.   ShiftErr        ....    0.0010
 Zerner damping         CNVZerner       .... off
 Static damping         CNVDamp         .... on
   Fraction old density DampFac         ....    0.7000
   Max. Damping (<1)    DampMax         ....    0.9800
   Min. Damping (>=0)   DampMin         ....    0.0000
   Turn off err/grad.   DampErr         ....    0.1000
 Fernandez-Rico         CNVRico         .... off

SCF Procedure:
 Maximum # iterations   MaxIter         ....   150
 SCF integral mode      SCFMode         .... Direct
   Integral package                     .... SHARK and LIBINT hybrid scheme
 Reset frequency        DirectResetFreq ....    20
 Integral Threshold     Thresh          ....  2.500e-11 Eh
 Primitive CutOff       TCut            ....  2.500e-12 Eh

Convergence Tolerance:
 Convergence Check Mode ConvCheckMode   .... Total+1el-Energy
 Convergence forced     ConvForced      .... 0
 Energy Change          TolE            ....  1.000e-08 Eh
 1-El. energy change                    ....  1.000e-05 Eh
 Orbital Gradient       TolG            ....  1.000e-05
 Orbital Rotation angle TolX            ....  1.000e-05
 DIIS Error             TolErr          ....  5.000e-07


Diagonalization of the overlap matrix:
Smallest eigenvalue                        ... 7.330e-05
Time for diagonalization                   ...    0.137 sec
Threshold for overlap eigenvalues          ... 1.000e-08
Number of eigenvalues below threshold      ... 0
Time for construction of square roots      ...    0.351 sec
Total time needed                          ...    0.492 sec

Time for model grid setup =    0.305 sec

------------------------------
INITIAL GUESS: MODEL POTENTIAL
------------------------------
Loading Hartree-Fock densities                     ... done
Calculating cut-offs                               ... done
Initializing the effective Hamiltonian             ... done
Setting up the integral package (SHARK)            ... done
Starting the Coulomb interaction                   ... done (   0.4 sec)
Reading the grid                                   ... done
Mapping shells                                     ... done
Starting the XC term evaluation                    ... done (   0.2 sec)
  promolecular density results
     # of electrons  =    143.981473746
     EX              =   -127.653170241
     EC              =     -4.951140353
     EX+EC           =   -132.604310594
Transforming the Hamiltonian                       ... done (   0.2 sec)
Diagonalizing the Hamiltonian                      ... done (   0.1 sec)
Back transforming the eigenvectors                 ... done (   0.0 sec)
Now organizing SCF variables                       ... done
                      ------------------
                      INITIAL GUESS DONE (   1.3 sec)
                      ------------------
-------------------
DFT GRID GENERATION
-------------------

General Integration Accuracy     IntAcc      ... 4.388
Radial Grid Type                 RadialGrid  ... OptM3 with GC (2021)
Angular Grid (max. ang.)         AngularGrid ... 4 (Lebedev-302)
Angular grid pruning method      GridPruning ... 4 (adaptive)
Weight generation scheme         WeightScheme... Becke
Basis function cutoff            BFCut       ... 1.0000e-11
Integration weight cutoff        WCut        ... 1.0000e-14
Angular grids for H and He will be reduced by one unit
Partially contracted basis set               ... off
Rotationally invariant grid construction     ... off

Total number of grid points                  ...   175246
Total number of batches                      ...     2761
Average number of points per batch           ...       63
Average number of grid points per atom       ...     4381
Time for grid setup =    1.293 sec

--------------------
COSX GRID GENERATION
--------------------

GRIDX 1
-------
General Integration Accuracy     IntAcc      ... 3.816
Radial Grid Type                 RadialGrid  ... OptM3 with GC (2021)
Angular Grid (max. ang.)         AngularGrid ... 1 (Lebedev-50)
Angular grid pruning method      GridPruning ... 4 (adaptive)
Weight generation scheme         WeightScheme... Becke
Basis function cutoff            BFCut       ... 1.0000e-11
Integration weight cutoff        WCut        ... 1.0000e-14
Angular grids for H and He will be reduced by one unit
Partially contracted basis set               ... on
Rotationally invariant grid construction     ... off

Total number of grid points                  ...    22236
Total number of batches                      ...      375
Average number of points per batch           ...       59
Average number of grid points per atom       ...      556
UseSFitting                                  ... on

GRIDX 2
-------
General Integration Accuracy     IntAcc      ... 4.020
Radial Grid Type                 RadialGrid  ... OptM3 with GC (2021)
Angular Grid (max. ang.)         AngularGrid ... 2 (Lebedev-110)
Angular grid pruning method      GridPruning ... 4 (adaptive)
Weight generation scheme         WeightScheme... Becke
Basis function cutoff            BFCut       ... 1.0000e-11
Integration weight cutoff        WCut        ... 1.0000e-14
Angular grids for H and He will be reduced by one unit
Partially contracted basis set               ... on
Rotationally invariant grid construction     ... off

Total number of grid points                  ...    46723
Total number of batches                      ...      752
Average number of points per batch           ...       62
Average number of grid points per atom       ...     1168
UseSFitting                                  ... on

GRIDX 3
-------
General Integration Accuracy     IntAcc      ... 4.338
Radial Grid Type                 RadialGrid  ... OptM3 with GC (2021)
Angular Grid (max. ang.)         AngularGrid ... 3 (Lebedev-194)
Angular grid pruning method      GridPruning ... 4 (adaptive)
Weight generation scheme         WeightScheme... Becke
Basis function cutoff            BFCut       ... 1.0000e-11
Integration weight cutoff        WCut        ... 1.0000e-14
Angular grids for H and He will be reduced by one unit
Partially contracted basis set               ... on
Rotationally invariant grid construction     ... off

Total number of grid points                  ...   102086
Total number of batches                      ...     1622
Average number of points per batch           ...       62
Average number of grid points per atom       ...     2552
UseSFitting                                  ... on

Time for X-Grid setup             =    1.172 sec

--------------
SCF ITERATIONS
--------------
ITER       Energy         Delta-E        Max-DP      RMS-DP      [F,P]     Damp
               ***  Starting incremental Fock matrix formation  ***
  0  -1190.3021212732   0.000000000000 0.12571129  0.00072336  0.2827644 0.7000
  1  -1190.6215724788  -0.319451205587 0.06087078  0.00054248  0.1495905 0.7000
                               ***Turning on DIIS***
  2  -1190.7679139440  -0.146341465231 0.07301463  0.00103428  0.0767596 0.0000
  3  -1191.0062220979  -0.238308153923 0.06409148  0.00035330  0.0613665 0.0000
  4  -1191.0452715436  -0.039049445670 0.01269220  0.00010236  0.0129619 0.0000
  5  -1191.0466883984  -0.001416854865 0.00438848  0.00003717  0.0082436 0.0000
                      *** Initiating the SOSCF procedure ***
                           *** Shutting down DIIS ***
                      *** Re-Reading the Fockian *** 
                      *** Removing any level shift *** 
ITER      Energy       Delta-E        Grad      Rot      Max-DP    RMS-DP
  6  -1191.04691650  -0.0002281065  0.000436  0.000436  0.001864  0.000026
               *** Restarting incremental Fock matrix formation ***
  7  -1191.04696781  -0.0000513040  0.000110  0.000180  0.000890  0.000014
  8  -1191.04696958  -0.0000017718  0.000142  0.000247  0.000431  0.000005
  9  -1191.04697119  -0.0000016078  0.000022  0.000074  0.000181  0.000002
 10  -1191.04697123  -0.0000000430  0.000013  0.000018  0.000076  0.000001
 11  -1191.04697126  -0.0000000307  0.000004  0.000006  0.000027  0.000000
 12  -1191.04697128  -0.0000000195  0.000003  0.000002  0.000010  0.000000
                  ***Gradient check signals convergence***
              ***Rediagonalizing the Fockian in SOSCF/NRSCF***

               *****************************************************
               *                     SUCCESS                       *
               *           SCF CONVERGED AFTER  13 CYCLES          *
               *****************************************************

Old exchange energy                            =    -41.019624173 Eh
New exchange energy                            =    -41.019628639 Eh
Exchange energy change after final integration =     -0.000004466 Eh
Total energy after final integration           =  -1191.046975735 Eh
Final COS-X integration done in                =    19.408 sec

----------------
TOTAL SCF ENERGY
----------------

Total Energy       :        -1191.04697574 Eh          -32410.03590 eV

Components:
Nuclear Repulsion  :         1577.32407164 Eh           42921.17006 eV
Electronic Energy  :        -2768.37104738 Eh          -75331.20596 eV
One Electron Energy:        -4763.92372412 Eh         -129632.95495 eV
Two Electron Energy:         1995.55267675 Eh           54301.74898 eV
Max COSX asymmetry :            0.00000362 Eh               0.00010 eV

Virial components:
Potential Energy   :        -2378.48069901 Eh          -64721.75021 eV
Kinetic Energy     :         1187.43372328 Eh           32311.71431 eV
Virial Ratio       :            2.00304291


DFT components:
N(Alpha)           :       71.999722373676 electrons
N(Beta)            :       71.999722373676 electrons
N(Total)           :      143.999444747352 electrons
E(XC)              :      -94.836606342463 Eh       
DFET-embed. en.    :        0.000000000000 Eh       

---------------
SCF CONVERGENCE
---------------

  Last Energy change         ...    1.2122e-08  Tolerance :   1.0000e-08
  Last MAX-Density change    ...    4.6629e-15  Tolerance :   1.0000e-07
  Last RMS-Density change    ...    1.5721e-17  Tolerance :   5.0000e-09
  Last Orbital Gradient      ...    3.9715e-07  Tolerance :   1.0000e-05
  Last Orbital Rotation      ...    1.3520e-06  Tolerance :   1.0000e-05

             **** THE GBW FILE WAS UPDATED (D9.gbw) ****
             **** DENSITY D9.scfp WAS UPDATED ****
             **** ENERGY FILE WAS UPDATED (D9.en.tmp) ****
             **** THE GBW FILE WAS UPDATED (D9.gbw) ****
             **** DENSITY D9.scfp WAS UPDATED ****
----------------
ORBITAL ENERGIES
----------------

  NO   OCC          E(Eh)            E(eV) 
   0   2.0000     -89.221530     -2427.8413 
   1   2.0000     -24.925593      -678.2599 
   2   2.0000     -19.269627      -524.3532 
   3   2.0000     -19.266522      -524.2687 
   4   2.0000     -14.408889      -392.0858 
   5   2.0000     -14.385302      -391.4440 
   6   2.0000     -10.354858      -281.7700 
   7   2.0000     -10.313568      -280.6465 
   8   2.0000     -10.304976      -280.4126 
   9   2.0000     -10.299434      -280.2618 
  10   2.0000     -10.296421      -280.1799 
  11   2.0000     -10.284122      -279.8452 
  12   2.0000     -10.277569      -279.6669 
  13   2.0000     -10.271642      -279.5056 
  14   2.0000     -10.263710      -279.2898 
  15   2.0000     -10.258708      -279.1536 
  16   2.0000     -10.164444      -276.5886 
  17   2.0000      -8.285367      -225.4563 
  18   2.0000      -6.243010      -169.8809 
  19   2.0000      -6.236255      -169.6971 
  20   2.0000      -6.235680      -169.6815 
  21   2.0000      -1.511757       -41.1370 
  22   2.0000      -1.254296       -34.1311 
  23   2.0000      -1.159951       -31.5639 
  24   2.0000      -1.072066       -29.1724 
  25   2.0000      -0.984194       -26.7813 
  26   2.0000      -0.975553       -26.5461 
  27   2.0000      -0.937457       -25.5095 
  28   2.0000      -0.903507       -24.5857 
  29   2.0000      -0.870817       -23.6961 
  30   2.0000      -0.847289       -23.0559 
  31   2.0000      -0.814559       -22.1653 
  32   2.0000      -0.801117       -21.7995 
  33   2.0000      -0.775110       -21.0918 
  34   2.0000      -0.750589       -20.4246 
  35   2.0000      -0.721994       -19.6464 
  36   2.0000      -0.712938       -19.4000 
  37   2.0000      -0.705811       -19.2061 
  38   2.0000      -0.686972       -18.6935 
  39   2.0000      -0.673189       -18.3184 
  40   2.0000      -0.643199       -17.5023 
  41   2.0000      -0.628905       -17.1134 
  42   2.0000      -0.618282       -16.8243 
  43   2.0000      -0.611208       -16.6318 
  44   2.0000      -0.596105       -16.2208 
  45   2.0000      -0.593855       -16.1596 
  46   2.0000      -0.576995       -15.7008 
  47   2.0000      -0.573753       -15.6126 
  48   2.0000      -0.554765       -15.0959 
  49   2.0000      -0.550459       -14.9788 
  50   2.0000      -0.538469       -14.6525 
  51   2.0000      -0.536291       -14.5932 
  52   2.0000      -0.518113       -14.0986 
  53   2.0000      -0.509625       -13.8676 
  54   2.0000      -0.495901       -13.4942 
  55   2.0000      -0.489191       -13.3116 
  56   2.0000      -0.482080       -13.1181 
  57   2.0000      -0.473577       -12.8867 
  58   2.0000      -0.467347       -12.7172 
  59   2.0000      -0.460353       -12.5269 
  60   2.0000      -0.456246       -12.4151 
  61   2.0000      -0.451109       -12.2753 
  62   2.0000      -0.445341       -12.1183 
  63   2.0000      -0.440250       -11.9798 
  64   2.0000      -0.437965       -11.9176 
  65   2.0000      -0.431579       -11.7439 
  66   2.0000      -0.427985       -11.6461 
  67   2.0000      -0.411414       -11.1951 
  68   2.0000      -0.409916       -11.1544 
  69   2.0000      -0.400616       -10.9013 
  70   2.0000      -0.323291        -8.7972 
  71   2.0000      -0.232657        -6.3309 
  72   0.0000       0.075821         2.0632 
  73   0.0000       0.097917         2.6644 
  74   0.0000       0.110562         3.0085 
  75   0.0000       0.114715         3.1216 
  76   0.0000       0.121771         3.3136 
  77   0.0000       0.132062         3.5936 
  78   0.0000       0.135147         3.6775 
  79   0.0000       0.138717         3.7747 
  80   0.0000       0.150038         4.0827 
  81   0.0000       0.156146         4.2489 
  82   0.0000       0.157486         4.2854 
  83   0.0000       0.162935         4.4337 
  84   0.0000       0.167277         4.5518 
  85   0.0000       0.172520         4.6945 
  86   0.0000       0.183367         4.9897 
  87   0.0000       0.184649         5.0245 
  88   0.0000       0.188233         5.1221 
  89   0.0000       0.193337         5.2610 
  90   0.0000       0.199906         5.4397 
  91   0.0000       0.205111         5.5813 
  92   0.0000       0.209585         5.7031 
  93   0.0000       0.220847         6.0096 
  94   0.0000       0.223861         6.0916 
  95   0.0000       0.229964         6.2576 
  96   0.0000       0.235126         6.3981 
  97   0.0000       0.242044         6.5863 
  98   0.0000       0.248314         6.7570 
  99   0.0000       0.252942         6.8829 
 100   0.0000       0.258087         7.0229 
 101   0.0000       0.262251         7.1362 
 102   0.0000       0.270191         7.3523 
 103   0.0000       0.275171         7.4878 
 104   0.0000       0.279276         7.5995 
 105   0.0000       0.285602         7.7716 
 106   0.0000       0.292687         7.9644 
 107   0.0000       0.299691         8.1550 
 108   0.0000       0.306318         8.3353 
 109   0.0000       0.309516         8.4224 
 110   0.0000       0.317990         8.6529 
 111   0.0000       0.322575         8.7777 
 112   0.0000       0.327679         8.9166 
 113   0.0000       0.335407         9.1269 
 114   0.0000       0.338117         9.2006 
 115   0.0000       0.343729         9.3533 
 116   0.0000       0.348969         9.4959 
 117   0.0000       0.354473         9.6457 
 118   0.0000       0.366670         9.9776 
 119   0.0000       0.368568        10.0292 
 120   0.0000       0.380025        10.3410 
 121   0.0000       0.382044        10.3960 
 122   0.0000       0.389574        10.6008 
 123   0.0000       0.391963        10.6658 
 124   0.0000       0.400759        10.9052 
 125   0.0000       0.407853        11.0982 
 126   0.0000       0.420363        11.4386 
 127   0.0000       0.426834        11.6148 
 128   0.0000       0.431663        11.7461 
 129   0.0000       0.435437        11.8488 
 130   0.0000       0.445088        12.1115 
 131   0.0000       0.448543        12.2055 
 132   0.0000       0.450891        12.2694 
 133   0.0000       0.459264        12.4972 
 134   0.0000       0.465273        12.6607 
 135   0.0000       0.472127        12.8472 
 136   0.0000       0.480346        13.0709 
 137   0.0000       0.481360        13.0985 
 138   0.0000       0.486867        13.2483 
 139   0.0000       0.492121        13.3913 
 140   0.0000       0.497070        13.5260 
 141   0.0000       0.500827        13.6282 
 142   0.0000       0.505329        13.7507 
 143   0.0000       0.508383        13.8338 
 144   0.0000       0.510542        13.8926 
 145   0.0000       0.517579        14.0840 
 146   0.0000       0.519772        14.1437 
 147   0.0000       0.522546        14.2192 
 148   0.0000       0.529953        14.4208 
 149   0.0000       0.533439        14.5156 
 150   0.0000       0.538778        14.6609 
 151   0.0000       0.539807        14.6889 
 152   0.0000       0.542304        14.7568 
 153   0.0000       0.547731        14.9045 
 154   0.0000       0.550718        14.9858 
 155   0.0000       0.552990        15.0476 
 156   0.0000       0.557309        15.1652 
 157   0.0000       0.560273        15.2458 
 158   0.0000       0.561679        15.2841 
 159   0.0000       0.571381        15.5481 
 160   0.0000       0.581240        15.8163 
 161   0.0000       0.585692        15.9375 
 162   0.0000       0.587258        15.9801 
 163   0.0000       0.591611        16.0986 
 164   0.0000       0.598100        16.2751 
 165   0.0000       0.602812        16.4034 
 166   0.0000       0.604135        16.4394 
 167   0.0000       0.607417        16.5286 
 168   0.0000       0.619072        16.8458 
 169   0.0000       0.624608        16.9965 
 170   0.0000       0.629594        17.1321 
 171   0.0000       0.638689        17.3796 
 172   0.0000       0.645092        17.5538 
 173   0.0000       0.656636        17.8680 
 174   0.0000       0.660209        17.9652 
 175   0.0000       0.668680        18.1957 
 176   0.0000       0.677426        18.4337 
 177   0.0000       0.685298        18.6479 
 178   0.0000       0.694520        18.8989 
 179   0.0000       0.697781        18.9876 
 180   0.0000       0.707320        19.2471 
 181   0.0000       0.711696        19.3662 
 182   0.0000       0.715424        19.4677 
 183   0.0000       0.726611        19.7721 
 184   0.0000       0.730608        19.8809 
 185   0.0000       0.742295        20.1989 
 186   0.0000       0.749926        20.4065 
 187   0.0000       0.756539        20.5865 
 188   0.0000       0.772975        21.0337 
 189   0.0000       0.778687        21.1891 
 190   0.0000       0.799402        21.7528 
 191   0.0000       0.813772        22.1439 
 192   0.0000       0.817304        22.2400 
 193   0.0000       0.823765        22.4158 
 194   0.0000       0.832440        22.6518 
 195   0.0000       0.841375        22.8950 
 196   0.0000       0.855395        23.2765 
 197   0.0000       0.862556        23.4714 
 198   0.0000       0.865083        23.5401 
 199   0.0000       0.873398        23.7664 
 200   0.0000       0.877956        23.8904 
 201   0.0000       0.886406        24.1203 
 202   0.0000       0.893827        24.3223 
 203   0.0000       0.895377        24.3645 
 204   0.0000       0.906205        24.6591 
 205   0.0000       0.914815        24.8934 
 206   0.0000       0.919547        25.0221 
 207   0.0000       0.929704        25.2985 
 208   0.0000       0.936187        25.4750 
 209   0.0000       0.950392        25.8615 
 210   0.0000       0.955431        25.9986 
 211   0.0000       0.961674        26.1685 
 212   0.0000       0.970361        26.4049 
 213   0.0000       0.974333        26.5129 
 214   0.0000       0.982061        26.7232 
 215   0.0000       0.994858        27.0715 
 216   0.0000       1.006487        27.3879 
 217   0.0000       1.010149        27.4875 
 218   0.0000       1.025625        27.9087 
 219   0.0000       1.033218        28.1153 
 220   0.0000       1.042873        28.3780 
 221   0.0000       1.049206        28.5503 
 222   0.0000       1.063243        28.9323 
 223   0.0000       1.071441        29.1554 
 224   0.0000       1.079392        29.3718 
 225   0.0000       1.097011        29.8512 
 226   0.0000       1.107242        30.1296 
 227   0.0000       1.111686        30.2505 
 228   0.0000       1.117161        30.3995 
 229   0.0000       1.130043        30.7500 
 230   0.0000       1.132939        30.8288 
 231   0.0000       1.147897        31.2359 
 232   0.0000       1.165252        31.7081 
 233   0.0000       1.170789        31.8588 
 234   0.0000       1.176927        32.0258 
 235   0.0000       1.185655        32.2633 
 236   0.0000       1.192403        32.4469 
 237   0.0000       1.207953        32.8701 
 238   0.0000       1.214420        33.0461 
 239   0.0000       1.229157        33.4471 
 240   0.0000       1.240437        33.7540 
 241   0.0000       1.249898        34.0114 
 242   0.0000       1.257652        34.2224 
 243   0.0000       1.263079        34.3701 
 244   0.0000       1.282751        34.9054 
 245   0.0000       1.298452        35.3327 
 246   0.0000       1.302470        35.4420 
 247   0.0000       1.307730        35.5851 
 248   0.0000       1.324494        36.0413 
 249   0.0000       1.326825        36.1048 
 250   0.0000       1.336694        36.3733 
 251   0.0000       1.340842        36.4862 
 252   0.0000       1.354674        36.8625 
 253   0.0000       1.358445        36.9652 
 254   0.0000       1.376947        37.4686 
 255   0.0000       1.383208        37.6390 
 256   0.0000       1.391949        37.8769 
 257   0.0000       1.405791        38.2535 
 258   0.0000       1.414302        38.4851 
 259   0.0000       1.417281        38.5662 
 260   0.0000       1.425523        38.7904 
 261   0.0000       1.431712        38.9589 
 262   0.0000       1.438689        39.1487 
 263   0.0000       1.451381        39.4941 
 264   0.0000       1.463322        39.8190 
 265   0.0000       1.470657        40.0186 
 266   0.0000       1.471498        40.0415 
 267   0.0000       1.493236        40.6330 
 268   0.0000       1.514306        41.2064 
 269   0.0000       1.527274        41.5592 
 270   0.0000       1.549313        42.1590 
 271   0.0000       1.556893        42.3652 
 272   0.0000       1.579314        42.9753 
 273   0.0000       1.591851        43.3165 
 274   0.0000       1.602698        43.6116 
 275   0.0000       1.609014        43.7835 
 276   0.0000       1.616092        43.9761 
 277   0.0000       1.622275        44.1443 
 278   0.0000       1.630235        44.3610 
 279   0.0000       1.635296        44.4987 
 280   0.0000       1.637190        44.5502 
 281   0.0000       1.655032        45.0357 
 282   0.0000       1.658608        45.1330 
 283   0.0000       1.666711        45.3535 
 284   0.0000       1.669116        45.4189 
 285   0.0000       1.680438        45.7270 
 286   0.0000       1.682491        45.7829 
 287   0.0000       1.688707        45.9521 
 288   0.0000       1.695704        46.1424 
 289   0.0000       1.701571        46.3021 
 290   0.0000       1.706444        46.4347 
 291   0.0000       1.713878        46.6370 
 292   0.0000       1.721571        46.8463 
 293   0.0000       1.732156        47.1344 
 294   0.0000       1.736478        47.2520 
 295   0.0000       1.739853        47.3438 
 296   0.0000       1.754023        47.7294 
 297   0.0000       1.756390        47.7938 
 298   0.0000       1.758334        47.8467 
 299   0.0000       1.768609        48.1263 
 300   0.0000       1.786402        48.6105 
 301   0.0000       1.788522        48.6681 
 302   0.0000       1.803551        49.0771 
 303   0.0000       1.808874        49.2220 
 304   0.0000       1.823472        49.6192 
 305   0.0000       1.827021        49.7158 
 306   0.0000       1.834698        49.9247 
 307   0.0000       1.845807        50.2270 
 308   0.0000       1.848801        50.3084 
 309   0.0000       1.858162        50.5632 
 310   0.0000       1.862043        50.6688 
 311   0.0000       1.873219        50.9729 
 312   0.0000       1.874935        51.0196 
 313   0.0000       1.879848        51.1533 
 314   0.0000       1.892582        51.4998 
 315   0.0000       1.897706        51.6392 
 316   0.0000       1.916664        52.1551 
 317   0.0000       1.925111        52.3849 
 318   0.0000       1.940775        52.8112 
 319   0.0000       1.948473        53.0206 
 320   0.0000       1.955279        53.2059 
 321   0.0000       1.964524        53.4574 
 322   0.0000       1.967009        53.5250 
 323   0.0000       1.977722        53.8166 
 324   0.0000       1.990821        54.1730 
 325   0.0000       1.995370        54.2968 
 326   0.0000       2.015052        54.8323 
 327   0.0000       2.016808        54.8801 
 328   0.0000       2.035879        55.3991 
 329   0.0000       2.041029        55.5392 
 330   0.0000       2.053740        55.8851 
 331   0.0000       2.062356        56.1195 
 332   0.0000       2.071294        56.3628 
 333   0.0000       2.076820        56.5131 
 334   0.0000       2.094361        56.9905 
 335   0.0000       2.096408        57.0462 
 336   0.0000       2.112163        57.4749 
 337   0.0000       2.121252        57.7222 
 338   0.0000       2.130936        57.9857 
 339   0.0000       2.136261        58.1306 
 340   0.0000       2.144475        58.3541 
 341   0.0000       2.149876        58.5011 
 342   0.0000       2.165207        58.9183 
 343   0.0000       2.181105        59.3509 
 344   0.0000       2.185239        59.4634 
 345   0.0000       2.191658        59.6381 
 346   0.0000       2.201608        59.9088 
 347   0.0000       2.220177        60.4141 
 348   0.0000       2.224104        60.5209 
 349   0.0000       2.243406        61.0462 
 350   0.0000       2.257532        61.4306 
 351   0.0000       2.267441        61.7002 
 352   0.0000       2.271086        61.7994 
 353   0.0000       2.293757        62.4163 
 354   0.0000       2.300659        62.6041 
 355   0.0000       2.316123        63.0249 
 356   0.0000       2.321741        63.1778 
 357   0.0000       2.331007        63.4299 
 358   0.0000       2.344747        63.8038 
 359   0.0000       2.346780        63.8591 
 360   0.0000       2.355287        64.0906 
 361   0.0000       2.368961        64.4627 
 362   0.0000       2.380029        64.7639 
 363   0.0000       2.399740        65.3003 
 364   0.0000       2.406569        65.4861 
 365   0.0000       2.419225        65.8305 
 366   0.0000       2.422818        65.9282 
 367   0.0000       2.435970        66.2861 
 368   0.0000       2.461999        66.9944 
 369   0.0000       2.464153        67.0530 
 370   0.0000       2.467949        67.1563 
 371   0.0000       2.480270        67.4916 
 372   0.0000       2.489317        67.7378 
 373   0.0000       2.495755        67.9129 
 374   0.0000       2.499903        68.0258 
 375   0.0000       2.509761        68.2941 
 376   0.0000       2.529934        68.8430 
 377   0.0000       2.535413        68.9921 
 378   0.0000       2.542163        69.1758 
 379   0.0000       2.548186        69.3397 
 380   0.0000       2.551169        69.4208 
 381   0.0000       2.556944        69.5780 
 382   0.0000       2.564879        69.7939 
 383   0.0000       2.584829        70.3368 
 384   0.0000       2.588947        70.4488 
 385   0.0000       2.596069        70.6426 
 386   0.0000       2.606766        70.9337 
 387   0.0000       2.608081        70.9695 
 388   0.0000       2.619718        71.2861 
 389   0.0000       2.626021        71.4577 
 390   0.0000       2.636919        71.7542 
 391   0.0000       2.646582        72.0172 
 392   0.0000       2.655579        72.2620 
 393   0.0000       2.657898        72.3251 
 394   0.0000       2.670705        72.6736 
 395   0.0000       2.684638        73.0527 
 396   0.0000       2.684861        73.0588 
 397   0.0000       2.693207        73.2859 
 398   0.0000       2.693318        73.2889 
 399   0.0000       2.711398        73.7809 
 400   0.0000       2.717005        73.9335 
 401   0.0000       2.723808        74.1186 
 402   0.0000       2.726395        74.1890 
 403   0.0000       2.727895        74.2298 
 404   0.0000       2.730743        74.3073 
 405   0.0000       2.743125        74.6442 
 406   0.0000       2.757063        75.0235 
 407   0.0000       2.765301        75.2477 
 408   0.0000       2.770852        75.3987 
 409   0.0000       2.782210        75.7078 
 410   0.0000       2.786955        75.8369 
 411   0.0000       2.798437        76.1493 
 412   0.0000       2.805138        76.3317 
 413   0.0000       2.809931        76.4621 
 414   0.0000       2.813633        76.5629 
 415   0.0000       2.818464        76.6943 
 416   0.0000       2.822922        76.8156 
 417   0.0000       2.830903        77.0328 
 418   0.0000       2.840920        77.3054 
 419   0.0000       2.850673        77.5708 
 420   0.0000       2.853470        77.6469 
 421   0.0000       2.857826        77.7654 
 422   0.0000       2.863211        77.9119 
 423   0.0000       2.868548        78.0572 
 424   0.0000       2.875359        78.2425 
 425   0.0000       2.889608        78.6302 
 426   0.0000       2.893826        78.7450 
 427   0.0000       2.902641        78.9849 
 428   0.0000       2.907359        79.1133 
 429   0.0000       2.917449        79.3878 
 430   0.0000       2.924530        79.5805 
 431   0.0000       2.933185        79.8160 
 432   0.0000       2.957240        80.4706 
 433   0.0000       2.961590        80.5890 
 434   0.0000       2.965728        80.7016 
 435   0.0000       2.982598        81.1606 
 436   0.0000       3.010370        81.9163 
 437   0.0000       3.017733        82.1167 
 438   0.0000       3.023880        82.2840 
 439   0.0000       3.033284        82.5399 
 440   0.0000       3.041720        82.7694 
 441   0.0000       3.063841        83.3714 
 442   0.0000       3.069902        83.5363 
 443   0.0000       3.086791        83.9959 
 444   0.0000       3.096695        84.2654 
 445   0.0000       3.103339        84.4462 
 446   0.0000       3.130310        85.1801 
 447   0.0000       3.139224        85.4226 
 448   0.0000       3.149579        85.7044 
 449   0.0000       3.162887        86.0665 
 450   0.0000       3.170239        86.2666 
 451   0.0000       3.178933        86.5032 
 452   0.0000       3.189026        86.7778 
 453   0.0000       3.196514        86.9816 
 454   0.0000       3.209318        87.3300 
 455   0.0000       3.217153        87.5432 
 456   0.0000       3.221590        87.6639 
 457   0.0000       3.230837        87.9156 
 458   0.0000       3.239076        88.1397 
 459   0.0000       3.247075        88.3574 
 460   0.0000       3.250133        88.4406 
 461   0.0000       3.261285        88.7441 
 462   0.0000       3.272740        89.0558 
 463   0.0000       3.280244        89.2600 
 464   0.0000       3.291022        89.5533 
 465   0.0000       3.301841        89.8477 
 466   0.0000       3.309068        90.0443 
 467   0.0000       3.313097        90.1540 
 468   0.0000       3.322252        90.4031 
 469   0.0000       3.327755        90.5528 
 470   0.0000       3.340385        90.8965 
 471   0.0000       3.348513        91.1177 
 472   0.0000       3.354568        91.2824 
 473   0.0000       3.365508        91.5801 
 474   0.0000       3.377407        91.9039 
 475   0.0000       3.388396        92.2030 
 476   0.0000       3.395997        92.4098 
 477   0.0000       3.400082        92.5209 
 478   0.0000       3.409677        92.7820 
 479   0.0000       3.419895        93.0601 
 480   0.0000       3.428323        93.2894 
 481   0.0000       3.438172        93.5574 
 482   0.0000       3.441590        93.6504 
 483   0.0000       3.450374        93.8894 
 484   0.0000       3.458362        94.1068 
 485   0.0000       3.465707        94.3067 
 486   0.0000       3.475804        94.5814 
 487   0.0000       3.477255        94.6209 
 488   0.0000       3.488287        94.9211 
 489   0.0000       3.494474        95.0895 
 490   0.0000       3.504088        95.3511 
 491   0.0000       3.509067        95.4866 
 492   0.0000       3.527755        95.9951 
 493   0.0000       3.535529        96.2066 
 494   0.0000       3.537322        96.2554 
 495   0.0000       3.552166        96.6593 
 496   0.0000       3.557365        96.8008 
 497   0.0000       3.567142        97.0669 
 498   0.0000       3.570176        97.1494 
 499   0.0000       3.579709        97.4088 
 500   0.0000       3.583135        97.5021 
 501   0.0000       3.599781        97.9550 
 502   0.0000       3.603333        98.0517 
 503   0.0000       3.609087        98.2083 
 504   0.0000       3.613083        98.3170 
 505   0.0000       3.623301        98.5950 
 506   0.0000       3.634149        98.8902 
 507   0.0000       3.649523        99.3086 
 508   0.0000       3.651664        99.3668 
 509   0.0000       3.654492        99.4438 
 510   0.0000       3.673631        99.9646 
 511   0.0000       3.679998       100.1378 
 512   0.0000       3.695076       100.5481 
 513   0.0000       3.710209       100.9599 
 514   0.0000       3.718163       101.1764 
 515   0.0000       3.722148       101.2848 
 516   0.0000       3.737112       101.6920 
 517   0.0000       3.740499       101.7842 
 518   0.0000       3.753435       102.1362 
 519   0.0000       3.764034       102.4246 
 520   0.0000       3.788355       103.0864 
 521   0.0000       3.804536       103.5267 
 522   0.0000       3.826454       104.1231 
 523   0.0000       3.853852       104.8686 
 524   0.0000       3.866762       105.2199 
 525   0.0000       3.882261       105.6417 
 526   0.0000       3.896582       106.0314 
 527   0.0000       3.920237       106.6751 
 528   0.0000       3.930854       106.9640 
 529   0.0000       3.942739       107.2874 
 530   0.0000       3.962446       107.8236 
 531   0.0000       3.972342       108.0929 
 532   0.0000       3.983463       108.3955 
 533   0.0000       3.987859       108.5152 
 534   0.0000       4.003484       108.9403 
 535   0.0000       4.015402       109.2647 
 536   0.0000       4.020216       109.3956 
 537   0.0000       4.029501       109.6483 
 538   0.0000       4.057983       110.4233 
 539   0.0000       4.082074       111.0789 
 540   0.0000       4.088675       111.2585 
 541   0.0000       4.090524       111.3088 
 542   0.0000       4.099167       111.5440 
 543   0.0000       4.131585       112.4262 
 544   0.0000       4.141415       112.6936 
 545   0.0000       4.158807       113.1669 
 546   0.0000       4.164532       113.3227 
 547   0.0000       4.175236       113.6139 
 548   0.0000       4.209339       114.5419 
 549   0.0000       4.226617       115.0121 
 550   0.0000       4.243221       115.4639 
 551   0.0000       4.245232       115.5186 
 552   0.0000       4.273454       116.2866 
 553   0.0000       4.282830       116.5417 
 554   0.0000       4.304284       117.1255 
 555   0.0000       4.316742       117.4645 
 556   0.0000       4.340467       118.1101 
 557   0.0000       4.369233       118.8929 
 558   0.0000       4.398532       119.6901 
 559   0.0000       4.400976       119.7566 
 560   0.0000       4.437903       120.7615 
 561   0.0000       4.447443       121.0211 
 562   0.0000       4.459954       121.3615 
 563   0.0000       4.473074       121.7185 
 564   0.0000       4.492356       122.2432 
 565   0.0000       4.506062       122.6162 
 566   0.0000       4.534266       123.3837 
 567   0.0000       4.550278       123.8194 
 568   0.0000       4.577302       124.5547 
 569   0.0000       4.585172       124.7689 
 570   0.0000       4.619226       125.6955 
 571   0.0000       4.621931       125.7691 
 572   0.0000       4.624562       125.8407 
 573   0.0000       4.662711       126.8788 
 574   0.0000       4.679568       127.3375 
 575   0.0000       4.687457       127.5522 
 576   0.0000       4.706033       128.0577 
 577   0.0000       4.724602       128.5629 
 578   0.0000       4.733293       128.7995 
 579   0.0000       4.764844       129.6580 
 580   0.0000       4.776054       129.9630 
 581   0.0000       4.795697       130.4975 
 582   0.0000       4.812733       130.9611 
 583   0.0000       4.823069       131.2424 
 584   0.0000       4.837562       131.6367 
 585   0.0000       4.863316       132.3376 
 586   0.0000       4.885423       132.9391 
 587   0.0000       4.918503       133.8393 
 588   0.0000       4.936153       134.3196 
 589   0.0000       4.946734       134.6075 
 590   0.0000       4.980171       135.5173 
 591   0.0000       4.984657       135.6394 
 592   0.0000       5.069337       137.9437 
 593   0.0000       5.077470       138.1650 
 594   0.0000       5.113824       139.1542 
 595   0.0000       5.145438       140.0145 
 596   0.0000       5.159484       140.3967 
 597   0.0000       5.197705       141.4368 
 598   0.0000       5.208808       141.7389 
 599   0.0000       5.214352       141.8897 
 600   0.0000       5.218902       142.0135 
 601   0.0000       5.226257       142.2137 
 602   0.0000       5.235940       142.4772 
 603   0.0000       5.246096       142.7535 
 604   0.0000       5.254824       142.9910 
 605   0.0000       5.271589       143.4472 
 606   0.0000       5.285239       143.8187 
 607   0.0000       5.290152       143.9523 
 608   0.0000       5.324018       144.8739 
 609   0.0000       5.359242       145.8324 
 610   0.0000       5.386561       146.5758 
 611   0.0000       5.400662       146.9595 
 612   0.0000       5.412525       147.2823 
 613   0.0000       5.427174       147.6809 
 614   0.0000       5.472848       148.9238 
 615   0.0000       5.493326       149.4810 
 616   0.0000       5.546076       150.9164 
 617   0.0000       5.558177       151.2457 
 618   0.0000       5.575914       151.7283 
 619   0.0000       5.582360       151.9037 
 620   0.0000       5.628067       153.1475 
 621   0.0000       5.685752       154.7172 
 622   0.0000       5.702810       155.1813 
 623   0.0000       5.754810       156.5963 
 624   0.0000       5.832786       158.7182 
 625   0.0000       5.942271       161.6974 
 626   0.0000       6.119391       166.5171 
 627   0.0000       6.249210       170.0496 
 628   0.0000       6.329250       172.2276 
 629   0.0000       6.365018       173.2009 
 630   0.0000       6.399653       174.1434 
 631   0.0000       6.479539       176.3172 
 632   0.0000       6.538937       177.9335 
 633   0.0000       6.702105       182.3736 
 634   0.0000       6.753760       183.7791 
 635   0.0000       6.815254       185.4525 
 636   0.0000       6.852833       186.4751 
 637   0.0000       6.870286       186.9500 
 638   0.0000       6.879968       187.2134 
 639   0.0000       6.905544       187.9094 
 640   0.0000       6.936189       188.7433 
 641   0.0000       6.946287       189.0181 
 642   0.0000       6.990157       190.2118 
 643   0.0000       7.026330       191.1962 
 644   0.0000       7.041530       191.6098 
 645   0.0000       7.123305       193.8350 
 646   0.0000       8.336298       226.8422 
 647   0.0000       8.448947       229.9075 
 648   0.0000       8.682277       236.2568 
 649   0.0000       8.731398       237.5934 
 650   0.0000       8.840237       240.5551 
 651   0.0000       9.450918       257.1726 
 652   0.0000       9.640357       262.3274 
 653   0.0000       9.749593       265.2999 
 654   0.0000      22.216730       604.5480 
 655   0.0000      22.494414       612.1041 
 656   0.0000      22.579194       614.4111 
 657   0.0000      22.596385       614.8789 
 658   0.0000      22.624652       615.6481 
 659   0.0000      22.638413       616.0225 
 660   0.0000      22.648878       616.3073 
 661   0.0000      22.668099       616.8303 
 662   0.0000      22.682559       617.2238 
 663   0.0000      22.701693       617.7445 
 664   0.0000      22.823007       621.0456 
 665   0.0000      23.604256       642.3045 
 666   0.0000      32.235598       877.1752 
 667   0.0000      32.840150       893.6259 
 668   0.0000      43.637145      1187.4271 
 669   0.0000      43.834454      1192.7961 
 670   0.0000      57.171382      1555.7124 

                    ********************************
                    * MULLIKEN POPULATION ANALYSIS *
                    ********************************

-----------------------
MULLIKEN ATOMIC CHARGES
-----------------------
   0 C :   -0.211002
   1 N :   -0.329597
   2 C :   -0.189640
   3 C :   -0.255315
   4 H :    0.160960
   5 H :    0.189629
   6 S :    0.890608
   7 C :    0.416607
   8 N :   -0.528541
   9 C :   -0.582257
  10 H :    0.098469
  11 H :    0.077818
  12 H :    0.170826
  13 H :    0.248946
  14 H :    0.244537
  15 O :   -0.471854
  16 O :   -0.398211
  17 C :   -0.111124
  18 H :    0.124461
  19 H :    0.133905
  20 C :   -0.220038
  21 C :   -0.286237
  22 H :    0.114707
  23 H :    0.072412
  24 H :    0.127387
  25 H :    0.154888
  26 C :   -0.248622
  27 H :    0.090427
  28 H :    0.147166
  29 C :   -0.245102
  30 H :    0.109075
  31 H :    0.118580
  32 C :   -0.158927
  33 H :    0.110212
  34 H :    0.100656
  35 H :    0.129773
  36 H :    0.112441
  37 H :    0.103810
  38 H :    0.111511
  39 F :   -0.123347
Sum of atomic charges:    0.0000000

--------------------------------
MULLIKEN REDUCED ORBITAL CHARGES
--------------------------------
  0 C s       :     3.254625  s :     3.254625
      pz      :     0.753816  p :     2.831080
      px      :     0.965476
      py      :     1.111787
      dz2     :     0.023316  d :     0.117512
      dxz     :     0.040309
      dyz     :     0.021405
      dx2y2   :     0.009530
      dxy     :     0.022952
      f0      :     0.001976  f :     0.007785
      f+1     :     0.002422
      f-1     :     0.001325
      f+2     :     0.000330
      f-2     :     0.000177
      f+3     :     0.000857
      f-3     :     0.000698
  1 N s       :     3.413809  s :     3.413809
      pz      :     1.097060  p :     3.850313
      px      :     1.564938
      py      :     1.188315
      dz2     :     0.017273  d :     0.061145
      dxz     :     0.011883
      dyz     :     0.017490
      dx2y2   :     0.005842
      dxy     :     0.008656
      f0      :     0.000756  f :     0.004330
      f+1     :     0.000591
      f-1     :     0.000923
      f+2     :     0.000375
      f-2     :     0.000557
      f+3     :     0.000627
      f-3     :     0.000502
  2 C s       :     3.175498  s :     3.175498
      pz      :     0.928707  p :     2.914508
      px      :     0.917184
      py      :     1.068617
      dz2     :     0.017626  d :     0.094244
      dxz     :     0.028106
      dyz     :     0.020495
      dx2y2   :     0.012254
      dxy     :     0.015763
      f0      :     0.001114  f :     0.005391
      f+1     :     0.001512
      f-1     :     0.000932
      f+2     :     0.000283
      f-2     :     0.000172
      f+3     :     0.000709
      f-3     :     0.000668
  3 C s       :     3.203061  s :     3.203061
      pz      :     1.097824  p :     2.958070
      px      :     1.006339
      py      :     0.853907
      dz2     :     0.019882  d :     0.089630
      dxz     :     0.017844
      dyz     :     0.004206
      dx2y2   :     0.020517
      dxy     :     0.027181
      f0      :     0.000702  f :     0.004555
      f+1     :     0.000687
      f-1     :     0.000341
      f+2     :     0.000485
      f-2     :     0.000245
      f+3     :     0.000883
      f-3     :     0.001213
  4 H s       :     0.816763  s :     0.816763
      pz      :     0.006083  p :     0.022278
      px      :     0.009169
      py      :     0.007026
  5 H s       :     0.787861  s :     0.787861
      pz      :     0.013575  p :     0.022511
      px      :     0.004494
      py      :     0.004442
  6 S s       :     5.353123  s :     5.353123
      pz      :     2.726961  p :     8.501088
      px      :     2.793463
      py      :     2.980664
      dz2     :     0.257159  d :     1.130672
      dxz     :     0.233346
      dyz     :     0.144781
      dx2y2   :     0.259850
      dxy     :     0.235535
      f0      :     0.016144  f :     0.124508
      f+1     :     0.035505
      f-1     :     0.016845
      f+2     :     0.012530
      f-2     :     0.016432
      f+3     :     0.014435
      f-3     :     0.012617
  7 C s       :     2.957037  s :     2.957037
      pz      :     0.737042  p :     2.405102
      px      :     0.832048
      py      :     0.836012
      dz2     :     0.028513  d :     0.202634
      dxz     :     0.055377
      dyz     :     0.048250
      dx2y2   :     0.032268
      dxy     :     0.038226
      f0      :     0.002081  f :     0.018619
      f+1     :     0.003665
      f-1     :     0.005330
      f+2     :     0.001779
      f-2     :     0.002039
      f+3     :     0.001528
      f-3     :     0.002197
  8 N s       :     3.451713  s :     3.451713
      pz      :     1.112549  p :     4.039501
      px      :     1.746761
      py      :     1.180190
      dz2     :     0.007012  d :     0.033759
      dxz     :     0.007511
      dyz     :     0.013960
      dx2y2   :     0.003979
      dxy     :     0.001297
      f0      :     0.000709  f :     0.003568
      f+1     :     0.000690
      f-1     :     0.000633
      f+2     :     0.000632
      f-2     :     0.000137
      f+3     :     0.000314
      f-3     :     0.000452
  9 C s       :     3.291951  s :     3.291951
      pz      :     1.011638  p :     3.253417
      px      :     1.350344
      py      :     0.891435
      dz2     :     0.004935  d :     0.031928
      dxz     :     0.003410
      dyz     :     0.006099
      dx2y2   :     0.009666
      dxy     :     0.007818
      f0      :     0.000573  f :     0.004961
      f+1     :     0.000248
      f-1     :     0.000886
      f+2     :     0.000667
      f-2     :     0.000447
[...]
      f+3     :     0.005513
      f-3     :     0.007250
  4 H s       :     0.792104  s :     0.792104
      pz      :     0.018865  p :     0.063177
      px      :     0.024531
      py      :     0.019782
  5 H s       :     0.778510  s :     0.778510
      pz      :     0.037266  p :     0.063583
      px      :     0.013007
      py      :     0.013310
  6 S s       :     4.752869  s :     4.752869
      pz      :     2.766462  p :     8.550684
      px      :     2.868488
      py      :     2.915735
      dz2     :     0.427280  d :     1.756344
      dxz     :     0.377058
      dyz     :     0.223616
      dx2y2   :     0.384624
      dxy     :     0.343766
      f0      :     0.058753  f :     0.374155
      f+1     :     0.096820
      f-1     :     0.048944
      f+2     :     0.041397
      f-2     :     0.048076
      f+3     :     0.041120
      f-3     :     0.039045
  7 C s       :     2.693404  s :     2.693404
      pz      :     0.939971  p :     2.781683
      px      :     0.832368
      py      :     1.009344
      dz2     :     0.188747  d :     0.870373
      dxz     :     0.196809
      dyz     :     0.206981
      dx2y2   :     0.134914
      dxy     :     0.142921
      f0      :     0.015656  f :     0.119929
      f+1     :     0.021533
      f-1     :     0.035466
      f+2     :     0.013725
      f-2     :     0.016026
      f+3     :     0.008523
      f-3     :     0.009001
  8 N s       :     2.957644  s :     2.957644
      pz      :     1.175648  p :     3.897305
      px      :     1.559812
      py      :     1.161845
      dz2     :     0.034492  d :     0.147411
      dxz     :     0.028341
      dyz     :     0.071812
      dx2y2   :     0.009790
      dxy     :     0.002976
      f0      :     0.002880  f :     0.011548
      f+1     :     0.002597
      f-1     :     0.003093
      f+2     :     0.001238
      f-2     :     0.000328
      f+3     :     0.000452
      f-3     :     0.000961
  9 C s       :     2.803359  s :     2.803359
      pz      :     1.034019  p :     3.322701
      px      :     1.240775
      py      :     1.047907
      dz2     :     0.057890  d :     0.214970
      dxz     :     0.014735
      dyz     :     0.076236
      dx2y2   :     0.035075
      dxy     :     0.031034
      f0      :     0.003770  f :     0.028076
      f+1     :     0.001951
      f-1     :     0.006035
      f+2     :     0.004475
      f-2     :     0.003365
      f+3     :     0.004245
      f-3     :     0.004236
 10 H s       :     0.826634  s :     0.826634
      pz      :     0.034693  p :     0.080417
      px      :     0.029256
      py      :     0.016468
 11 H s       :     0.831148  s :     0.831148
      pz      :     0.023032  p :     0.078710
      px      :     0.028142
      py      :     0.027536
 12 H s       :     0.715701  s :     0.715701
      pz      :     0.027669  p :     0.129557
      px      :     0.048571
      py      :     0.053317
 13 H s       :     0.712939  s :     0.712939
      pz      :     0.027125  p :     0.150397
      px      :     0.039852
      py      :     0.083420
 14 H s       :     0.717058  s :     0.717058
      pz      :     0.026759  p :     0.107914
      px      :     0.036333
      py      :     0.044821
 15 O s       :     3.560796  s :     3.560796
      pz      :     1.562084  p :     4.644187
      px      :     1.528444
      py      :     1.553659
      dz2     :     0.008046  d :     0.067091
      dxz     :     0.015344
      dyz     :     0.008625
      dx2y2   :     0.014031
      dxy     :     0.021044
      f0      :     0.000541  f :     0.004331
      f+1     :     0.000462
      f-1     :     0.000207
      f+2     :     0.000438
      f-2     :     0.001007
      f+3     :     0.000637
      f-3     :     0.001038
 16 O s       :     3.559508  s :     3.559508
      pz      :     1.501185  p :     4.607762
      px      :     1.523953
      py      :     1.582624
      dz2     :     0.008265  d :     0.069467
      dxz     :     0.027681
      dyz     :     0.004346
      dx2y2   :     0.018400
      dxy     :     0.010775
      f0      :     0.000539  f :     0.004696
      f+1     :     0.000923
      f-1     :     0.000036
      f+2     :     0.001359
      f-2     :     0.000542
      f+3     :     0.000743
      f-3     :     0.000555
 17 C s       :     2.775461  s :     2.775461
      pz      :     1.015512  p :     3.062722
      px      :     1.024755
      py      :     1.022455
      dz2     :     0.103594  d :     0.388748
      dxz     :     0.044636
      dyz     :     0.040666
      dx2y2   :     0.084529
      dxy     :     0.115323
      f0      :     0.005055  f :     0.037782
      f+1     :     0.003580
      f-1     :     0.003268
      f+2     :     0.006230
      f-2     :     0.005468
      f+3     :     0.006251
      f-3     :     0.007929
 18 H s       :     0.814443  s :     0.814443
      pz      :     0.012399  p :     0.058455
      px      :     0.019821
      py      :     0.026235
 19 H s       :     0.807632  s :     0.807632
      pz      :     0.013926  p :     0.058833
      px      :     0.015755
      py      :     0.029152
 20 C s       :     2.769729  s :     2.769729
      pz      :     1.021422  p :     3.057263
      px      :     1.009211
      py      :     1.026630
      dz2     :     0.087493  d :     0.401278
      dxz     :     0.106456
      dyz     :     0.071297
      dx2y2   :     0.052743
      dxy     :     0.083288
      f0      :     0.005919  f :     0.038585
      f+1     :     0.009081
      f-1     :     0.005850
      f+2     :     0.004068
      f-2     :     0.005036
      f+3     :     0.004224
      f-3     :     0.004406
 21 C s       :     2.767476  s :     2.767476
      pz      :     1.003185  p :     3.062078
      px      :     1.034187
      py      :     1.024705
      dz2     :     0.093553  d :     0.405452
      dxz     :     0.100749
      dyz     :     0.071896
      dx2y2   :     0.046809
      dxy     :     0.092445
      f0      :     0.006283  f :     0.039446
      f+1     :     0.009310
      f-1     :     0.006277
      f+2     :     0.004140
      f-2     :     0.004732
      f+3     :     0.004514
      f-3     :     0.004190
 22 H s       :     0.802765  s :     0.802765
      pz      :     0.015987  p :     0.058312
      px      :     0.018527
      py      :     0.023798
 23 H s       :     0.810318  s :     0.810318
      pz      :     0.015572  p :     0.061265
      px      :     0.016476
      py      :     0.029217
 24 H s       :     0.793946  s :     0.793946
      pz      :     0.014629  p :     0.058937
      px      :     0.013826
      py      :     0.030483
 25 H s       :     0.789351  s :     0.789351
      pz      :     0.016199  p :     0.060332
      px      :     0.020977
      py      :     0.023156
 26 C s       :     2.768906  s :     2.768906
      pz      :     1.028993  p :     3.060756
      px      :     1.023366
      py      :     1.008398
      dz2     :     0.114487  d :     0.399895
      dxz     :     0.020268
      dyz     :     0.072596
      dx2y2   :     0.121963
      dxy     :     0.070581
      f0      :     0.004109  f :     0.038890
      f+1     :     0.002924
      f-1     :     0.006746
      f+2     :     0.005333
      f-2     :     0.006412
      f+3     :     0.006485
      f-3     :     0.006880
 27 H s       :     0.806037  s :     0.806037
      pz      :     0.032236  p :     0.058294
      px      :     0.013028
      py      :     0.013030
 28 H s       :     0.792677  s :     0.792677
      pz      :     0.015755  p :     0.061121
      px      :     0.018665
      py      :     0.026701
 29 C s       :     2.770248  s :     2.770248
      pz      :     1.024098  p :     3.059981
      px      :     1.022611
      py      :     1.013272
      dz2     :     0.114426  d :     0.403158
      dxz     :     0.019776
      dyz     :     0.070973
      dx2y2   :     0.125351
      dxy     :     0.072632
      f0      :     0.003959  f :     0.038555
      f+1     :     0.003324
      f-1     :     0.006522
      f+2     :     0.005052
      f-2     :     0.006145
      f+3     :     0.006549
      f-3     :     0.007005
 30 H s       :     0.803868  s :     0.803868
      pz      :     0.013947  p :     0.058294
      px      :     0.031842
      py      :     0.012504
 31 H s       :     0.804097  s :     0.804097
      pz      :     0.033328  p :     0.060372
      px      :     0.014090
      py      :     0.012954
 32 C s       :     2.772790  s :     2.772790
      pz      :     1.012126  p :     3.056099
      px      :     1.026758
      py      :     1.017214
      dz2     :     0.091265  d :     0.399222
      dxz     :     0.065544
      dyz     :     0.109508
      dx2y2   :     0.083109
      dxy     :     0.049796
      f0      :     0.005919  f :     0.037965
      f+1     :     0.006651
      f-1     :     0.007869
      f+2     :     0.004191
      f-2     :     0.005130
      f+3     :     0.004625
      f-3     :     0.003578
 33 H s       :     0.804470  s :     0.804470
      pz      :     0.031798  p :     0.058094
      px      :     0.013755
      py      :     0.012541
 34 H s       :     0.813355  s :     0.813355
      pz      :     0.014008  p :     0.059437
      px      :     0.032202
      py      :     0.013228
 35 H s       :     0.801309  s :     0.801309
      pz      :     0.017162  p :     0.059024
      px      :     0.018404
      py      :     0.023458
 36 H s       :     0.804512  s :     0.804512
      pz      :     0.014063  p :     0.058299
      px      :     0.015408
      py      :     0.028827
 37 H s       :     0.806423  s :     0.806423
      pz      :     0.016959  p :     0.058141
      px      :     0.017100
      py      :     0.024083
 38 H s       :     0.803383  s :     0.803383
      pz      :     0.013503  p :     0.058105
      px      :     0.031783
      py      :     0.012819
 39 F s       :     3.662998  s :     3.662998
      pz      :     1.622694  p :     5.222088
      px      :     1.810769
      py      :     1.788625
      dz2     :     0.019442  d :     0.038624
      dxz     :     0.007646
      dyz     :     0.008913
      dx2y2   :     0.000971
      dxy     :     0.001652
      f0      :     0.000700  f :     0.001641
      f+1     :     0.000349
      f-1     :     0.000407
      f+2     :     0.000081
      f-2     :     0.000082
      f+3     :     0.000015
      f-3     :     0.000007


                      *****************************
                      * MAYER POPULATION ANALYSIS *
                      *****************************

  NA   - Mulliken gross atomic population
  ZA   - Total nuclear charge
  QA   - Mulliken gross atomic charge
  VA   - Mayer's total valence
  BVA  - Mayer's bonded valence
  FA   - Mayer's free valence

  ATOM       NA         ZA         QA         VA         BVA        FA
  0 C      6.2110     6.0000    -0.2110     3.9740     3.9740    -0.0000
  1 N      7.3296     7.0000    -0.3296     3.0405     3.0405    -0.0000
  2 C      6.1896     6.0000    -0.1896     3.8401     3.8401    -0.0000
  3 C      6.2553     6.0000    -0.2553     3.8872     3.8872    -0.0000
  4 H      0.8390     1.0000     0.1610     0.9740     0.9740    -0.0000
  5 H      0.8104     1.0000     0.1896     0.9679     0.9679     0.0000
  6 S     15.1094    16.0000     0.8906     5.8221     5.8221    -0.0000
  7 C      5.5834     6.0000     0.4166     3.9172     3.9172    -0.0000
  8 N      7.5285     7.0000    -0.5285     3.0459     3.0459    -0.0000
  9 C      6.5823     6.0000    -0.5823     3.7666     3.7666    -0.0000
 10 H      0.9015     1.0000     0.0985     0.9899     0.9899    -0.0000
 11 H      0.9222     1.0000     0.0778     1.0041     1.0041     0.0000
 12 H      0.8292     1.0000     0.1708     0.9877     0.9877    -0.0000
 13 H      0.7511     1.0000     0.2489     0.9951     0.9951    -0.0000
 14 H      0.7555     1.0000     0.2445     0.9528     0.9528    -0.0000
 15 O      8.4719     8.0000    -0.4719     1.9702     1.9702     0.0000
 16 O      8.3982     8.0000    -0.3982     2.1085     2.1085     0.0000
 17 C      6.1111     6.0000    -0.1111     3.7619     3.7619     0.0000
 18 H      0.8755     1.0000     0.1245     0.9650     0.9650    -0.0000
 19 H      0.8661     1.0000     0.1339     0.9738     0.9738    -0.0000
 20 C      6.2200     6.0000    -0.2200     3.8949     3.8949     0.0000
 21 C      6.2862     6.0000    -0.2862     3.9388     3.9388     0.0000
 22 H      0.8853     1.0000     0.1147     0.9728     0.9728     0.0000
 23 H      0.9276     1.0000     0.0724     0.9773     0.9773     0.0000
 24 H      0.8726     1.0000     0.1274     0.9683     0.9683    -0.0000
 25 H      0.8451     1.0000     0.1549     0.9793     0.9793    -0.0000
 26 C      6.2486     6.0000    -0.2486     3.8820     3.8820    -0.0000
 27 H      0.9096     1.0000     0.0904     0.9760     0.9760    -0.0000
 28 H      0.8528     1.0000     0.1472     0.9807     0.9807     0.0000
 29 C      6.2451     6.0000    -0.2451     3.8681     3.8681    -0.0000
 30 H      0.8909     1.0000     0.1091     0.9724     0.9724     0.0000
 31 H      0.8814     1.0000     0.1186     0.9812     0.9812    -0.0000
 32 C      6.1589     6.0000    -0.1589     3.8930     3.8930     0.0000
 33 H      0.8898     1.0000     0.1102     0.9754     0.9754     0.0000
 34 H      0.8993     1.0000     0.1007     0.9619     0.9619     0.0000
 35 H      0.8702     1.0000     0.1298     0.9663     0.9663    -0.0000
 36 H      0.8876     1.0000     0.1124     0.9723     0.9723    -0.0000
 37 H      0.8962     1.0000     0.1038     0.9724     0.9724     0.0000
 38 H      0.8885     1.0000     0.1115     0.9739     0.9739     0.0000
 39 F      9.1233     9.0000    -0.1233     1.1806     1.1806     0.0000

  Mayer bond orders larger than 0.100000
B(  0-C ,  1-N ) :   0.9341 B(  0-C , 17-C ) :   0.9391 B(  0-C , 18-H ) :   0.9936 
B(  0-C , 19-H ) :   0.9847 B(  1-N ,  7-C ) :   1.1562 B(  1-N , 12-H ) :   0.9246 
B(  2-C ,  3-C ) :   0.9533 B(  2-C , 21-C ) :   0.9730 B(  2-C , 24-H ) :   0.9553 
B(  2-C , 25-H ) :   0.9671 B(  3-C ,  4-H ) :   0.9491 B(  3-C ,  5-H ) :   0.9442 
B(  3-C ,  6-S ) :   0.9157 B(  6-S , 15-O ) :   1.7661 B(  6-S , 16-O ) :   1.9906 
B(  6-S , 39-F ) :   1.0629 B(  7-C ,  8-N ) :   1.1664 B(  7-C ,  9-C ) :   1.5880 
B(  8-N , 13-H ) :   0.8704 B(  8-N , 14-H ) :   0.9243 B(  9-C , 10-H ) :   1.0045 
B(  9-C , 11-H ) :   1.0085 B( 17-C , 26-C ) :   0.9770 B( 17-C , 27-H ) :   0.9802 
B( 17-C , 28-H ) :   0.9621 B( 20-C , 21-C ) :   0.9722 B( 20-C , 32-C ) :   0.9680 
B( 20-C , 35-H ) :   0.9853 B( 20-C , 36-H ) :   0.9735 B( 21-C , 22-H ) :   0.9646 
B( 21-C , 23-H ) :   0.9803 B( 26-C , 29-C ) :   0.9417 B( 26-C , 30-H ) :   0.9724 
B( 26-C , 31-H ) :   0.9739 B( 29-C , 32-C ) :   0.9695 B( 29-C , 33-H ) :   0.9703 
B( 29-C , 34-H ) :   0.9923 B( 32-C , 37-H ) :   0.9858 B( 32-C , 38-H ) :   0.9795 


-------
TIMINGS
-------

Total SCF time: 0 days 0 hours 2 min 3 sec 

Total time                  ....     123.277 sec
Sum of individual times     ....     121.451 sec  ( 98.5%)

Fock matrix formation       ....     114.557 sec  ( 92.9%)
  Split-RI-J                ....       7.268 sec  (  6.3% of F)
  Chain of spheres X        ....     100.803 sec  ( 88.0% of F)
  XC integration            ....       5.974 sec  (  5.2% of F)
    Basis function eval.    ....       1.588 sec  ( 26.6% of XC)
    Density eval.           ....       1.810 sec  ( 30.3% of XC)
    XC-Functional eval.     ....       0.227 sec  (  3.8% of XC)
    XC-Potential eval.      ....       1.603 sec  ( 26.8% of XC)
Diagonalization             ....       1.266 sec  (  1.0%)
Density matrix formation    ....       0.093 sec  (  0.1%)
Population analysis         ....       0.144 sec  (  0.1%)
Initial guess               ....       1.030 sec  (  0.8%)
Orbital Transformation      ....       0.000 sec  (  0.0%)
Orbital Orthonormalization  ....       0.000 sec  (  0.0%)
DIIS solution               ....       0.665 sec  (  0.5%)
SOSCF solution              ....       0.925 sec  (  0.8%)
Grid generation             ....       2.771 sec  (  2.2%)

Maximum memory used throughout the entire SCF-calculation: 138.9 MB


-------------------------------------------------------------------------------
                          DFT DISPERSION CORRECTION                            
                                                                               
                              DFTD3 V3.1  Rev 1                                
                              USING zero damping                               
-------------------------------------------------------------------------------
The omegaB97X-D3 functional is recognized. Fit by Chai et al.
Active option DFTDOPT                   ...         3   

molecular C6(AA) [au] = 13772.218717 


            DFT-D V3
 parameters
 s6 scaling factor         :     1.0000 
 rs6 scaling factor        :     1.2810 
 s8 scaling factor         :     1.0000 
 rs8 scaling factor        :     1.0940 
 Damping factor alpha6     :    14.0000 
 Damping factor alpha8     :    16.0000 
 ad hoc parameters k1-k3   :    16.0000     1.3333    -4.0000 

 Edisp/kcal,au: -13.648801456512  -0.021750747303 
 E6   /kcal   :  -6.357112884 
 E8   /kcal   :  -7.291688572 
 % E8         :  53.423654784 

-------------------------   ----------------
Dispersion correction           -0.021750747
-------------------------   ----------------


-------------------------   --------------------
FINAL SINGLE POINT ENERGY     -1191.068726482509
-------------------------   --------------------


                            ***************************************
                            *     ORCA property calculations      *
                            ***************************************

                                    ---------------------
                                    Active property flags
                                    ---------------------
   (+) Dipole Moment


------------------------------------------------------------------------------
                       ORCA ELECTRIC PROPERTIES CALCULATION
------------------------------------------------------------------------------

Dipole Moment Calculation                       ... on
Quadrupole Moment Calculation                   ... off
Polarizability Calculation                      ... off
GBWName                                         ... D9.gbw
Electron density file                           ... D9.scfp
The origin for moment calculation is the CENTER OF MASS  = ( 8.539747, -1.087329 -8.832600)

-------------
DIPOLE MOMENT
-------------
                                X             Y             Z
Electronic contribution:    -19.00257       1.81801     -17.87253
Nuclear contribution   :     18.85717      -4.60195      17.96505
                        -----------------------------------------
Total Dipole Moment    :     -0.14539      -2.78393       0.09252
                        -----------------------------------------
Magnitude (a.u.)       :      2.78926
Magnitude (Debye)      :      7.08975



--------------------
Rotational spectrum 
--------------------
 
Rotational constants in cm-1:     0.014436     0.012382     0.007563 
Rotational constants in MHz :   432.785702   371.214592   226.743759 

 Dipole components along the rotational axes: 
x,y,z [a.u.] :    -0.880615     2.602841     0.479300 
x,y,z [Debye]:    -2.238344     6.615897     1.218283 

 

Timings for individual modules:

Sum of individual times         ...      125.715 sec (=   2.095 min)
GTO integral calculation        ...        1.930 sec (=   0.032 min)   1.5 %
SCF iterations                  ...      123.785 sec (=   2.063 min)  98.5 %
                             ****ORCA TERMINATED NORMALLY****
TOTAL RUN TIME: 0 days 0 hours 2 minutes 6 seconds 527 msec
