
                                        *****************
                                        * O   R   C   A *
                                        *****************

                                            #,                                       
                                            ###                                      
                                            ####                                     
                                            #####                                    
                                            ######                                   
                                           ########,                                 
                                     ,,################,,,,,                         
                               ,,#################################,,                 
                          ,,##########################################,,             
                       ,#########################################, ''#####,          
                    ,#############################################,,   '####,        
                  ,##################################################,,,,####,       
                ,###########''''           ''''###############################       
              ,#####''   ,,,,##########,,,,          '''####'''          '####       
            ,##' ,,,,###########################,,,                        '##       
           ' ,,###''''                  '''############,,,                           
         ,,##''                                '''############,,,,        ,,,,,,###''
      ,#''                                            '''#######################'''  
     '                                                          ''''####''''         
             ,#######,   #######,   ,#######,      ##                                
            ,#'     '#,  ##    ##  ,#'     '#,    #''#        ######   ,####,        
            ##       ##  ##   ,#'  ##            #'  '#       #        #'  '#        
            ##       ##  #######   ##           ,######,      #####,   #    #        
            '#,     ,#'  ##    ##  '#,     ,#' ,#      #,         ##   #,  ,#        
             '#######'   ##     ##  '#######'  #'      '#     #####' # '####'        



                  #######################################################
                  #                        -***-                        #
                  #          Department of theory and spectroscopy      #
                  #    Directorship and core code : Frank Neese         #
                  #        Max Planck Institute fuer Kohlenforschung    #
                  #                Kaiser Wilhelm Platz 1               #
                  #                 D-45470 Muelheim/Ruhr               #
                  #                      Germany                        #
                  #                                                     #
                  #                  All rights reserved                #
                  #                        -***-                        #
                  #######################################################


                         Program Version 5.0.0 -  RELEASE  -
                                (SVN: $Rev: 19529$)
                ($Date: 2021-06-28 11:36:33 +0200 (Mo, 28 Jun 2021) $)


 With contributions from (in alphabetic order):
   Daniel Aravena         : Magnetic Suceptibility
   Michael Atanasov       : Ab Initio Ligand Field Theory (pilot matlab implementation)
   Alexander A. Auer      : GIAO ZORA, VPT2 properties, NMR spectrum
   Ute Becker             : Parallelization
   Giovanni Bistoni       : ED, misc. LED, open-shell LED, HFLD
   Martin Brehm           : Molecular dynamics
   Dmytro Bykov           : SCF Hessian
   Vijay G. Chilkuri      : MRCI spin determinant printing, contributions to CSF-ICE
   Dipayan Datta          : RHF DLPNO-CCSD density
   Achintya Kumar Dutta   : EOM-CC, STEOM-CC
   Dmitry Ganyushin       : Spin-Orbit,Spin-Spin,Magnetic field MRCI
   Miquel Garcia          : C-PCM Hessian, Gaussian charge scheme
   Yang Guo               : DLPNO-NEVPT2, F12-NEVPT2, CIM, IAO-localization
   Andreas Hansen         : Spin unrestricted coupled pair/coupled cluster methods
   Benjamin Helmich-Paris : MC-RPA, TRAH-SCF, COSX integrals
   Lee Huntington         : MR-EOM, pCC
   Robert Izsak           : Overlap fitted RIJCOSX, COSX-SCS-MP3, EOM
   Marcus Kettner         : VPT2
   Christian Kollmar      : KDIIS, OOCD, Brueckner-CCSD(T), CCSD density, CASPT2, CASPT2-K
   Simone Kossmann        : Meta GGA functionals, TD-DFT gradient, OOMP2, MP2 Hessian
   Martin Krupicka        : Initial AUTO-CI
   Lucas Lang             : DCDCAS
   Marvin Lechner         : AUTO-CI (C++ implementation), FIC-MRCC
   Dagmar Lenk            : GEPOL surface, SMD
   Dimitrios Liakos       : Extrapolation schemes; Compound Job, initial MDCI parallelization
   Dimitrios Manganas     : Further ROCIS development; embedding schemes
   Dimitrios Pantazis     : SARC Basis sets
   Anastasios Papadopoulos: AUTO-CI, single reference methods and gradients
   Taras Petrenko         : DFT Hessian,TD-DFT gradient, ASA, ECA, R-Raman, ABS, FL, XAS/XES, NRVS
   Peter Pinski           : DLPNO-MP2, DLPNO-MP2 Gradient
   Christoph Reimann      : Effective Core Potentials
   Marius Retegan         : Local ZFS, SOC
   Christoph Riplinger    : Optimizer, TS searches, QM/MM, DLPNO-CCSD(T), (RO)-DLPNO pert. Triples
   Tobias Risthaus        : Range-separated hybrids, TD-DFT gradient, RPA, STAB
   Michael Roemelt        : Original ROCIS implementation
   Masaaki Saitow         : Open-shell DLPNO-CCSD energy and density
   Barbara Sandhoefer     : DKH picture change effects
   Avijit Sen             : IP-ROCIS
   Kantharuban Sivalingam : CASSCF convergence, NEVPT2, FIC-MRCI
   Bernardo de Souza      : ESD, SOC TD-DFT
   Georgi Stoychev        : AutoAux, RI-MP2 NMR
   Willem Van den Heuvel  : Paramagnetic NMR
   Boris Wezisla          : Elementary symmetry handling
   Frank Wennmohs         : Technical directorship


 We gratefully acknowledge several colleagues who have allowed us to
 interface, adapt or use parts of their codes:
   Stefan Grimme, W. Hujo, H. Kruse, P. Pracht,  : VdW corrections, initial TS optimization,
                  C. Bannwarth, S. Ehlert          DFT functionals, gCP, sTDA/sTD-DF
   Ed Valeev, F. Pavosevic, A. Kumar             : LibInt (2-el integral package), F12 methods
   Garnet Chan, S. Sharma, J. Yang, R. Olivares  : DMRG
   Ulf Ekstrom                                   : XCFun DFT Library
   Mihaly Kallay                                 : mrcc  (arbitrary order and MRCC methods)
   Jiri Pittner, Ondrej Demel                    : Mk-CCSD
   Frank Weinhold                                : gennbo (NPA and NBO analysis)
   Christopher J. Cramer and Donald G. Truhlar   : smd solvation model
   Lars Goerigk                                  : TD-DFT with DH, B97 family of functionals
   V. Asgeirsson, H. Jonsson                     : NEB implementation
   FAccTs GmbH                                   : IRC, NEB, NEB-TS, DLPNO-Multilevel, CI-OPT
                                                   MM, QMMM, 2- and 3-layer-ONIOM, Crystal-QMMM,
                                                   LR-CPCM, SF, NACMEs, symmetry and pop. for TD-DFT,
                                                   nearIR, NL-DFT gradient (VV10), updates on ESD,
                                                   ML-optimized integration grids
   S Lehtola, MJT Oliveira, MAL Marques          : LibXC Library
   Liviu Ungur et al                             : ANISO software


 Your calculation uses the libint2 library for the computation of 2-el integrals
 For citations please refer to: http://libint.valeyev.net

 Your ORCA version has been built with support for libXC version: 5.1.0
 For citations please refer to: https://tddft.org/programs/libxc/

 This ORCA versions uses:
   CBLAS   interface :  Fast vector & matrix operations
   LAPACKE interface :  Fast linear algebra routines
   SCALAPACK package :  Parallel linear algebra routines
   Shared memory     :  Shared parallel matrices
   BLAS/LAPACK       :  OpenBLAS 0.3.15  USE64BITINT DYNAMIC_ARCH NO_AFFINITY Haswell SINGLE_THREADED
        Core in use  :  Haswell
   Copyright (c) 2011-2014, The OpenBLAS Project


Your calculation utilizes the atom-pairwise dispersion correction
with the Becke-Johnson damping scheme (D3BJ)
Cite in your paper:
S.Grimme, S.Ehrlich, L.Goerigk, J Comput Chem, (2011), 32, 1456–1465 
S.Grimme, J.Antony, S.Ehrlich and H.Krieg, J.Chem.Phys., 132, (2010), 154104 
   

================================================================================

----- Orbital basis set information -----
Your calculation utilizes the basis: def2-SVPD
   F. Weigend and R. Ahlrichs, Phys. Chem. Chem. Phys. 7, 3297 (2005).
   D. Rappoport and F. Furche, J. Chem. Phys. 133 134105 (2010).

----- AuxJ basis set information -----
Your calculation utilizes the auxiliary basis: def2/J
   F. Weigend, Phys. Chem. Chem. Phys. 8, 1057 (2006).

================================================================================
                                        WARNINGS
                       Please study these warnings very carefully!
================================================================================



WARNING: Found flag for RIJCOSX approximation but no HF exchange needed!
  ===> : RIJCOSX  will be disabled and Split-RI-J is turned on

INFO   : the flag for use of the SHARK integral package has been found!

================================================================================
                                       INPUT FILE
================================================================================
NAME = 14Feb_SVPD_TPSS_C1_wt_wb97_typ1_neg.com
|  1> !TPSS D3BJ RIJCOSX def2-SVPD def2/J TightSCF 
|  2> *xyz 0 1
|  3> C          4.99986       -1.59613       -5.92488
|  4> C          3.76678       -2.26611       -6.51175
|  5> C          2.49670       -1.84416       -5.73570
|  6> H          1.62642       -2.21743       -6.30895
|  7> H          2.48182       -2.45607       -4.79341
|  8> F          2.45973       -0.50920       -5.50576
|  9> H          3.88619       -3.35708       -6.53360
| 10> H          3.68560       -1.92217       -7.54713
| 11> H          5.86637       -1.89999       -6.47418
| 12> H          5.10830       -1.88372       -4.89997
| 13> H          4.89230       -0.53341       -5.98765
| 14> *
| 15> 
| 16> %MaxCore 64000
| 17> 
| 18> %pal nprocs 4
| 19> end  
| 20> 
| 21> %scf
| 22>   MaxIter 150
| 23> end
| 24> 
| 25> 
| 26>                          ****END OF INPUT****
================================================================================

                       ****************************
                       * Single Point Calculation *
                       ****************************

---------------------------------
CARTESIAN COORDINATES (ANGSTROEM)
---------------------------------
  C      4.999860   -1.596130   -5.924880
  C      3.766780   -2.266110   -6.511750
  C      2.496700   -1.844160   -5.735700
  H      1.626420   -2.217430   -6.308950
  H      2.481820   -2.456070   -4.793410
  F      2.459730   -0.509200   -5.505760
  H      3.886190   -3.357080   -6.533600
  H      3.685600   -1.922170   -7.547130
  H      5.866370   -1.899990   -6.474180
  H      5.108300   -1.883720   -4.899970
  H      4.892300   -0.533410   -5.987650

----------------------------
CARTESIAN COORDINATES (A.U.)
----------------------------
  NO LB      ZA    FRAG     MASS         X           Y           Z
   0 C     6.0000    0    12.011    9.448366   -3.016249  -11.196401
   1 C     6.0000    0    12.011    7.118183   -4.282327  -12.305424
   2 C     6.0000    0    12.011    4.718079   -3.484957  -10.838902
   3 H     1.0000    0     1.008    3.073488   -4.190335  -11.922188
   4 H     1.0000    0     1.008    4.689960   -4.641300   -9.058232
   5 F     9.0000    0    18.998    4.648216   -0.962249  -10.404379
   6 H     1.0000    0     1.008    7.343835   -6.343962  -12.346715
   7 H     1.0000    0     1.008    6.964775   -3.632375  -14.262009
   8 H     1.0000    0     1.008   11.085833   -3.590461  -12.234427
   9 H     1.0000    0     1.008    9.653288   -3.559715   -9.259601
  10 H     1.0000    0     1.008    9.245107   -1.007999  -11.315019

--------------------------------
INTERNAL COORDINATES (ANGSTROEM)
--------------------------------
 C      0   0   0     0.000000000000     0.00000000     0.00000000
 C      1   0   0     1.521110082703     0.00000000     0.00000000
 C      2   1   0     1.547061282367   110.60000472     0.00000000
 H      3   2   1     1.106947755678   107.07915659   170.42715163
 H      3   2   1     1.123639491385   106.43993875   281.07926646
 F      3   2   1     1.355122646147   112.09846273    45.34057030
 H      2   1   3     1.097702924976   110.93137330   235.43207269
 H      2   1   3     1.094027723780   106.66746513   118.58042428
 H      1   2   3     1.070000453131   109.47117749   179.99986796
 H      1   2   3     1.070003621396   109.47097718    60.00024924
 H      1   2   3     1.069992067681   109.47151897   300.00065405

---------------------------
INTERNAL COORDINATES (A.U.)
---------------------------
 C      0   0   0     0.000000000000     0.00000000     0.00000000
 C      1   0   0     2.874481475855     0.00000000     0.00000000
 C      2   1   0     2.923522136067   110.60000472     0.00000000
 H      3   2   1     2.091828102790   107.07915659   170.42715163
 H      3   2   1     2.123370911976   106.43993875   281.07926646
 F      3   2   1     2.560810679092   112.09846273    45.34057030
 H      2   1   3     2.074357904608   110.93137330   235.43207269
 H      2   1   3     2.067412780862   106.66746513   118.58042428
 H      1   2   3     2.022007819589   109.47117749   179.99986796
 H      1   2   3     2.022013806742   109.47097718    60.00024924
 H      1   2   3     2.021991973385   109.47151897   300.00065405

---------------------
BASIS SET INFORMATION
---------------------
There are 3 groups of distinct atoms

 Group   1 Type C   : 8s4p2d contracted to 4s2p2d pattern {5111/31/11}
 Group   2 Type H   : 4s2p contracted to 2s2p pattern {31/11}
 Group   3 Type F   : 8s5p2d contracted to 4s3p2d pattern {5111/311/11}

Atom   0C    basis set group =>   1
Atom   1C    basis set group =>   1
Atom   2C    basis set group =>   1
Atom   3H    basis set group =>   2
Atom   4H    basis set group =>   2
Atom   5F    basis set group =>   3
Atom   6H    basis set group =>   2
Atom   7H    basis set group =>   2
Atom   8H    basis set group =>   2
Atom   9H    basis set group =>   2
Atom  10H    basis set group =>   2
---------------------------------
AUXILIARY/J BASIS SET INFORMATION
---------------------------------
There are 3 groups of distinct atoms

 Group   1 Type C   : 12s5p4d2f1g contracted to 6s4p3d1f1g pattern {711111/2111/211/2/1}
 Group   2 Type H   : 5s2p1d contracted to 3s1p1d pattern {311/2/1}
 Group   3 Type F   : 12s5p4d2f1g contracted to 6s4p3d1f1g pattern {711111/2111/211/2/1}

Atom   0C    basis set group =>   1
Atom   1C    basis set group =>   1
Atom   2C    basis set group =>   1
Atom   3H    basis set group =>   2
Atom   4H    basis set group =>   2
Atom   5F    basis set group =>   3
Atom   6H    basis set group =>   2
Atom   7H    basis set group =>   2
Atom   8H    basis set group =>   2
Atom   9H    basis set group =>   2
Atom  10H    basis set group =>   2


           ************************************************************
           *        Program running with 4 parallel MPI-processes     *
           *              working on a common directory               *
           ************************************************************
------------------------------------------------------------------------------
                           ORCA GTO INTEGRAL CALCULATION
                           -- RI-GTO INTEGRALS CHOSEN --
------------------------------------------------------------------------------
------------------------------------------------------------------------------
                   ___                                                        
                  /   \      - P O W E R E D   B Y -                         
                 /     \                                                     
                 |  |  |   _    _      __       _____    __    __             
                 |  |  |  | |  | |    /  \     |  _  \  |  |  /  |          
                  \  \/   | |  | |   /    \    | | | |  |  | /  /          
                 / \  \   | |__| |  /  /\  \   | |_| |  |  |/  /          
                |  |  |   |  __  | /  /__\  \  |    /   |      \           
                |  |  |   | |  | | |   __   |  |    \   |  |\   \          
                \     /   | |  | | |  |  |  |  | |\  \  |  | \   \       
                 \___/    |_|  |_| |__|  |__|  |_| \__\ |__|  \__/        
                                                                              
                      - O R C A' S   B I G   F R I E N D -                    
                                      &                                       
                       - I N T E G R A L  F E E D E R -                       
                                                                              
 v1 FN, 2020, v2 2021                                                         
------------------------------------------------------------------------------


Reading SHARK input file 14Feb_SVPD_TPSS_C1_wt_wb97_typ1_neg.SHARKINP.tmp ... ok
----------------------
SHARK INTEGRAL PACKAGE
----------------------

Number of atoms                             ...     11
Number of basis functions                   ...    139
Number of shells                            ...     61
Maximum angular momentum                    ...      2
Integral batch strategy                     ... SHARK/LIBINT Hybrid
RI-J (if used) integral strategy            ... SPLIT-RIJ (Revised 2003 algorithm where possible)
Printlevel                                  ...      1
Contraction scheme used                     ... SEGMENTED contraction
Coulomb Range Separation                    ... NOT USED
Exchange Range Separation                   ... NOT USED
Finite Nucleus Model                        ... NOT USED
Auxiliary Coulomb fitting basis             ... AVAILABLE
   # of basis functions in Aux-J            ...    273
   # of shells in Aux-J                     ...     95
   Maximum angular momentum in Aux-J        ...      4
Auxiliary J/K fitting basis                 ... NOT available
Auxiliary Correlation fitting basis         ... NOT available
Auxiliary 'external' fitting basis          ... NOT available
Integral threshold                          ...     2.500000e-11
Primitive cut-off                           ...     2.500000e-12
Primitive pair pre-selection threshold      ...     2.500000e-12

Calculating pre-screening integrals         ... done (  0.0 sec) Dimension = 61
Organizing shell pair data                  ... done (  0.0 sec)
Shell pair information
Total number of shell pairs                 ...      1891
Shell pairs after pre-screening             ...      1886
Total number of primitive shell pairs       ...      5023
Primitive shell pairs kept                  ...      4389
          la=0 lb=0:    462 shell pairs
          la=1 lb=0:    688 shell pairs
          la=1 lb=1:    276 shell pairs
          la=2 lb=0:    240 shell pairs
          la=2 lb=1:    184 shell pairs
          la=2 lb=2:     36 shell pairs

Calculating one electron integrals          ... done (  0.0 sec)
Calculating RI/J V-Matrix + Cholesky decomp.... done (  0.0 sec)
Calculating Nuclear repulsion               ... done (  0.0 sec) ENN=    131.424045791575 Eh

SHARK setup successfully completed in   0.1 seconds

Maximum memory used throughout the entire GTOINT-calculation: 8.8 MB


           ************************************************************
           *        Program running with 4 parallel MPI-processes     *
           *              working on a common directory               *
           ************************************************************
-------------------------------------------------------------------------------
                                 ORCA SCF
-------------------------------------------------------------------------------

------------
SCF SETTINGS
------------
Hamiltonian:
 Density Functional     Method          .... DFT(GTOs)
 Exchange Functional    Exchange        .... TPSS
 Correlation Functional Correlation     .... TPSS
 LDA part of GGA corr.  LDAOpt          .... PW91-LDA
 Gradients option       PostSCFGGA      .... off
   Density functional embedding theory  .... OFF
   NL short-range parameter             ....  5.000000
 RI-approximation to the Coulomb term is turned on
   Number of AuxJ basis functions       .... 273


General Settings:
 Integral files         IntName         .... 14Feb_SVPD_TPSS_C1_wt_wb97_typ1_neg
 Hartree-Fock type      HFTyp           .... RHF
 Total Charge           Charge          ....    0
 Multiplicity           Mult            ....    1
 Number of Electrons    NEL             ....   34
 Basis Dimension        Dim             ....  139
 Nuclear Repulsion      ENuc            ....    131.4240457916 Eh

Convergence Acceleration:
 DIIS                   CNVDIIS         .... on
   Start iteration      DIISMaxIt       ....    12
   Startup error        DIISStart       ....  0.200000
   # of expansion vecs  DIISMaxEq       ....     5
   Bias factor          DIISBfac        ....   1.050
   Max. coefficient     DIISMaxC        ....  10.000
 Trust-Rad. Augm. Hess. CNVTRAH         .... auto
   Auto Start mean grad. ratio tolernc. ....  1.125000
   Auto Start start iteration           ....    20
   Auto Start num. interpolation iter.  ....    10
   Max. Number of Micro iterations      ....    16
   Max. Number of Macro iterations      .... Maxiter - #DIIS iter
   Number of Davidson start vectors     ....     2
   Converg. threshold I  (grad. norm)   ....   1.000e-05
   Converg. threshold II (energy diff.) ....   1.000e-08
   Grad. Scal. Fac. for Micro threshold ....   0.100
   Minimum threshold for Micro iter.    ....   0.010
   NR start threshold (gradient norm)   ....   0.001
   Initial trust radius                 ....   0.400
   Minimum AH scaling param. (alpha)    ....   1.000
   Maximum AH scaling param. (alpha)    .... 1000.000
   Orbital update algorithm             .... Taylor
   White noise on init. David. guess    .... on
   Maximum white noise                  ....   0.010
   Quad. conv. algorithm                .... NR
 SOSCF                  CNVSOSCF        .... on
   Start iteration      SOSCFMaxIt      ....   150
   Startup grad/error   SOSCFStart      ....  0.003300
 Level Shifting         CNVShift        .... on
   Level shift para.    LevelShift      ....    0.2500
   Turn off err/grad.   ShiftErr        ....    0.0010
 Zerner damping         CNVZerner       .... off
 Static damping         CNVDamp         .... on
   Fraction old density DampFac         ....    0.7000
   Max. Damping (<1)    DampMax         ....    0.9800
   Min. Damping (>=0)   DampMin         ....    0.0000
   Turn off err/grad.   DampErr         ....    0.1000
 Fernandez-Rico         CNVRico         .... off

SCF Procedure:
 Maximum # iterations   MaxIter         ....   150
 SCF integral mode      SCFMode         .... Direct
   Integral package                     .... SHARK and LIBINT hybrid scheme
 Reset frequency        DirectResetFreq ....    20
 Integral Threshold     Thresh          ....  2.500e-11 Eh
 Primitive CutOff       TCut            ....  2.500e-12 Eh

Convergence Tolerance:
 Convergence Check Mode ConvCheckMode   .... Total+1el-Energy
 Convergence forced     ConvForced      .... 0
 Energy Change          TolE            ....  1.000e-08 Eh
 1-El. energy change                    ....  1.000e-05 Eh
 Orbital Gradient       TolG            ....  1.000e-05
 Orbital Rotation angle TolX            ....  1.000e-05
 DIIS Error             TolErr          ....  5.000e-07


Diagonalization of the overlap matrix:
Smallest eigenvalue                        ... 2.270e-04
Time for diagonalization                   ...    0.006 sec
Threshold for overlap eigenvalues          ... 1.000e-08
Number of eigenvalues below threshold      ... 0
Time for construction of square roots      ...    0.004 sec
Total time needed                          ...    0.010 sec

Time for model grid setup =    0.056 sec

------------------------------
INITIAL GUESS: MODEL POTENTIAL
------------------------------
Loading Hartree-Fock densities                     ... done
Calculating cut-offs                               ... done
Initializing the effective Hamiltonian             ... done
Setting up the integral package (SHARK)            ... done
Starting the Coulomb interaction                   ... done (   0.0 sec)
Reading the grid                                   ... done
Mapping shells                                     ... done
Starting the XC term evaluation                    ... done (   0.0 sec)
  promolecular density results
     # of electrons  =     33.995167333
     EX              =    -27.396715575
     EC              =     -1.112085803
     EX+EC           =    -28.508801377
Transforming the Hamiltonian                       ... done (   0.0 sec)
Diagonalizing the Hamiltonian                      ... done (   0.0 sec)
Back transforming the eigenvectors                 ... done (   0.0 sec)
Now organizing SCF variables                       ... done
                      ------------------
                      INITIAL GUESS DONE (   0.1 sec)
                      ------------------
-------------------
DFT GRID GENERATION
-------------------

General Integration Accuracy     IntAcc      ... 4.388
Radial Grid Type                 RadialGrid  ... OptM3 with GC (2021)
Angular Grid (max. ang.)         AngularGrid ... 4 (Lebedev-302)
Angular grid pruning method      GridPruning ... 4 (adaptive)
Weight generation scheme         WeightScheme... Becke
Basis function cutoff            BFCut       ... 1.0000e-11
Integration weight cutoff        WCut        ... 1.0000e-14
Angular grids for H and He will be reduced by one unit
Partially contracted basis set               ... off
Rotationally invariant grid construction     ... off

Total number of grid points                  ...    48577
Total number of batches                      ...      766
Average number of points per batch           ...       63
Average number of grid points per atom       ...     4416
Time for grid setup =    0.271 sec

--------------
SCF ITERATIONS
--------------
ITER       Energy         Delta-E        Max-DP      RMS-DP      [F,P]     Damp
               ***  Starting incremental Fock matrix formation  ***
  0   -218.1496712908   0.000000000000 0.08824069  0.00219815  0.1631690 0.7000
  1   -218.1969530163  -0.047281725525 0.04958872  0.00137352  0.0798016 0.7000
                               ***Turning on DIIS***
  2   -218.2148243472  -0.017871330858 0.07596414  0.00240933  0.0245263 0.0000
  3   -218.2391446195  -0.024320272287 0.03657418  0.00090616  0.0494195 0.0000
  4   -218.2476117795  -0.008467159976 0.00482203  0.00026083  0.0079554 0.0000
                      *** Initiating the SOSCF procedure ***
                           *** Shutting down DIIS ***
                      *** Re-Reading the Fockian *** 
                      *** Removing any level shift *** 
ITER      Energy       Delta-E        Grad      Rot      Max-DP    RMS-DP
  5   -218.24797105  -0.0003592717  0.000567  0.000567  0.002145  0.000104
               *** Restarting incremental Fock matrix formation ***
  6   -218.24800014  -0.0000290881  0.000229  0.000667  0.001961  0.000096
  7   -218.24799716   0.0000029747  0.000385  0.000250  0.001113  0.000030
  8   -218.24800438  -0.0000072140  0.000047  0.000127  0.000273  0.000013
  9   -218.24800427   0.0000001092  0.000055  0.000050  0.000205  0.000006
 10   -218.24800452  -0.0000002525  0.000004  0.000010  0.000034  0.000002
 11   -218.24800452  -0.0000000019  0.000003  0.000003  0.000014  0.000001
                  ***Gradient check signals convergence***
              ***Rediagonalizing the Fockian in SOSCF/NRSCF***

               *****************************************************
               *                     SUCCESS                       *
               *           SCF CONVERGED AFTER  12 CYCLES          *
               *****************************************************


----------------
TOTAL SCF ENERGY
----------------

Total Energy       :         -218.24800452 Eh           -5938.83013 eV

Components:
Nuclear Repulsion  :          131.42404579 Eh            3576.23010 eV
Electronic Energy  :         -349.67205032 Eh           -9515.06023 eV
One Electron Energy:         -557.57421294 Eh          -15172.36568 eV
Two Electron Energy:          207.90216262 Eh            5657.30546 eV

Virial components:
Potential Energy   :         -434.47417356 Eh          -11822.64331 eV
Kinetic Energy     :          216.22616903 Eh            5883.81319 eV
Virial Ratio       :            2.00935056


DFT components:
N(Alpha)           :       17.000048461741 electrons
N(Beta)            :       17.000048461741 electrons
N(Total)           :       34.000096923481 electrons
E(X)               :      -28.258751431188 Eh       
E(C)               :       -1.118366959647 Eh       
E(XC)              :      -29.377118390835 Eh       
DFET-embed. en.    :        0.000000000000 Eh       

---------------
SCF CONVERGENCE
---------------

  Last Energy change         ...   -5.1807e-10  Tolerance :   1.0000e-08
  Last MAX-Density change    ...    3.1839e-06  Tolerance :   1.0000e-07
  Last RMS-Density change    ...    1.3577e-07  Tolerance :   5.0000e-09
  Last Orbital Gradient      ...    2.9446e-07  Tolerance :   1.0000e-05
  Last Orbital Rotation      ...    8.1515e-07  Tolerance :   1.0000e-05

             **** THE GBW FILE WAS UPDATED (14Feb_SVPD_TPSS_C1_wt_wb97_typ1_neg.gbw) ****
             **** DENSITY 14Feb_SVPD_TPSS_C1_wt_wb97_typ1_neg.scfp WAS UPDATED ****
             **** ENERGY FILE WAS UPDATED (14Feb_SVPD_TPSS_C1_wt_wb97_typ1_neg.en.tmp) ****
             **** THE GBW FILE WAS UPDATED (14Feb_SVPD_TPSS_C1_wt_wb97_typ1_neg.gbw) ****
             **** DENSITY 14Feb_SVPD_TPSS_C1_wt_wb97_typ1_neg.scfp WAS UPDATED ****
----------------
ORBITAL ENERGIES
----------------

  NO   OCC          E(Eh)            E(eV) 
   0   2.0000     -24.420690      -664.5208 
   1   2.0000     -10.078807      -274.2583 
   2   2.0000     -10.005694      -272.2688 
   3   2.0000      -9.986818      -271.7551 
   4   2.0000      -1.115924       -30.3658 
   5   2.0000      -0.724525       -19.7153 
   6   2.0000      -0.630213       -17.1490 
   7   2.0000      -0.542440       -14.7605 
   8   2.0000      -0.465437       -12.6652 
   9   2.0000      -0.448042       -12.1919 
  10   2.0000      -0.429726       -11.6934 
  11   2.0000      -0.394183       -10.7263 
  12   2.0000      -0.352922        -9.6035 
  13   2.0000      -0.332203        -9.0397 
  14   2.0000      -0.319300        -8.6886 
  15   2.0000      -0.285836        -7.7780 
  16   2.0000      -0.283632        -7.7180 
  17   0.0000       0.011188         0.3045 
  18   0.0000       0.036091         0.9821 
  19   0.0000       0.046571         1.2673 
  20   0.0000       0.057393         1.5617 
  21   0.0000       0.076627         2.0851 
  22   0.0000       0.087485         2.3806 
  23   0.0000       0.106299         2.8925 
  24   0.0000       0.115015         3.1297 
  25   0.0000       0.117150         3.1878 
  26   0.0000       0.145596         3.9619 
  27   0.0000       0.152599         4.1524 
  28   0.0000       0.160393         4.3645 
  29   0.0000       0.163333         4.4445 
  30   0.0000       0.177471         4.8292 
  31   0.0000       0.183755         5.0002 
  32   0.0000       0.191060         5.1990 
  33   0.0000       0.216764         5.8984 
  34   0.0000       0.223758         6.0888 
  35   0.0000       0.263105         7.1594 
  36   0.0000       0.268082         7.2949 
  37   0.0000       0.279729         7.6118 
  38   0.0000       0.288183         7.8419 
  39   0.0000       0.291814         7.9407 
  40   0.0000       0.309391         8.4190 
  41   0.0000       0.322680         8.7806 
  42   0.0000       0.331142         9.0108 
  43   0.0000       0.335901         9.1403 
  44   0.0000       0.340756         9.2724 
  45   0.0000       0.351593         9.5673 
  46   0.0000       0.356224         9.6934 
  47   0.0000       0.364231         9.9112 
  48   0.0000       0.371535        10.1100 
  49   0.0000       0.376773        10.2525 
  50   0.0000       0.396417        10.7870 
  51   0.0000       0.403052        10.9676 
  52   0.0000       0.419564        11.4169 
  53   0.0000       0.442321        12.0362 
  54   0.0000       0.456336        12.4175 
  55   0.0000       0.463954        12.6248 
  56   0.0000       0.471454        12.8289 
  57   0.0000       0.476377        12.9629 
  58   0.0000       0.484020        13.1708 
  59   0.0000       0.492452        13.4003 
  60   0.0000       0.510578        13.8935 
  61   0.0000       0.518151        14.0996 
  62   0.0000       0.522096        14.2070 
  63   0.0000       0.534906        14.5555 
  64   0.0000       0.547423        14.8961 
  65   0.0000       0.556226        15.1357 
  66   0.0000       0.568346        15.4655 
  67   0.0000       0.574229        15.6256 
  68   0.0000       0.604165        16.4402 
  69   0.0000       0.632816        17.2198 
  70   0.0000       0.724729        19.7209 
  71   0.0000       0.735380        20.0107 
  72   0.0000       0.784177        21.3385 
  73   0.0000       0.798778        21.7359 
  74   0.0000       0.819507        22.2999 
  75   0.0000       0.832842        22.6628 
  76   0.0000       0.861094        23.4316 
  77   0.0000       0.878385        23.9021 
  78   0.0000       0.926242        25.2043 
  79   0.0000       0.947495        25.7827 
  80   0.0000       0.967210        26.3191 
  81   0.0000       1.000572        27.2269 
  82   0.0000       1.001869        27.2622 
  83   0.0000       1.008663        27.4471 
  84   0.0000       1.039891        28.2969 
  85   0.0000       1.046442        28.4751 
  86   0.0000       1.092427        29.7264 
  87   0.0000       1.142078        31.0775 
  88   0.0000       1.163137        31.6506 
  89   0.0000       1.229806        33.4647 
  90   0.0000       1.253416        34.1072 
  91   0.0000       1.270497        34.5720 
  92   0.0000       1.291856        35.1532 
  93   0.0000       1.351583        36.7785 
  94   0.0000       1.537412        41.8351 
  95   0.0000       1.570942        42.7475 
  96   0.0000       1.591418        43.3047 
  97   0.0000       1.609019        43.7836 
  98   0.0000       1.637144        44.5490 
  99   0.0000       1.665067        45.3088 
 100   0.0000       1.702151        46.3179 
 101   0.0000       1.724273        46.9199 
 102   0.0000       1.807388        49.1815 
 103   0.0000       1.820561        49.5400 
 104   0.0000       1.828636        49.7597 
 105   0.0000       1.890315        51.4381 
 106   0.0000       1.916491        52.1504 
 107   0.0000       1.951217        53.0953 
 108   0.0000       1.985774        54.0357 
 109   0.0000       1.994351        54.2690 
 110   0.0000       2.026448        55.1425 
 111   0.0000       2.044425        55.6316 
 112   0.0000       2.066138        56.2225 
 113   0.0000       2.120450        57.7004 
 114   0.0000       2.141724        58.2793 
 115   0.0000       2.219307        60.3904 
 116   0.0000       2.255462        61.3742 
 117   0.0000       2.304337        62.7042 
 118   0.0000       2.373363        64.5825 
 119   0.0000       2.404921        65.4412 
 120   0.0000       2.431615        66.1676 
 121   0.0000       2.474944        67.3467 
 122   0.0000       2.528142        68.7943 
 123   0.0000       2.585026        70.3421 
 124   0.0000       2.647894        72.0528 
 125   0.0000       2.670676        72.6728 
 126   0.0000       2.693966        73.3065 
 127   0.0000       2.814214        76.5786 
 128   0.0000       2.962947        80.6259 
 129   0.0000       3.011696        81.9524 
 130   0.0000       3.056021        83.1586 
 131   0.0000       3.095045        84.2205 
 132   0.0000       3.174545        86.3838 
 133   0.0000       3.205226        87.2186 
 134   0.0000       3.374077        91.8133 
 135   0.0000       3.406152        92.6861 
 136   0.0000       3.459988        94.1511 
 137   0.0000       3.479477        94.6814 
 138   0.0000       3.893518       105.9480 

                    ********************************
                    * MULLIKEN POPULATION ANALYSIS *
                    ********************************

-----------------------
MULLIKEN ATOMIC CHARGES
-----------------------
   0 C :    0.530564
   1 C :   -0.510360
   2 C :    0.701860
   3 H :   -0.080492
   4 H :    0.008868
   5 F :   -0.442958
   6 H :   -0.066916
   7 H :   -0.022791
   8 H :   -0.079693
   9 H :   -0.049547
  10 H :    0.011466
Sum of atomic charges:    0.0000000

--------------------------------
MULLIKEN REDUCED ORBITAL CHARGES
--------------------------------
  0 C s       :     2.538195  s :     2.538195
      pz      :     0.915716  p :     2.800449
      px      :     0.925729
      py      :     0.959005
      dz2     :     0.030544  d :     0.130792
      dxz     :     0.048950
      dyz     :     0.003449
      dx2y2   :     0.034357
      dxy     :     0.013492
  1 C s       :     2.946946  s :     2.946946
      pz      :     1.019065  p :     3.052988
      px      :     1.058652
      py      :     0.975271
      dz2     :     0.113304  d :     0.510425
      dxz     :     0.104668
      dyz     :     0.024641
      dx2y2   :     0.179289
      dxy     :     0.088523
  2 C s       :     2.706975  s :     2.706975
      pz      :     0.953013  p :     2.440662
      px      :     0.937794
      py      :     0.549855
      dz2     :     0.034790  d :     0.150504
      dxz     :     0.025654
      dyz     :     0.029545
      dx2y2   :     0.014973
      dxy     :     0.045542
  3 H s       :     1.034450  s :     1.034450
      pz      :     0.017496  p :     0.046042
      px      :     0.026906
      py      :     0.001640
  4 H s       :     0.944017  s :     0.944017
      pz      :     0.041133  p :     0.047115
      px      :    -0.007473
      py      :     0.013455
  5 F s       :     3.986304  s :     3.986304
      pz      :     1.950468  p :     5.412479
      px      :     1.971054
      py      :     1.490957
      dz2     :     0.002604  d :     0.044175
      dxz     :     0.001586
      dyz     :     0.016723
      dx2y2   :     0.010777
      dxy     :     0.012486
  6 H s       :     1.029727  s :     1.029727
      pz      :    -0.010749  p :     0.037189
      px      :    -0.007779
      py      :     0.055717
  7 H s       :     0.995647  s :     0.995647
      pz      :     0.060861  p :     0.027144
      px      :    -0.020135
      py      :    -0.013582
  8 H s       :     1.045252  s :     1.045252
      pz      :     0.013326  p :     0.034441
      px      :     0.021059
      py      :     0.000056
  9 H s       :     1.000792  s :     1.000792
      pz      :     0.053673  p :     0.048755
      px      :    -0.000203
      py      :    -0.004716
 10 H s       :     0.930009  s :     0.930009
      pz      :    -0.013973  p :     0.058525
      px      :     0.011806
      py      :     0.060693


                     *******************************
                     * LOEWDIN POPULATION ANALYSIS *
                     *******************************

----------------------
LOEWDIN ATOMIC CHARGES
----------------------
   0 C :    0.122060
   1 C :   -0.057101
   2 C :    0.098091
   3 H :    0.022250
   4 H :    0.034095
   5 F :   -0.195620
   6 H :    0.022970
   7 H :    0.015762
   8 H :   -0.022486
   9 H :   -0.018487
  10 H :   -0.021534

-------------------------------
LOEWDIN REDUCED ORBITAL CHARGES
-------------------------------
  0 C s       :     2.702439  s :     2.702439
      pz      :     0.925238  p :     2.756639
      px      :     0.900801
      py      :     0.930600
      dz2     :     0.097311  d :     0.418862
      dxz     :     0.096798
      dyz     :     0.031179
      dx2y2   :     0.119714
      dxy     :     0.073861
  1 C s       :     2.704890  s :     2.704890
      pz      :     0.912823  p :     2.707592
      px      :     0.885536
      py      :     0.909233
      dz2     :     0.162914  d :     0.644618
      dxz     :     0.145156
      dyz     :     0.047573
      dx2y2   :     0.190250
      dxy     :     0.098725
  2 C s       :     2.682833  s :     2.682833
      pz      :     0.906946  p :     2.492237
      px      :     0.907315
      py      :     0.677976
      dz2     :     0.107823  d :     0.726839
      dxz     :     0.102829
      dyz     :     0.173919
      dx2y2   :     0.180960
      dxy     :     0.161308
  3 H s       :     0.745912  s :     0.745912
      pz      :     0.086055  p :     0.231837
      px      :     0.100614
      py      :     0.045168
  4 H s       :     0.739997  s :     0.739997
      pz      :     0.108995  p :     0.225908
      px      :     0.061232
      py      :     0.055680
  5 F s       :     3.656527  s :     3.656527
      pz      :     1.863965  p :     5.304525
      px      :     1.871499
      py      :     1.569061
      dz2     :     0.020299  d :     0.234567
      dxz     :     0.006148
      dyz     :     0.076426
      dx2y2   :     0.059895
      dxy     :     0.071799
  6 H s       :     0.737812  s :     0.737812
      pz      :     0.064099  p :     0.239218
      px      :     0.054870
      py      :     0.120250
  7 H s       :     0.736592  s :     0.736592
      pz      :     0.114510  p :     0.247645
      px      :     0.059539
      py      :     0.073596
  8 H s       :     0.750296  s :     0.750296
      pz      :     0.088815  p :     0.272190
      px      :     0.105653
      py      :     0.077721
  9 H s       :     0.747448  s :     0.747448
      pz      :     0.126310  p :     0.271039
      px      :     0.069474
      py      :     0.075256
 10 H s       :     0.737454  s :     0.737454
      pz      :     0.072064  p :     0.284081
      px      :     0.082265
      py      :     0.129752


                      *****************************
                      * MAYER POPULATION ANALYSIS *
                      *****************************

  NA   - Mulliken gross atomic population
  ZA   - Total nuclear charge
  QA   - Mulliken gross atomic charge
  VA   - Mayer's total valence
  BVA  - Mayer's bonded valence
  FA   - Mayer's free valence

  ATOM       NA         ZA         QA         VA         BVA        FA
  0 C      5.4694     6.0000     0.5306     4.0335     4.0335     0.0000
  1 C      6.5104     6.0000    -0.5104     5.2350     5.2350     0.0000
  2 C      5.2981     6.0000     0.7019     3.8675     3.8675     0.0000
  3 H      1.0805     1.0000    -0.0805     1.0995     1.0995     0.0000
  4 H      0.9911     1.0000     0.0089     1.0864     1.0864     0.0000
  5 F      9.4430     9.0000    -0.4430     0.8254     0.8254    -0.0000
  6 H      1.0669     1.0000    -0.0669     1.1201     1.1201     0.0000
  7 H      1.0228     1.0000    -0.0228     1.0682     1.0682    -0.0000
  8 H      1.0797     1.0000    -0.0797     1.0572     1.0572     0.0000
  9 H      1.0495     1.0000    -0.0495     1.1058     1.1058     0.0000
 10 H      0.9885     1.0000     0.0115     1.1066     1.1066     0.0000

  Mayer bond orders larger than 0.100000
B(  0-C ,  1-C ) :   1.3217 B(  0-C ,  8-H ) :   0.8451 B(  0-C ,  9-H ) :   0.8435 
B(  0-C , 10-H ) :   0.8309 B(  1-C ,  2-C ) :   1.1576 B(  1-C ,  3-H ) :   0.1118 
B(  1-C ,  4-H ) :   0.1095 B(  1-C ,  6-H ) :   0.9886 B(  1-C ,  7-H ) :   0.9488 
B(  1-C ,  8-H ) :   0.1802 B(  1-C ,  9-H ) :   0.1699 B(  1-C , 10-H ) :   0.1690 
B(  2-C ,  3-H ) :   0.9326 B(  2-C ,  4-H ) :   0.8986 B(  2-C ,  5-F ) :   0.7149 


-------
TIMINGS
-------

Total SCF time: 0 days 0 hours 0 min 4 sec 

Total time                  ....       4.755 sec
Sum of individual times     ....       4.624 sec  ( 97.2%)

Fock matrix formation       ....       4.145 sec  ( 87.2%)
  Split-RI-J                ....       0.413 sec  ( 10.0% of F)
  XC integration            ....       3.705 sec  ( 89.4% of F)
    Basis function eval.    ....       0.644 sec  ( 17.4% of XC)
    Density eval.           ....       1.118 sec  ( 30.2% of XC)
    XC-Functional eval.     ....       0.321 sec  (  8.7% of XC)
    XC-Potential eval.      ....       1.516 sec  ( 40.9% of XC)
Diagonalization             ....       0.030 sec  (  0.6%)
Density matrix formation    ....       0.002 sec  (  0.0%)
Population analysis         ....       0.005 sec  (  0.1%)
Initial guess               ....       0.070 sec  (  1.5%)
Orbital Transformation      ....       0.000 sec  (  0.0%)
Orbital Orthonormalization  ....       0.000 sec  (  0.0%)
DIIS solution               ....       0.022 sec  (  0.5%)
SOSCF solution              ....       0.023 sec  (  0.5%)
Grid generation             ....       0.327 sec  (  6.9%)

Maximum memory used throughout the entire SCF-calculation: 16.3 MB


-------------------------------------------------------------------------------
                          DFT DISPERSION CORRECTION                            
                                                                               
                              DFTD3 V3.1  Rev 1                                
                          USING Becke-Johnson damping                          
-------------------------------------------------------------------------------
The TPSS functional is recognized
Active option DFTDOPT                   ...         4   

molecular C6(AA) [au] = 763.251434 


            DFT-D V3
 parameters
 s6 scaling factor         :     1.0000 
 a1 scaling factor         :     0.4535 
 s8 scaling factor         :     1.9435 
 a2 scaling factor         :     4.4752 
 ad hoc parameters k1-k3   :    16.0000     1.3333    -4.0000 

 Edisp/kcal,au: -4.824540813690  -0.007688394357 
 E6   /kcal   :  -2.566710939 
 E8   /kcal   :  -2.257829875 
 % E8         :  46.798855306 

-------------------------   ----------------
Dispersion correction           -0.007688394
-------------------------   ----------------


-------------------------   --------------------
FINAL SINGLE POINT ENERGY      -218.255692918656
-------------------------   --------------------


                            ***************************************
                            *     ORCA property calculations      *
                            ***************************************

                                    ---------------------
                                    Active property flags
                                    ---------------------
   (+) Dipole Moment


------------------------------------------------------------------------------
                       ORCA ELECTRIC PROPERTIES CALCULATION
------------------------------------------------------------------------------

Dipole Moment Calculation                       ... on
Quadrupole Moment Calculation                   ... off
Polarizability Calculation                      ... off
GBWName                                         ... 14Feb_SVPD_TPSS_C1_wt_wb97_typ1_neg.gbw
Electron density file                           ... 14Feb_SVPD_TPSS_C1_wt_wb97_typ1_neg.scfp
The origin for moment calculation is the CENTER OF MASS  = ( 6.385060, -2.818363 -11.132286)

-------------
DIPOLE MOMENT
-------------
                                X             Y             Z
Electronic contribution:     -4.39719       3.89264       1.42500
Nuclear contribution   :      4.50596      -4.50325      -1.58424
                        -----------------------------------------
Total Dipole Moment    :      0.10877      -0.61061      -0.15924
                        -----------------------------------------
Magnitude (a.u.)       :      0.64034
Magnitude (Debye)      :      1.62761



--------------------
Rotational spectrum 
--------------------
 
Rotational constants in cm-1:     0.464063     0.182606     0.146573 
Rotational constants in MHz : 13912.251583  5474.398056  4394.141907 

 Dipole components along the rotational axes: 
x,y,z [a.u.] :     0.363023    -0.515632    -0.111218 
x,y,z [Debye]:     0.922731    -1.310632    -0.282695 

 

Timings for individual modules:

Sum of individual times         ...        5.291 sec (=   0.088 min)
GTO integral calculation        ...        0.343 sec (=   0.006 min)   6.5 %
SCF iterations                  ...        4.948 sec (=   0.082 min)  93.5 %
                             ****ORCA TERMINATED NORMALLY****
TOTAL RUN TIME: 0 days 0 hours 0 minutes 5 seconds 658 msec
