
                                        *****************
                                        * O   R   C   A *
                                        *****************

                                            #,                                       
                                            ###                                      
                                            ####                                     
                                            #####                                    
                                            ######                                   
                                           ########,                                 
                                     ,,################,,,,,                         
                               ,,#################################,,                 
                          ,,##########################################,,             
                       ,#########################################, ''#####,          
                    ,#############################################,,   '####,        
                  ,##################################################,,,,####,       
                ,###########''''           ''''###############################       
              ,#####''   ,,,,##########,,,,          '''####'''          '####       
            ,##' ,,,,###########################,,,                        '##       
           ' ,,###''''                  '''############,,,                           
         ,,##''                                '''############,,,,        ,,,,,,###''
      ,#''                                            '''#######################'''  
     '                                                          ''''####''''         
             ,#######,   #######,   ,#######,      ##                                
            ,#'     '#,  ##    ##  ,#'     '#,    #''#        ######   ,####,        
            ##       ##  ##   ,#'  ##            #'  '#       #        #'  '#        
            ##       ##  #######   ##           ,######,      #####,   #    #        
            '#,     ,#'  ##    ##  '#,     ,#' ,#      #,         ##   #,  ,#        
             '#######'   ##     ##  '#######'  #'      '#     #####' # '####'        



                  #######################################################
                  #                        -***-                        #
                  #          Department of theory and spectroscopy      #
                  #    Directorship and core code : Frank Neese         #
                  #        Max Planck Institute fuer Kohlenforschung    #
                  #                Kaiser Wilhelm Platz 1               #
                  #                 D-45470 Muelheim/Ruhr               #
                  #                      Germany                        #
                  #                                                     #
                  #                  All rights reserved                #
                  #                        -***-                        #
                  #######################################################


                         Program Version 5.0.0 -  RELEASE  -
                                (SVN: $Rev: 19529$)
                ($Date: 2021-06-28 11:36:33 +0200 (Mo, 28 Jun 2021) $)


 With contributions from (in alphabetic order):
   Daniel Aravena         : Magnetic Suceptibility
   Michael Atanasov       : Ab Initio Ligand Field Theory (pilot matlab implementation)
   Alexander A. Auer      : GIAO ZORA, VPT2 properties, NMR spectrum
   Ute Becker             : Parallelization
   Giovanni Bistoni       : ED, misc. LED, open-shell LED, HFLD
   Martin Brehm           : Molecular dynamics
   Dmytro Bykov           : SCF Hessian
   Vijay G. Chilkuri      : MRCI spin determinant printing, contributions to CSF-ICE
   Dipayan Datta          : RHF DLPNO-CCSD density
   Achintya Kumar Dutta   : EOM-CC, STEOM-CC
   Dmitry Ganyushin       : Spin-Orbit,Spin-Spin,Magnetic field MRCI
   Miquel Garcia          : C-PCM Hessian, Gaussian charge scheme
   Yang Guo               : DLPNO-NEVPT2, F12-NEVPT2, CIM, IAO-localization
   Andreas Hansen         : Spin unrestricted coupled pair/coupled cluster methods
   Benjamin Helmich-Paris : MC-RPA, TRAH-SCF, COSX integrals
   Lee Huntington         : MR-EOM, pCC
   Robert Izsak           : Overlap fitted RIJCOSX, COSX-SCS-MP3, EOM
   Marcus Kettner         : VPT2
   Christian Kollmar      : KDIIS, OOCD, Brueckner-CCSD(T), CCSD density, CASPT2, CASPT2-K
   Simone Kossmann        : Meta GGA functionals, TD-DFT gradient, OOMP2, MP2 Hessian
   Martin Krupicka        : Initial AUTO-CI
   Lucas Lang             : DCDCAS
   Marvin Lechner         : AUTO-CI (C++ implementation), FIC-MRCC
   Dagmar Lenk            : GEPOL surface, SMD
   Dimitrios Liakos       : Extrapolation schemes; Compound Job, initial MDCI parallelization
   Dimitrios Manganas     : Further ROCIS development; embedding schemes
   Dimitrios Pantazis     : SARC Basis sets
   Anastasios Papadopoulos: AUTO-CI, single reference methods and gradients
   Taras Petrenko         : DFT Hessian,TD-DFT gradient, ASA, ECA, R-Raman, ABS, FL, XAS/XES, NRVS
   Peter Pinski           : DLPNO-MP2, DLPNO-MP2 Gradient
   Christoph Reimann      : Effective Core Potentials
   Marius Retegan         : Local ZFS, SOC
   Christoph Riplinger    : Optimizer, TS searches, QM/MM, DLPNO-CCSD(T), (RO)-DLPNO pert. Triples
   Tobias Risthaus        : Range-separated hybrids, TD-DFT gradient, RPA, STAB
   Michael Roemelt        : Original ROCIS implementation
   Masaaki Saitow         : Open-shell DLPNO-CCSD energy and density
   Barbara Sandhoefer     : DKH picture change effects
   Avijit Sen             : IP-ROCIS
   Kantharuban Sivalingam : CASSCF convergence, NEVPT2, FIC-MRCI
   Bernardo de Souza      : ESD, SOC TD-DFT
   Georgi Stoychev        : AutoAux, RI-MP2 NMR
   Willem Van den Heuvel  : Paramagnetic NMR
   Boris Wezisla          : Elementary symmetry handling
   Frank Wennmohs         : Technical directorship


 We gratefully acknowledge several colleagues who have allowed us to
 interface, adapt or use parts of their codes:
   Stefan Grimme, W. Hujo, H. Kruse, P. Pracht,  : VdW corrections, initial TS optimization,
                  C. Bannwarth, S. Ehlert          DFT functionals, gCP, sTDA/sTD-DF
   Ed Valeev, F. Pavosevic, A. Kumar             : LibInt (2-el integral package), F12 methods
   Garnet Chan, S. Sharma, J. Yang, R. Olivares  : DMRG
   Ulf Ekstrom                                   : XCFun DFT Library
   Mihaly Kallay                                 : mrcc  (arbitrary order and MRCC methods)
   Jiri Pittner, Ondrej Demel                    : Mk-CCSD
   Frank Weinhold                                : gennbo (NPA and NBO analysis)
   Christopher J. Cramer and Donald G. Truhlar   : smd solvation model
   Lars Goerigk                                  : TD-DFT with DH, B97 family of functionals
   V. Asgeirsson, H. Jonsson                     : NEB implementation
   FAccTs GmbH                                   : IRC, NEB, NEB-TS, DLPNO-Multilevel, CI-OPT
                                                   MM, QMMM, 2- and 3-layer-ONIOM, Crystal-QMMM,
                                                   LR-CPCM, SF, NACMEs, symmetry and pop. for TD-DFT,
                                                   nearIR, NL-DFT gradient (VV10), updates on ESD,
                                                   ML-optimized integration grids
   S Lehtola, MJT Oliveira, MAL Marques          : LibXC Library
   Liviu Ungur et al                             : ANISO software


 Your calculation uses the libint2 library for the computation of 2-el integrals
 For citations please refer to: http://libint.valeyev.net

 Your ORCA version has been built with support for libXC version: 5.1.0
 For citations please refer to: https://tddft.org/programs/libxc/

 This ORCA versions uses:
   CBLAS   interface :  Fast vector & matrix operations
   LAPACKE interface :  Fast linear algebra routines
   SCALAPACK package :  Parallel linear algebra routines
   Shared memory     :  Shared parallel matrices
   BLAS/LAPACK       :  OpenBLAS 0.3.15  USE64BITINT DYNAMIC_ARCH NO_AFFINITY Haswell SINGLE_THREADED
        Core in use  :  Haswell
   Copyright (c) 2011-2014, The OpenBLAS Project




***************************************
The coordinates will be read from file: B.xyz
***************************************


Your calculation utilizes the atom-pairwise dispersion correction
with the Becke-Johnson damping scheme (D3BJ)
Cite in your paper:
S.Grimme, S.Ehrlich, L.Goerigk, J Comput Chem, (2011), 32, 1456–1465 
S.Grimme, J.Antony, S.Ehrlich and H.Krieg, J.Chem.Phys., 132, (2010), 154104 
   

================================================================================

----- Orbital basis set information -----
Your calculation utilizes the basis: def2-TZVP
   F. Weigend and R. Ahlrichs, Phys. Chem. Chem. Phys. 7, 3297 (2005).

----- AuxJ basis set information -----
Your calculation utilizes the auxiliary basis: def2/J
   F. Weigend, Phys. Chem. Chem. Phys. 8, 1057 (2006).

================================================================================
                                        WARNINGS
                       Please study these warnings very carefully!
================================================================================


INFO   : the flag for use of the SHARK integral package has been found!

================================================================================
                                       INPUT FILE
================================================================================
NAME = B3LYP_B_wt_wb97.com
|  1> !B3LYP D3BJ RIJCOSX def2-TZVP def2/J TightSCF xyzfile                                                                                         
|  2> 
|  3> *xyzfile 0 1 B.xyz
|  4> 
|  5> %MaxCore 64000
|  6> 
|  7> %pal nprocs 18                                                                                                                                                  
|  8> end  
|  9> 
| 10> %scf
| 11>   MaxIter 150
| 12> end
| 13> 
| 14> 
| 15>                          ****END OF INPUT****
================================================================================

                       ****************************
                       * Single Point Calculation *
                       ****************************

---------------------------------
CARTESIAN COORDINATES (ANGSTROEM)
---------------------------------
  C      2.916324   -1.242589   -1.543125
  C      0.704661    1.443129   -4.503630
  C      1.728539    1.424320   -5.639443
  H      2.646718    1.953794   -5.381054
  H      1.299916    1.930613   -6.503614
  S      2.252625   -0.188115   -6.271840
  C      3.466585   -1.590971   -2.889082
  N      4.652275   -1.143164   -3.259692
  N      2.752264   -2.292043   -3.728029
  H      1.778364   -2.489604   -3.512738
  H      2.948612   -2.208544   -4.716813
  H      5.146723   -0.512508   -2.633852
  H      4.783030   -1.007203   -4.253498
  O      3.562607   -0.444464   -5.631552
  O      2.344944   -0.033742   -7.696501
  C      2.804084    0.290698   -1.359243
  C      1.052550    0.695659   -3.214915
  H     -0.232483    1.032925   -4.884449
  H      0.511700    2.495794   -4.267966
  C      2.388380    1.093669   -2.597108
  H      3.763425    0.674718   -0.999889
  H      2.094788    0.461222   -0.545756
  O      1.266058   -1.159177   -5.805365
  H      3.167316    1.013242   -3.359430
  H      2.357690    2.149375   -2.310997
  H      1.039284   -0.368429   -3.449329
  H      0.250787    0.865605   -2.488283
  H      1.940472   -1.716529   -1.441161
  H      3.558569   -1.663433   -0.766371

----------------------------
CARTESIAN COORDINATES (A.U.)
----------------------------
  NO LB      ZA    FRAG     MASS         X           Y           Z
   0 C     6.0000    0    12.011    5.511054   -2.348154   -2.916084
   1 C     6.0000    0    12.011    1.331617    2.727119   -8.510627
   2 C     6.0000    0    12.011    3.266466    2.691575  -10.657002
   3 H     1.0000    0     1.008    5.001573    3.692135  -10.168719
   4 H     1.0000    0     1.008    2.456486    3.648330  -12.290050
   5 S    16.0000    0    32.060    4.256845   -0.355485  -11.852059
   6 C     6.0000    0    12.011    6.550897   -3.006500   -5.459573
   7 N     7.0000    0    14.007    8.791525   -2.160266   -6.159925
   8 N     7.0000    0    14.007    5.201026   -4.331334   -7.044953
   9 H     1.0000    0     1.008    3.360621   -4.704669   -6.638113
  10 H     1.0000    0     1.008    5.572070   -4.173543   -8.913484
  11 H     1.0000    0     1.008    9.725897   -0.968501   -4.977259
  12 H     1.0000    0     1.008    9.038617   -1.903337   -8.037945
  13 O     8.0000    0    15.999    6.732352   -0.839915  -10.642091
  14 O     8.0000    0    15.999    4.431301   -0.063764  -14.544279
  15 C     6.0000    0    12.011    5.298951    0.549339   -2.568597
  16 C     6.0000    0    12.011    1.989032    1.314604   -6.075308
  17 H     1.0000    0     1.008   -0.439329    1.951946   -9.230272
  18 H     1.0000    0     1.008    0.966972    4.716368   -8.065286
  19 C     6.0000    0    12.011    4.513384    2.066735   -4.907822
  20 H     1.0000    0     1.008    7.111842    1.275032   -1.889516
  21 H     1.0000    0     1.008    3.958575    0.871583   -1.031329
  22 O     8.0000    0    15.999    2.392504   -2.190526  -10.970549
  23 H     1.0000    0     1.008    5.985361    1.914750   -6.348402
  24 H     1.0000    0     1.008    4.455389    4.061730   -4.367151
  25 H     1.0000    0     1.008    1.963961   -0.696229   -6.518287
  26 H     1.0000    0     1.008    0.473919    1.635756   -4.702174
  27 H     1.0000    0     1.008    3.666960   -3.243770   -2.723400
  28 H     1.0000    0     1.008    6.724720   -3.143433   -1.448231

--------------------------------
INTERNAL COORDINATES (ANGSTROEM)
--------------------------------
 C      0   0   0     0.000000000000     0.00000000     0.00000000
 C      1   0   0     4.568273793968     0.00000000     0.00000000
 C      2   1   0     1.529297825534    98.62404527     0.00000000
 H      3   2   1     1.090944370706   112.43319093   291.35935600
 H      3   2   1     1.089423309889   108.66365748   173.02891256
 S      3   2   1     1.809568454434   117.67249747    54.59879179
 C      1   2   3     1.495244269354    74.44217903   337.12806402
 N      7   1   2     1.320508752421   120.26891390   103.10495601
 N      7   1   2     1.305981940434   120.13503729   286.08645689
 H      9   7   1     1.016790325068   119.48364563     8.33019225
 H      9   7   1     1.011542432359   118.51921329   155.66854205
 H      8   7   1     1.016799188787   118.30856157   356.12171918
 H      8   7   1     1.011549184661   115.93680355   208.86906715
 O      6   3   2     1.480451351977   105.03550261   259.70514125
 O      6   3   2     1.435971529587   105.63739582   140.00826415
 C      1   2   3     1.548347683709    57.29458071   106.04454887
 C      2   1   3     1.529877614442    19.39834396   186.99389249
 H      2   1   3     1.091572130247   114.88526166   114.65620169
 H      2   1   3     1.095844940799   120.70540048   244.49829987
 C     17   2   1     1.524643581099   114.39523607    61.63043835
 H     16   1   2     1.094048234703   108.84673673   220.49718341
 H     16   1   2     1.092676175276   106.85886165   106.82959772
 O      6   3   2     1.460778685441   106.56716191    16.57397008
 H     20  17   2     1.092861154855   108.82111327   307.33588892
 H     20  17   2     1.094219453583   109.46571263    62.60087563
 H     17   2   1     1.089682404302   107.04520605   298.66165453
 H     17   2   1     1.095307766624   108.45540496   184.02122912
 H      1   2   3     1.089634927768    83.26793994   226.06030881
 H      1   2   3     1.092215339711   166.43145148    86.04509137

---------------------------
INTERNAL COORDINATES (A.U.)
---------------------------
 C      0   0   0     0.000000000000     0.00000000     0.00000000
 C      1   0   0     8.632786375368     0.00000000     0.00000000
 C      2   1   0     2.889954067461    98.62404527     0.00000000
 H      3   2   1     2.061586087978   112.43319093   291.35935600
 H      3   2   1     2.058711699600   108.66365748   173.02891256
 S      3   2   1     3.419588799463   117.67249747    54.59879179
 C      1   2   3     2.825602172394    74.44217903   337.12806402
 N      7   1   2     2.495399899522   120.26891390   103.10495601
 N      7   1   2     2.467948203268   120.13503729   286.08645689
 H      9   7   1     1.921455250000   119.48364563     8.33019225
 H      9   7   1     1.911538170000   118.51921329   155.66854205
 H      8   7   1     1.921472000000   118.30856157   356.12171918
 H      8   7   1     1.911550930000   115.93680355   208.86906715
 O      6   3   2     2.797647609830   105.03550261   259.70514125
 O      6   3   2     2.713592927028   105.63739582   140.00826415
 C      1   2   3     2.925953082301    57.29458071   106.04454887
 C      2   1   3     2.891049709713    19.39834396   186.99389249
 H      2   1   3     2.062772381588   114.88526166   114.65620169
 H      2   1   3     2.070846823354   120.70540048   244.49829987
 C     17   2   1     2.881158820119   114.39523607    61.63043835
 H     16   1   2     2.067451540889   108.84673673   220.49718341
 H     16   1   2     2.064858724332   106.85886165   106.82959772
 O      6   3   2     2.760471657752   106.56716191    16.57397008
 H     20  17   2     2.065208285076   108.82111327   307.33588892
 H     20  17   2     2.067775097680   109.46571263    62.60087563
 H     17   2   1     2.059201317083   107.04520605   298.66165453
 H     17   2   1     2.069831711276   108.45540496   184.02122912
 H      1   2   3     2.059111599436    83.26793994   226.06030881
 H      1   2   3     2.063987871322   166.43145148    86.04509137

---------------------
BASIS SET INFORMATION
---------------------
There are 5 groups of distinct atoms

 Group   1 Type C   : 11s6p2d1f contracted to 5s3p2d1f pattern {62111/411/11/1}
 Group   2 Type H   : 5s1p contracted to 3s1p pattern {311/1}
 Group   3 Type S   : 14s9p3d1f contracted to 5s5p2d1f pattern {73211/51111/21/1}
 Group   4 Type N   : 11s6p2d1f contracted to 5s3p2d1f pattern {62111/411/11/1}
 Group   5 Type O   : 11s6p2d1f contracted to 5s3p2d1f pattern {62111/411/11/1}

Atom   0C    basis set group =>   1
Atom   1C    basis set group =>   1
Atom   2C    basis set group =>   1
Atom   3H    basis set group =>   2
Atom   4H    basis set group =>   2
Atom   5S    basis set group =>   3
Atom   6C    basis set group =>   1
Atom   7N    basis set group =>   4
Atom   8N    basis set group =>   4
Atom   9H    basis set group =>   2
Atom  10H    basis set group =>   2
Atom  11H    basis set group =>   2
Atom  12H    basis set group =>   2
Atom  13O    basis set group =>   5
Atom  14O    basis set group =>   5
Atom  15C    basis set group =>   1
Atom  16C    basis set group =>   1
Atom  17H    basis set group =>   2
Atom  18H    basis set group =>   2
Atom  19C    basis set group =>   1
Atom  20H    basis set group =>   2
Atom  21H    basis set group =>   2
Atom  22O    basis set group =>   5
Atom  23H    basis set group =>   2
Atom  24H    basis set group =>   2
Atom  25H    basis set group =>   2
Atom  26H    basis set group =>   2
Atom  27H    basis set group =>   2
Atom  28H    basis set group =>   2
---------------------------------
AUXILIARY/J BASIS SET INFORMATION
---------------------------------
There are 5 groups of distinct atoms

 Group   1 Type C   : 12s5p4d2f1g contracted to 6s4p3d1f1g pattern {711111/2111/211/2/1}
 Group   2 Type H   : 5s2p1d contracted to 3s1p1d pattern {311/2/1}
 Group   3 Type S   : 14s5p5d2f1g contracted to 8s4p3d1f1g pattern {71111111/2111/311/2/1}
 Group   4 Type N   : 12s5p4d2f1g contracted to 6s4p3d1f1g pattern {711111/2111/211/2/1}
 Group   5 Type O   : 12s5p4d2f1g contracted to 6s4p3d1f1g pattern {711111/2111/211/2/1}

Atom   0C    basis set group =>   1
Atom   1C    basis set group =>   1
Atom   2C    basis set group =>   1
Atom   3H    basis set group =>   2
Atom   4H    basis set group =>   2
Atom   5S    basis set group =>   3
Atom   6C    basis set group =>   1
Atom   7N    basis set group =>   4
Atom   8N    basis set group =>   4
Atom   9H    basis set group =>   2
Atom  10H    basis set group =>   2
Atom  11H    basis set group =>   2
Atom  12H    basis set group =>   2
Atom  13O    basis set group =>   5
Atom  14O    basis set group =>   5
Atom  15C    basis set group =>   1
Atom  16C    basis set group =>   1
Atom  17H    basis set group =>   2
Atom  18H    basis set group =>   2
Atom  19C    basis set group =>   1
Atom  20H    basis set group =>   2
Atom  21H    basis set group =>   2
Atom  22O    basis set group =>   5
Atom  23H    basis set group =>   2
Atom  24H    basis set group =>   2
Atom  25H    basis set group =>   2
Atom  26H    basis set group =>   2
Atom  27H    basis set group =>   2
Atom  28H    basis set group =>   2


           ************************************************************
           *        Program running with 18 parallel MPI-processes    *
           *              working on a common directory               *
           ************************************************************
------------------------------------------------------------------------------
                           ORCA GTO INTEGRAL CALCULATION
                           -- RI-GTO INTEGRALS CHOSEN --
------------------------------------------------------------------------------
------------------------------------------------------------------------------
                   ___                                                        
                  /   \      - P O W E R E D   B Y -                         
                 /     \                                                     
                 |  |  |   _    _      __       _____    __    __             
                 |  |  |  | |  | |    /  \     |  _  \  |  |  /  |          
                  \  \/   | |  | |   /    \    | | | |  |  | /  /          
                 / \  \   | |__| |  /  /\  \   | |_| |  |  |/  /          
                |  |  |   |  __  | /  /__\  \  |    /   |      \           
                |  |  |   | |  | | |   __   |  |    \   |  |\   \          
                \     /   | |  | | |  |  |  |  | |\  \  |  | \   \       
                 \___/    |_|  |_| |__|  |__|  |_| \__\ |__|  \__/        
                                                                              
                      - O R C A' S   B I G   F R I E N D -                    
                                      &                                       
                       - I N T E G R A L  F E E D E R -                       
                                                                              
 v1 FN, 2020, v2 2021                                                         
------------------------------------------------------------------------------


Reading SHARK input file B3LYP_B_wt_wb97.SHARKINP.tmp ... ok
----------------------
SHARK INTEGRAL PACKAGE
----------------------

Number of atoms                             ...     29
Number of basis functions                   ...    505
Number of shells                            ...    209
Maximum angular momentum                    ...      3
Integral batch strategy                     ... SHARK/LIBINT Hybrid
RI-J (if used) integral strategy            ... SPLIT-RIJ (Revised 2003 algorithm where possible)
Printlevel                                  ...      1
Contraction scheme used                     ... SEGMENTED contraction
Coulomb Range Separation                    ... NOT USED
Exchange Range Separation                   ... NOT USED
Finite Nucleus Model                        ... NOT USED
Auxiliary Coulomb fitting basis             ... AVAILABLE
   # of basis functions in Aux-J            ...    815
   # of shells in Aux-J                     ...    277
   Maximum angular momentum in Aux-J        ...      4
Auxiliary J/K fitting basis                 ... NOT available
Auxiliary Correlation fitting basis         ... NOT available
Auxiliary 'external' fitting basis          ... NOT available
Integral threshold                          ...     2.500000e-11
Primitive cut-off                           ...     2.500000e-12
Primitive pair pre-selection threshold      ...     2.500000e-12

Calculating pre-screening integrals         ... done (  0.2 sec) Dimension = 209
Organizing shell pair data                  ... done (  0.2 sec)
Shell pair information
Total number of shell pairs                 ...     21945
Shell pairs after pre-screening             ...     18708
Total number of primitive shell pairs       ...     66414
Primitive shell pairs kept                  ...     39589
          la=0 lb=0:   5342 shell pairs
          la=1 lb=0:   5545 shell pairs
          la=1 lb=1:   1480 shell pairs
          la=2 lb=0:   2483 shell pairs
          la=2 lb=1:   1317 shell pairs
          la=2 lb=2:    311 shell pairs
          la=3 lb=0:   1208 shell pairs
          la=3 lb=1:    644 shell pairs
          la=3 lb=2:    298 shell pairs
          la=3 lb=3:     80 shell pairs

Calculating one electron integrals          ... done (  0.0 sec)
Calculating RI/J V-Matrix + Cholesky decomp.... done (  0.1 sec)
Calculating Nuclear repulsion               ... done (  0.0 sec) ENN=   1085.894536012150 Eh

SHARK setup successfully completed in   0.6 seconds

Maximum memory used throughout the entire GTOINT-calculation: 29.4 MB


           ************************************************************
           *        Program running with 18 parallel MPI-processes    *
           *              working on a common directory               *
           ************************************************************
-------------------------------------------------------------------------------
                                 ORCA SCF
-------------------------------------------------------------------------------

------------
SCF SETTINGS
------------
Hamiltonian:
 Density Functional     Method          .... DFT(GTOs)
 Exchange Functional    Exchange        .... B88
   X-Alpha parameter    XAlpha          ....  0.666667
   Becke's b parameter  XBeta           ....  0.004200
 Correlation Functional Correlation     .... LYP
 LDA part of GGA corr.  LDAOpt          .... VWN-5
 Gradients option       PostSCFGGA      .... off
 Hybrid DFT is turned on
   Fraction HF Exchange ScalHFX         ....  0.200000
   Scaling of DF-GGA-X  ScalDFX         ....  0.720000
   Scaling of DF-GGA-C  ScalDFC         ....  0.810000
   Scaling of DF-LDA-C  ScalLDAC        ....  1.000000
   Perturbative correction              ....  0.000000
   Density functional embedding theory  .... OFF
   NL short-range parameter             ....  4.800000
 RI-approximation to the Coulomb term is turned on
   Number of AuxJ basis functions       .... 815
   RIJ-COSX (HFX calculated with COS-X)).... on


General Settings:
 Integral files         IntName         .... B3LYP_B_wt_wb97
 Hartree-Fock type      HFTyp           .... RHF
 Total Charge           Charge          ....    0
 Multiplicity           Mult            ....    1
 Number of Electrons    NEL             ....  112
 Basis Dimension        Dim             ....  505
 Nuclear Repulsion      ENuc            ....   1085.8945360122 Eh

Convergence Acceleration:
 DIIS                   CNVDIIS         .... on
   Start iteration      DIISMaxIt       ....    12
   Startup error        DIISStart       ....  0.200000
   # of expansion vecs  DIISMaxEq       ....     5
   Bias factor          DIISBfac        ....   1.050
   Max. coefficient     DIISMaxC        ....  10.000
 Trust-Rad. Augm. Hess. CNVTRAH         .... auto
   Auto Start mean grad. ratio tolernc. ....  1.125000
   Auto Start start iteration           ....    20
   Auto Start num. interpolation iter.  ....    10
   Max. Number of Micro iterations      ....    16
   Max. Number of Macro iterations      .... Maxiter - #DIIS iter
   Number of Davidson start vectors     ....     2
   Converg. threshold I  (grad. norm)   ....   1.000e-05
   Converg. threshold II (energy diff.) ....   1.000e-08
   Grad. Scal. Fac. for Micro threshold ....   0.100
   Minimum threshold for Micro iter.    ....   0.010
   NR start threshold (gradient norm)   ....   0.001
   Initial trust radius                 ....   0.400
   Minimum AH scaling param. (alpha)    ....   1.000
   Maximum AH scaling param. (alpha)    .... 1000.000
   Orbital update algorithm             .... Taylor
   White noise on init. David. guess    .... on
   Maximum white noise                  ....   0.010
   Quad. conv. algorithm                .... NR
 SOSCF                  CNVSOSCF        .... on
   Start iteration      SOSCFMaxIt      ....   150
   Startup grad/error   SOSCFStart      ....  0.003300
 Level Shifting         CNVShift        .... on
   Level shift para.    LevelShift      ....    0.2500
   Turn off err/grad.   ShiftErr        ....    0.0010
 Zerner damping         CNVZerner       .... off
 Static damping         CNVDamp         .... on
   Fraction old density DampFac         ....    0.7000
   Max. Damping (<1)    DampMax         ....    0.9800
   Min. Damping (>=0)   DampMin         ....    0.0000
   Turn off err/grad.   DampErr         ....    0.1000
 Fernandez-Rico         CNVRico         .... off

SCF Procedure:
 Maximum # iterations   MaxIter         ....   150
 SCF integral mode      SCFMode         .... Direct
   Integral package                     .... SHARK and LIBINT hybrid scheme
 Reset frequency        DirectResetFreq ....    20
 Integral Threshold     Thresh          ....  2.500e-11 Eh
 Primitive CutOff       TCut            ....  2.500e-12 Eh

Convergence Tolerance:
 Convergence Check Mode ConvCheckMode   .... Total+1el-Energy
 Convergence forced     ConvForced      .... 0
 Energy Change          TolE            ....  1.000e-08 Eh
 1-El. energy change                    ....  1.000e-05 Eh
 Orbital Gradient       TolG            ....  1.000e-05
 Orbital Rotation angle TolX            ....  1.000e-05
 DIIS Error             TolErr          ....  5.000e-07


Diagonalization of the overlap matrix:
Smallest eigenvalue                        ... 5.965e-05
Time for diagonalization                   ...    0.065 sec
Threshold for overlap eigenvalues          ... 1.000e-08
Number of eigenvalues below threshold      ... 0
Time for construction of square roots      ...    0.215 sec
Total time needed                          ...    0.284 sec

Time for model grid setup =    0.148 sec

------------------------------
INITIAL GUESS: MODEL POTENTIAL
------------------------------
Loading Hartree-Fock densities                     ... done
Calculating cut-offs                               ... done
Initializing the effective Hamiltonian             ... done
Setting up the integral package (SHARK)            ... done
Starting the Coulomb interaction                   ... done (   0.1 sec)
Reading the grid                                   ... done
Mapping shells                                     ... done
Starting the XC term evaluation                    ... done (   0.1 sec)
  promolecular density results
     # of electrons  =    111.991594460
     EX              =   -103.728352483
     EC              =     -3.946071136
     EX+EC           =   -107.674423619
Transforming the Hamiltonian                       ... done (   0.0 sec)
Diagonalizing the Hamiltonian                      ... done (   0.1 sec)
Back transforming the eigenvectors                 ... done (   0.0 sec)
Now organizing SCF variables                       ... done
                      ------------------
                      INITIAL GUESS DONE (   0.5 sec)
                      ------------------
-------------------
DFT GRID GENERATION
-------------------

General Integration Accuracy     IntAcc      ... 4.388
Radial Grid Type                 RadialGrid  ... OptM3 with GC (2021)
Angular Grid (max. ang.)         AngularGrid ... 4 (Lebedev-302)
Angular grid pruning method      GridPruning ... 4 (adaptive)
Weight generation scheme         WeightScheme... Becke
Basis function cutoff            BFCut       ... 1.0000e-11
Integration weight cutoff        WCut        ... 1.0000e-14
Angular grids for H and He will be reduced by one unit
Partially contracted basis set               ... off
Rotationally invariant grid construction     ... off

Total number of grid points                  ...   129568
Total number of batches                      ...     2040
Average number of points per batch           ...       63
Average number of grid points per atom       ...     4468
Time for grid setup =    0.703 sec

--------------------
COSX GRID GENERATION
--------------------

GRIDX 1
-------
General Integration Accuracy     IntAcc      ... 3.816
Radial Grid Type                 RadialGrid  ... OptM3 with GC (2021)
Angular Grid (max. ang.)         AngularGrid ... 1 (Lebedev-50)
Angular grid pruning method      GridPruning ... 4 (adaptive)
Weight generation scheme         WeightScheme... Becke
Basis function cutoff            BFCut       ... 1.0000e-11
Integration weight cutoff        WCut        ... 1.0000e-14
Angular grids for H and He will be reduced by one unit
Partially contracted basis set               ... on
Rotationally invariant grid construction     ... off

Total number of grid points                  ...    16417
Total number of batches                      ...      275
Average number of points per batch           ...       59
Average number of grid points per atom       ...      566
UseSFitting                                  ... on

GRIDX 2
-------
General Integration Accuracy     IntAcc      ... 4.020
Radial Grid Type                 RadialGrid  ... OptM3 with GC (2021)
Angular Grid (max. ang.)         AngularGrid ... 2 (Lebedev-110)
Angular grid pruning method      GridPruning ... 4 (adaptive)
Weight generation scheme         WeightScheme... Becke
Basis function cutoff            BFCut       ... 1.0000e-11
Integration weight cutoff        WCut        ... 1.0000e-14
Angular grids for H and He will be reduced by one unit
Partially contracted basis set               ... on
Rotationally invariant grid construction     ... off

Total number of grid points                  ...    34790
Total number of batches                      ...      558
Average number of points per batch           ...       62
Average number of grid points per atom       ...     1200
UseSFitting                                  ... on

GRIDX 3
-------
General Integration Accuracy     IntAcc      ... 4.338
Radial Grid Type                 RadialGrid  ... OptM3 with GC (2021)
Angular Grid (max. ang.)         AngularGrid ... 3 (Lebedev-194)
Angular grid pruning method      GridPruning ... 4 (adaptive)
Weight generation scheme         WeightScheme... Becke
Basis function cutoff            BFCut       ... 1.0000e-11
Integration weight cutoff        WCut        ... 1.0000e-14
Angular grids for H and He will be reduced by one unit
Partially contracted basis set               ... on
Rotationally invariant grid construction     ... off

Total number of grid points                  ...    76364
Total number of batches                      ...     1206
Average number of points per batch           ...       63
Average number of grid points per atom       ...     2633
UseSFitting                                  ... on

Time for X-Grid setup             =    0.973 sec

--------------
SCF ITERATIONS
--------------
ITER       Energy         Delta-E        Max-DP      RMS-DP      [F,P]     Damp
               ***  Starting incremental Fock matrix formation  ***
  0  -1008.9771737791   0.000000000000 0.11707387  0.00115077  0.3263336 0.7000
  1  -1009.2862868460  -0.309113066944 0.07957531  0.00090036  0.1324709 0.7000
                               ***Turning on DIIS***
  2  -1009.3959078594  -0.109621013380 0.11383754  0.00148165  0.0367219 0.0000
  3  -1009.5788344423  -0.182926582870 0.07236918  0.00065195  0.0717160 0.0000
  4  -1009.6163039218  -0.037469479527 0.02939619  0.00026208  0.0146505 0.0000
  5  -1009.6183795797  -0.002075657840 0.00970096  0.00009394  0.0061397 0.0000
                      *** Initiating the SOSCF procedure ***
                           *** Shutting down DIIS ***
                      *** Re-Reading the Fockian *** 
                      *** Removing any level shift *** 
ITER      Energy       Delta-E        Grad      Rot      Max-DP    RMS-DP
  6  -1009.61856715  -0.0001875751  0.000266  0.000266  0.002796  0.000033
               *** Restarting incremental Fock matrix formation ***
  7  -1009.61852000   0.0000471564  0.000119  0.000483  0.002836  0.000024
  8  -1009.61852006  -0.0000000576  0.000172  0.000186  0.000370  0.000007
  9  -1009.61852229  -0.0000022336  0.000039  0.000107  0.000555  0.000006
 10  -1009.61852228   0.0000000106  0.000036  0.000042  0.000138  0.000002
 11  -1009.61852248  -0.0000001986  0.000011  0.000033  0.000122  0.000001
 12  -1009.61852246   0.0000000156  0.000010  0.000014  0.000050  0.000000
                  ***Gradient check signals convergence***
              ***Rediagonalizing the Fockian in SOSCF/NRSCF***

               *****************************************************
               *                     SUCCESS                       *
               *           SCF CONVERGED AFTER  13 CYCLES          *
               *****************************************************

Old exchange energy                            =    -21.046892894 Eh
New exchange energy                            =    -21.046888965 Eh
Exchange energy change after final integration =      0.000003929 Eh
Total energy after final integration           =  -1009.618518542 Eh
Final COS-X integration done in                =     5.325 sec

----------------
TOTAL SCF ENERGY
----------------

Total Energy       :        -1009.61851854 Eh          -27473.11660 eV

Components:
Nuclear Repulsion  :         1085.89453601 Eh           29548.69255 eV
Electronic Energy  :        -2095.51305455 Eh          -57021.80915 eV
One Electron Energy:        -3541.58726436 Eh          -96371.48889 eV
Two Electron Energy:         1446.07420980 Eh           39349.67975 eV
Max COSX asymmetry :            0.00000137 Eh               0.00004 eV

Virial components:
Potential Energy   :        -2016.16873929 Eh          -54862.74056 eV
Kinetic Energy     :         1006.55022075 Eh           27389.62397 eV
Virial Ratio       :            2.00304833


DFT components:
N(Alpha)           :       56.000017718976 electrons
N(Beta)            :       56.000017718976 electrons
N(Total)           :      112.000035437953 electrons
E(X)               :      -83.624257455125 Eh       
E(C)               :       -4.639378490383 Eh       
E(XC)              :      -88.263635945508 Eh       
DFET-embed. en.    :        0.000000000000 Eh       

---------------
SCF CONVERGENCE
---------------

  Last Energy change         ...   -9.4784e-09  Tolerance :   1.0000e-08
  Last MAX-Density change    ...    2.2204e-15  Tolerance :   1.0000e-07
  Last RMS-Density change    ...    1.3839e-17  Tolerance :   5.0000e-09
  Last Orbital Gradient      ...    1.2383e-06  Tolerance :   1.0000e-05
  Last Orbital Rotation      ...    4.6135e-06  Tolerance :   1.0000e-05

             **** THE GBW FILE WAS UPDATED (B3LYP_B_wt_wb97.gbw) ****
             **** DENSITY B3LYP_B_wt_wb97.scfp WAS UPDATED ****
             **** ENERGY FILE WAS UPDATED (B3LYP_B_wt_wb97.en.tmp) ****
             **** THE GBW FILE WAS UPDATED (B3LYP_B_wt_wb97.gbw) ****
             **** DENSITY B3LYP_B_wt_wb97.scfp WAS UPDATED ****
----------------
ORBITAL ENERGIES
----------------

  NO   OCC          E(Eh)            E(eV) 
   0   2.0000     -88.989668     -2421.5320 
   1   2.0000     -19.060993      -518.6760 
   2   2.0000     -19.053941      -518.4841 
   3   2.0000     -19.044472      -518.2264 
   4   2.0000     -14.386691      -391.4818 
   5   2.0000     -14.386097      -391.4656 
   6   2.0000     -10.326404      -280.9957 
   7   2.0000     -10.232821      -278.4492 
   8   2.0000     -10.211271      -277.8628 
   9   2.0000     -10.182625      -277.0833 
  10   2.0000     -10.169617      -276.7294 
  11   2.0000     -10.165376      -276.6140 
  12   2.0000     -10.162849      -276.5452 
  13   2.0000      -8.033237      -218.5955 
  14   2.0000      -5.996711      -163.1788 
  15   2.0000      -5.996203      -163.1650 
  16   2.0000      -5.994948      -163.1308 
  17   2.0000      -1.077029       -29.3075 
  18   2.0000      -1.040486       -28.3131 
  19   2.0000      -0.944084       -25.6898 
  20   2.0000      -0.939907       -25.5762 
  21   2.0000      -0.936591       -25.4859 
  22   2.0000      -0.845779       -23.0148 
  23   2.0000      -0.799053       -21.7433 
  24   2.0000      -0.752449       -20.4752 
  25   2.0000      -0.700011       -19.0483 
  26   2.0000      -0.672305       -18.2943 
  27   2.0000      -0.637101       -17.3364 
  28   2.0000      -0.602325       -16.3901 
  29   2.0000      -0.591194       -16.0872 
  30   2.0000      -0.580931       -15.8079 
  31   2.0000      -0.536472       -14.5981 
  32   2.0000      -0.525011       -14.2863 
  33   2.0000      -0.513524       -13.9737 
  34   2.0000      -0.496462       -13.5094 
  35   2.0000      -0.470559       -12.8046 
  36   2.0000      -0.462363       -12.5815 
  37   2.0000      -0.443922       -12.0797 
  38   2.0000      -0.433350       -11.7921 
  39   2.0000      -0.429881       -11.6977 
  40   2.0000      -0.424548       -11.5525 
  41   2.0000      -0.413603       -11.2547 
  42   2.0000      -0.402286       -10.9468 
  43   2.0000      -0.385671       -10.4947 
  44   2.0000      -0.377366       -10.2687 
  45   2.0000      -0.373359       -10.1596 
  46   2.0000      -0.346647        -9.4327 
  47   2.0000      -0.339454        -9.2370 
  48   2.0000      -0.327283        -8.9058 
  49   2.0000      -0.325505        -8.8574 
  50   2.0000      -0.304732        -8.2922 
  51   2.0000      -0.300783        -8.1847 
  52   2.0000      -0.266093        -7.2408 
  53   2.0000      -0.260472        -7.0878 
  54   2.0000      -0.252375        -6.8675 
  55   2.0000      -0.223136        -6.0718 
  56   0.0000      -0.058808        -1.6002 
  57   0.0000      -0.013538        -0.3684 
  58   0.0000       0.015455         0.4205 
  59   0.0000       0.034265         0.9324 
  60   0.0000       0.044665         1.2154 
  61   0.0000       0.052016         1.4154 
  62   0.0000       0.070111         1.9078 
  63   0.0000       0.073619         2.0033 
  64   0.0000       0.087296         2.3754 
  65   0.0000       0.090118         2.4522 
  66   0.0000       0.101515         2.7624 
  67   0.0000       0.108438         2.9507 
  68   0.0000       0.116223         3.1626 
  69   0.0000       0.116630         3.1737 
  70   0.0000       0.119965         3.2644 
  71   0.0000       0.126114         3.4317 
  72   0.0000       0.139181         3.7873 
  73   0.0000       0.150798         4.1034 
  74   0.0000       0.158372         4.3095 
  75   0.0000       0.161844         4.4040 
  76   0.0000       0.164238         4.4691 
  77   0.0000       0.168439         4.5835 
  78   0.0000       0.174619         4.7516 
  79   0.0000       0.185298         5.0422 
  80   0.0000       0.195606         5.3227 
  81   0.0000       0.202006         5.4969 
  82   0.0000       0.209092         5.6897 
  83   0.0000       0.216453         5.8900 
  84   0.0000       0.221582         6.0296 
  85   0.0000       0.230528         6.2730 
  86   0.0000       0.243785         6.6337 
  87   0.0000       0.249386         6.7861 
  88   0.0000       0.260606         7.0915 
  89   0.0000       0.265289         7.2189 
  90   0.0000       0.277652         7.5553 
  91   0.0000       0.285342         7.7645 
  92   0.0000       0.291915         7.9434 
  93   0.0000       0.304947         8.2980 
  94   0.0000       0.314619         8.5612 
  95   0.0000       0.321088         8.7373 
  96   0.0000       0.331755         9.0275 
  97   0.0000       0.340926         9.2771 
  98   0.0000       0.351081         9.5534 
  99   0.0000       0.353758         9.6263 
 100   0.0000       0.357835         9.7372 
 101   0.0000       0.366862         9.9828 
 102   0.0000       0.370905        10.0928 
 103   0.0000       0.379774        10.3342 
 104   0.0000       0.388800        10.5798 
 105   0.0000       0.391943        10.6653 
 106   0.0000       0.401089        10.9142 
 107   0.0000       0.405206        11.0262 
 108   0.0000       0.411579        11.1996 
 109   0.0000       0.422033        11.4841 
 110   0.0000       0.424214        11.5434 
 111   0.0000       0.427154        11.6234 
 112   0.0000       0.435538        11.8516 
 113   0.0000       0.439142        11.9497 
 114   0.0000       0.441126        12.0036 
 115   0.0000       0.449729        12.2378 
 116   0.0000       0.456727        12.4282 
 117   0.0000       0.458931        12.4881 
 118   0.0000       0.466424        12.6920 
 119   0.0000       0.469610        12.7787 
 120   0.0000       0.476752        12.9731 
 121   0.0000       0.486252        13.2316 
 122   0.0000       0.489864        13.3299 
 123   0.0000       0.494814        13.4646 
 124   0.0000       0.505770        13.7627 
 125   0.0000       0.515228        14.0201 
 126   0.0000       0.524045        14.2600 
 127   0.0000       0.525820        14.3083 
 128   0.0000       0.531173        14.4539 
 129   0.0000       0.546056        14.8590 
 130   0.0000       0.547471        14.8974 
 131   0.0000       0.555354        15.1120 
 132   0.0000       0.561970        15.2920 
 133   0.0000       0.571689        15.5565 
 134   0.0000       0.577842        15.7239 
 135   0.0000       0.581648        15.8275 
 136   0.0000       0.607261        16.5244 
 137   0.0000       0.614827        16.7303 
 138   0.0000       0.636608        17.3230 
 139   0.0000       0.647339        17.6150 
 140   0.0000       0.652459        17.7543 
 141   0.0000       0.658774        17.9261 
 142   0.0000       0.671885        18.2829 
 143   0.0000       0.676921        18.4199 
 144   0.0000       0.679099        18.4792 
 145   0.0000       0.709507        19.3067 
 146   0.0000       0.715794        19.4778 
 147   0.0000       0.731164        19.8960 
 148   0.0000       0.738523        20.0962 
 149   0.0000       0.751345        20.4451 
 150   0.0000       0.778179        21.1753 
 151   0.0000       0.779974        21.2242 
 152   0.0000       0.786910        21.4129 
 153   0.0000       0.809423        22.0255 
 154   0.0000       0.834935        22.7197 
 155   0.0000       0.841480        22.8978 
 156   0.0000       0.845800        23.0154 
 157   0.0000       0.852118        23.1873 
 158   0.0000       0.861601        23.4454 
 159   0.0000       0.882403        24.0114 
 160   0.0000       0.891726        24.2651 
 161   0.0000       0.909744        24.7554 
 162   0.0000       0.924971        25.1697 
 163   0.0000       0.932309        25.3694 
 164   0.0000       0.947506        25.7829 
 165   0.0000       0.948831        25.8190 
 166   0.0000       0.960620        26.1398 
 167   0.0000       0.976920        26.5833 
 168   0.0000       0.986390        26.8410 
 169   0.0000       0.995844        27.0983 
 170   0.0000       1.000694        27.2303 
 171   0.0000       1.003230        27.2993 
 172   0.0000       1.030793        28.0493 
 173   0.0000       1.066482        29.0204 
 174   0.0000       1.073939        29.2234 
 175   0.0000       1.084062        29.4988 
 176   0.0000       1.093227        29.7482 
 177   0.0000       1.124716        30.6051 
 178   0.0000       1.134165        30.8622 
 179   0.0000       1.140108        31.0239 
 180   0.0000       1.147642        31.2289 
 181   0.0000       1.158592        31.5269 
 182   0.0000       1.175600        31.9897 
 183   0.0000       1.188625        32.3441 
 184   0.0000       1.199766        32.6473 
 185   0.0000       1.204451        32.7748 
 186   0.0000       1.206290        32.8248 
 187   0.0000       1.233441        33.5636 
 188   0.0000       1.242448        33.8087 
 189   0.0000       1.259805        34.2810 
 190   0.0000       1.270205        34.5640 
 191   0.0000       1.310046        35.6482 
 192   0.0000       1.318512        35.8785 
 193   0.0000       1.322929        35.9987 
 194   0.0000       1.341088        36.4929 
 195   0.0000       1.363244        37.0957 
 196   0.0000       1.372737        37.3541 
 197   0.0000       1.404430        38.2165 
 198   0.0000       1.409192        38.3461 
 199   0.0000       1.428520        38.8720 
 200   0.0000       1.435880        39.0723 
 201   0.0000       1.445415        39.3317 
 202   0.0000       1.461347        39.7653 
 203   0.0000       1.462691        39.8018 
 204   0.0000       1.483789        40.3759 
 205   0.0000       1.491399        40.5830 
 206   0.0000       1.496900        40.7327 
 207   0.0000       1.498697        40.7816 
 208   0.0000       1.512408        41.1547 
 209   0.0000       1.533623        41.7320 
 210   0.0000       1.553377        42.2695 
 211   0.0000       1.557339        42.3774 
 212   0.0000       1.563237        42.5378 
 213   0.0000       1.578066        42.9414 
 214   0.0000       1.582733        43.0684 
 215   0.0000       1.597783        43.4779 
 216   0.0000       1.602338        43.6018 
 217   0.0000       1.616553        43.9887 
 218   0.0000       1.623520        44.1782 
 219   0.0000       1.627748        44.2933 
 220   0.0000       1.642003        44.6812 
 221   0.0000       1.648594        44.8605 
 222   0.0000       1.657061        45.0909 
 223   0.0000       1.658855        45.1397 
 224   0.0000       1.675623        45.5960 
 225   0.0000       1.680887        45.7393 
 226   0.0000       1.685598        45.8675 
 227   0.0000       1.695801        46.1451 
 228   0.0000       1.706548        46.4375 
 229   0.0000       1.715460        46.6800 
 230   0.0000       1.723104        46.8881 
 231   0.0000       1.744074        47.4587 
 232   0.0000       1.751992        47.6741 
 233   0.0000       1.765539        48.0428 
 234   0.0000       1.784828        48.5676 
 235   0.0000       1.790931        48.7337 
 236   0.0000       1.797410        48.9100 
 237   0.0000       1.814266        49.3687 
 238   0.0000       1.839174        50.0465 
 239   0.0000       1.851948        50.3941 
 240   0.0000       1.859297        50.5940 
 241   0.0000       1.867729        50.8235 
 242   0.0000       1.877061        51.0774 
 243   0.0000       1.889174        51.4070 
 244   0.0000       1.906233        51.8712 
 245   0.0000       1.916408        52.1481 
 246   0.0000       1.927906        52.4610 
 247   0.0000       1.937736        52.7285 
 248   0.0000       1.944166        52.9035 
 249   0.0000       1.958402        53.2908 
 250   0.0000       1.973846        53.7111 
 251   0.0000       1.980278        53.8861 
 252   0.0000       1.994165        54.2640 
 253   0.0000       2.018898        54.9370 
 254   0.0000       2.028727        55.2045 
 255   0.0000       2.034609        55.3645 
 256   0.0000       2.058057        56.0026 
 257   0.0000       2.070332        56.3366 
 258   0.0000       2.076092        56.4933 
 259   0.0000       2.095889        57.0320 
 260   0.0000       2.113821        57.5200 
 261   0.0000       2.121559        57.7305 
 262   0.0000       2.127481        57.8917 
 263   0.0000       2.149690        58.4960 
 264   0.0000       2.175739        59.2049 
 265   0.0000       2.198384        59.8211 
 266   0.0000       2.206417        60.0397 
 267   0.0000       2.222063        60.4654 
 268   0.0000       2.246837        61.1395 
 269   0.0000       2.260835        61.5204 
 270   0.0000       2.286043        62.2064 
 271   0.0000       2.301316        62.6220 
 272   0.0000       2.304337        62.7042 
 273   0.0000       2.310774        62.8793 
 274   0.0000       2.332307        63.4653 
 275   0.0000       2.341525        63.7161 
 276   0.0000       2.367631        64.4265 
 277   0.0000       2.375201        64.6325 
 278   0.0000       2.378452        64.7210 
 279   0.0000       2.394483        65.1572 
 280   0.0000       2.398970        65.2793 
 281   0.0000       2.413512        65.6750 
 282   0.0000       2.438278        66.3489 
 283   0.0000       2.448165        66.6180 
 284   0.0000       2.450525        66.6822 
 285   0.0000       2.458222        66.8916 
 286   0.0000       2.471549        67.2543 
 287   0.0000       2.475766        67.3690 
 288   0.0000       2.490078        67.7585 
 289   0.0000       2.496790        67.9411 
 290   0.0000       2.504692        68.1561 
 291   0.0000       2.512105        68.3578 
 292   0.0000       2.525196        68.7141 
 293   0.0000       2.529523        68.8318 
 294   0.0000       2.541356        69.1538 
 295   0.0000       2.552659        69.4614 
 296   0.0000       2.561822        69.7107 
 297   0.0000       2.575573        70.0849 
 298   0.0000       2.583190        70.2922 
 299   0.0000       2.588972        70.4495 
 300   0.0000       2.595985        70.6404 
 301   0.0000       2.611987        71.0758 
 302   0.0000       2.613351        71.1129 
 303   0.0000       2.622234        71.3546 
 304   0.0000       2.628614        71.5282 
 305   0.0000       2.643204        71.9252 
 306   0.0000       2.651063        72.1391 
 307   0.0000       2.677525        72.8592 
 308   0.0000       2.680485        72.9397 
 309   0.0000       2.688722        73.1639 
 310   0.0000       2.695736        73.3547 
 311   0.0000       2.712062        73.7990 
 312   0.0000       2.716828        73.9287 
 313   0.0000       2.742629        74.6307 
 314   0.0000       2.751856        74.8818 
 315   0.0000       2.759939        75.1018 
 316   0.0000       2.769698        75.3673 
 317   0.0000       2.775498        75.5251 
 318   0.0000       2.793262        76.0085 
 319   0.0000       2.805931        76.3533 
 320   0.0000       2.811631        76.5084 
 321   0.0000       2.863569        77.9217 
 322   0.0000       2.873577        78.1940 
 323   0.0000       2.881189        78.4011 
 324   0.0000       2.896004        78.8043 
 325   0.0000       2.910781        79.2064 
 326   0.0000       2.918423        79.4143 
 327   0.0000       2.943768        80.1040 
 328   0.0000       2.964939        80.6801 
 329   0.0000       2.980323        81.0987 
 330   0.0000       2.987351        81.2900 
 331   0.0000       2.996336        81.5344 
 332   0.0000       3.018516        82.1380 
 333   0.0000       3.037745        82.6612 
 334   0.0000       3.040752        82.7431 
 335   0.0000       3.050279        83.0023 
 336   0.0000       3.063802        83.3703 
 337   0.0000       3.076642        83.7197 
 338   0.0000       3.086009        83.9746 
 339   0.0000       3.096407        84.2575 
 340   0.0000       3.113540        84.7237 
 341   0.0000       3.121863        84.9502 
 342   0.0000       3.127696        85.1089 
 343   0.0000       3.146817        85.6292 
 344   0.0000       3.161838        86.0380 
 345   0.0000       3.180434        86.5440 
 346   0.0000       3.196600        86.9839 
 347   0.0000       3.202947        87.1566 
 348   0.0000       3.204766        87.2061 
 349   0.0000       3.220672        87.6389 
 350   0.0000       3.236824        88.0785 
 351   0.0000       3.244455        88.2861 
 352   0.0000       3.258668        88.6729 
 353   0.0000       3.266129        88.8759 
 354   0.0000       3.285317        89.3980 
 355   0.0000       3.294832        89.6569 
 356   0.0000       3.296227        89.6949 
 357   0.0000       3.315684        90.2243 
 358   0.0000       3.327266        90.5395 
 359   0.0000       3.340744        90.9063 
 360   0.0000       3.348130        91.1073 
 361   0.0000       3.355846        91.3172 
 362   0.0000       3.369060        91.6768 
 363   0.0000       3.381145        92.0056 
 364   0.0000       3.389870        92.2431 
 365   0.0000       3.400197        92.5241 
 366   0.0000       3.422447        93.1295 
 367   0.0000       3.425927        93.2242 
 368   0.0000       3.440188        93.6123 
 369   0.0000       3.455273        94.0228 
 370   0.0000       3.470455        94.4359 
 371   0.0000       3.476294        94.5948 
 372   0.0000       3.491120        94.9982 
 373   0.0000       3.509801        95.5065 
 374   0.0000       3.518155        95.7339 
 375   0.0000       3.521086        95.8136 
 376   0.0000       3.562134        96.9306 
 377   0.0000       3.569473        97.1303 
 378   0.0000       3.580066        97.4185 
 379   0.0000       3.597113        97.8824 
 380   0.0000       3.625871        98.6650 
 381   0.0000       3.636008        98.9408 
 382   0.0000       3.651162        99.3532 
 383   0.0000       3.675169       100.0064 
 384   0.0000       3.686145       100.3051 
 385   0.0000       3.703075       100.7658 
 386   0.0000       3.724832       101.3578 
 387   0.0000       3.772855       102.6646 
 388   0.0000       3.776727       102.7700 
 389   0.0000       3.801268       103.4378 
 390   0.0000       3.809212       103.6539 
 391   0.0000       3.839932       104.4899 
 392   0.0000       3.855980       104.9265 
 393   0.0000       3.888234       105.8042 
 394   0.0000       3.895763       106.0091 
 395   0.0000       3.924063       106.7792 
 396   0.0000       3.930640       106.9581 
 397   0.0000       3.965871       107.9168 
 398   0.0000       3.970886       108.0533 
 399   0.0000       3.992777       108.6490 
 400   0.0000       4.002430       108.9117 
 401   0.0000       4.031379       109.6994 
 402   0.0000       4.048527       110.1660 
 403   0.0000       4.075649       110.9041 
 404   0.0000       4.095924       111.4558 
 405   0.0000       4.123917       112.2175 
 406   0.0000       4.150652       112.9450 
 407   0.0000       4.179964       113.7426 
 408   0.0000       4.189487       114.0017 
 409   0.0000       4.221027       114.8600 
 410   0.0000       4.283146       116.5503 
 411   0.0000       4.297754       116.9478 
 412   0.0000       4.326305       117.7247 
 413   0.0000       4.343447       118.1912 
 414   0.0000       4.355600       118.5219 
 415   0.0000       4.387483       119.3895 
 416   0.0000       4.420005       120.2745 
 417   0.0000       4.436665       120.7278 
 418   0.0000       4.481651       121.9519 
 419   0.0000       4.498748       122.4172 
 420   0.0000       4.556291       123.9830 
 421   0.0000       4.578726       124.5935 
 422   0.0000       4.613113       125.5292 
 423   0.0000       4.656819       126.7185 
 424   0.0000       4.669770       127.0709 
 425   0.0000       4.677995       127.2947 
 426   0.0000       4.693146       127.7070 
 427   0.0000       4.703598       127.9914 
 428   0.0000       4.761501       129.5670 
 429   0.0000       4.773916       129.9049 
 430   0.0000       4.790025       130.3432 
 431   0.0000       4.809180       130.8644 
 432   0.0000       4.843235       131.7911 
 433   0.0000       4.857524       132.1800 
 434   0.0000       4.863986       132.3558 
 435   0.0000       4.872504       132.5876 
 436   0.0000       4.895267       133.2070 
 437   0.0000       4.968670       135.2044 
 438   0.0000       5.018401       136.5576 
 439   0.0000       5.045397       137.2922 
 440   0.0000       5.090261       138.5130 
 441   0.0000       5.098295       138.7317 
 442   0.0000       5.117939       139.2662 
 443   0.0000       5.140046       139.8678 
 444   0.0000       5.169504       140.6693 
 445   0.0000       5.185313       141.0995 
 446   0.0000       5.188460       141.1852 
 447   0.0000       5.197526       141.4319 
 448   0.0000       5.204324       141.6169 
 449   0.0000       5.216986       141.9614 
 450   0.0000       5.220581       142.0592 
 451   0.0000       5.222018       142.0983 
 452   0.0000       5.227210       142.2396 
 453   0.0000       5.242855       142.6653 
 454   0.0000       5.306465       144.3962 
 455   0.0000       5.311347       144.5291 
 456   0.0000       5.336678       145.2184 
 457   0.0000       5.339452       145.2939 
 458   0.0000       5.365396       145.9999 
 459   0.0000       5.378403       146.3538 
 460   0.0000       5.386513       146.5745 
 461   0.0000       5.394895       146.8026 
 462   0.0000       5.447179       148.2253 
 463   0.0000       5.509791       149.9290 
 464   0.0000       5.527894       150.4216 
 465   0.0000       5.565007       151.4316 
 466   0.0000       5.621690       152.9739 
 467   0.0000       5.707065       155.2971 
 468   0.0000       5.733198       156.0082 
 469   0.0000       5.772287       157.0719 
 470   0.0000       5.807573       158.0321 
 471   0.0000       5.899792       160.5415 
 472   0.0000       5.964087       162.2911 
 473   0.0000       6.014963       163.6755 
 474   0.0000       6.370014       173.3369 
 475   0.0000       6.386335       173.7810 
 476   0.0000       6.394337       173.9987 
 477   0.0000       6.481476       176.3699 
 478   0.0000       6.487333       176.5293 
 479   0.0000       6.563105       178.5912 
 480   0.0000       6.727820       183.0733 
 481   0.0000       6.760485       183.9621 
 482   0.0000       6.793769       184.8678 
 483   0.0000       6.801342       185.0739 
 484   0.0000       6.929244       188.5543 
 485   0.0000       6.939631       188.8370 
 486   0.0000       6.982707       190.0091 
 487   0.0000       7.042100       191.6253 
 488   0.0000       7.051415       191.8788 
 489   0.0000       9.445870       257.0352 
 490   0.0000       9.625266       261.9168 
 491   0.0000       9.721842       264.5448 
 492   0.0000      22.317647       607.2941 
 493   0.0000      22.438683       610.5876 
 494   0.0000      22.442000       610.6779 
 495   0.0000      22.505062       612.3939 
 496   0.0000      22.530243       613.0791 
 497   0.0000      22.588501       614.6644 
 498   0.0000      22.853745       621.8820 
 499   0.0000      23.159328       630.1974 
 500   0.0000      31.918868       868.5566 
 501   0.0000      32.148879       874.8155 
 502   0.0000      43.683653      1188.6926 
 503   0.0000      43.789642      1191.5767 
 504   0.0000      43.868350      1193.7185 

                    ********************************
                    * MULLIKEN POPULATION ANALYSIS *
                    ********************************

-----------------------
MULLIKEN ATOMIC CHARGES
-----------------------
   0 C :   -0.218118
   1 C :   -0.118807
   2 C :   -0.285138
   3 H :    0.106030
   4 H :    0.133802
   5 S :    0.915210
   6 C :    0.265874
   7 N :   -0.331588
   8 N :   -0.273688
   9 H :    0.257931
  10 H :    0.275710
  11 H :    0.249179
  12 H :    0.296681
  13 O :   -0.657718
  14 O :   -0.499370
  15 C :   -0.244798
  16 C :   -0.172264
  17 H :    0.102378
  18 H :    0.083048
  19 C :   -0.163654
  20 H :    0.118559
  21 H :    0.111763
  22 O :   -0.580695
  23 H :    0.115923
  24 H :    0.095211
  25 H :    0.068765
  26 H :    0.082595
  27 H :    0.123147
  28 H :    0.144032
Sum of atomic charges:   -0.0000000

--------------------------------
MULLIKEN REDUCED ORBITAL CHARGES
--------------------------------
  0 C s       :     3.246188  s :     3.246188
      pz      :     0.885903  p :     2.890496
      px      :     1.039562
      py      :     0.965031
      dz2     :     0.011137  d :     0.076035
      dxz     :     0.011723
      dyz     :     0.024007
      dx2y2   :     0.007441
      dxy     :     0.021727
      f0      :     0.000932  f :     0.005399
      f+1     :     0.001069
      f-1     :     0.000724
      f+2     :     0.000783
      f-2     :     0.000243
      f+3     :     0.000722
      f-3     :     0.000926
  1 C s       :     3.179916  s :     3.179916
      pz      :     0.893376  p :     2.839672
      px      :     0.984830
      py      :     0.961466
      dz2     :     0.030908  d :     0.093349
      dxz     :     0.019014
      dyz     :     0.015591
      dx2y2   :     0.017902
      dxy     :     0.009934
      f0      :     0.001156  f :     0.005870
      f+1     :     0.001090
      f-1     :     0.000655
      f+2     :     0.001224
      f-2     :     0.001018
      f+3     :     0.000104
      f-3     :     0.000623
  2 C s       :     3.245520  s :     3.245520
      pz      :     0.999699  p :     2.955736
      px      :     0.987646
      py      :     0.968392
      dz2     :     0.019188  d :     0.078895
      dxz     :     0.008917
      dyz     :     0.018116
      dx2y2   :     0.014343
      dxy     :     0.018332
      f0      :     0.000595  f :     0.004986
      f+1     :     0.001039
      f-1     :     0.000472
      f+2     :     0.000750
      f-2     :     0.000980
      f+3     :     0.000504
      f-3     :     0.000646
  3 H s       :     0.871483  s :     0.871483
      pz      :     0.004928  p :     0.022486
      px      :     0.010695
      py      :     0.006864
  4 H s       :     0.843514  s :     0.843514
      pz      :     0.010550  p :     0.022684
      px      :     0.005487
      py      :     0.006647
  5 S s       :     5.323786  s :     5.323786
      pz      :     2.772971  p :     8.517981
      px      :     2.827941
      py      :     2.917069
      dz2     :     0.244106  d :     1.123593
      dxz     :     0.244432
      dyz     :     0.227024
      dx2y2   :     0.214804
      dxy     :     0.193227
      f0      :     0.011948  f :     0.119429
      f+1     :     0.033389
      f-1     :     0.018771
      f+2     :     0.013110
      f-2     :     0.014948
      f+3     :     0.013311
      f-3     :     0.013952
  6 C s       :     3.146638  s :     3.146638
      pz      :     0.866690  p :     2.367246
      px      :     0.775904
      py      :     0.724651
      dz2     :     0.040728  d :     0.201855
      dxz     :     0.041907
      dyz     :     0.027320
      dx2y2   :     0.057765
      dxy     :     0.034135
      f0      :     0.002334  f :     0.018387
      f+1     :     0.003178
      f-1     :     0.002018
      f+2     :     0.003448
      f-2     :     0.002401
      f+3     :     0.002842
      f-3     :     0.002167
  7 N s       :     3.451855  s :     3.451855
      pz      :     1.197141  p :     3.843971
      px      :     1.219162
      py      :     1.427668
      dz2     :     0.006233  d :     0.032454
      dxz     :     0.008545
      dyz     :     0.003896
      dx2y2   :     0.005926
      dxy     :     0.007856
      f0      :     0.000652  f :     0.003307
      f+1     :     0.000295
      f-1     :     0.000220
      f+2     :     0.000215
      f-2     :     0.000576
      f+3     :     0.000812
      f-3     :     0.000537
  8 N s       :     3.443718  s :     3.443718
      pz      :     1.178879  p :     3.792459
      px      :     1.182319
      py      :     1.431261
      dz2     :     0.011951  d :     0.034145
      dxz     :     0.004072
      dyz     :     0.005020
      dx2y2   :     0.008385
      dxy     :     0.004716
      f0      :     0.000699  f :     0.003366
      f+1     :     0.000437
      f-1     :     0.000344
      f+2     :     0.000498
      f-2     :     0.000275
      f+3     :     0.000668
      f-3     :     0.000444
  9 H s       :     0.705110  s :     0.705110
      pz      :     0.005864  p :     0.036959
      px      :     0.020673
      py      :     0.010422
 10 H s       :     0.682862  s :     0.682862
      pz      :     0.024773  p :     0.041428
      px      :     0.006612
      py      :     0.010043
 11 H s       :     0.713972  s :     0.713972
      pz      :     0.010848  p :     0.036849
      px      :     0.011362
      py      :     0.014639
 12 H s       :     0.661318  s :     0.661318
      pz      :     0.025504  p :     0.042001
      px      :     0.007529
      py      :     0.008968
 13 O s       :     3.835428  s :     3.835428
      pz      :     1.655639  p :     4.794179
      px      :     1.422630
      py      :     1.715911
      dz2     :     0.003931  d :     0.026296
      dxz     :     0.007609
      dyz     :     0.001368
      dx2y2   :     0.006835
      dxy     :     0.006553
      f0      :     0.000170  f :     0.001815
      f+1     :     0.000402
      f-1     :     0.000033
      f+2     :     0.000361
      f-2     :     0.000235
      f+3     :     0.000308
      f-3     :     0.000307
 14 O s       :     3.816630  s :     3.816630
      pz      :     1.321007  p :     4.646571
      px      :     1.671153
      py      :     1.654410
      dz2     :     0.012830  d :     0.034129
      dxz     :     0.010108
      dyz     :     0.010341
      dx2y2   :     0.000453
      dxy     :     0.000398
      f0      :     0.000721  f :     0.002041
      f+1     :     0.000606
      f-1     :     0.000611
      f+2     :     0.000051
      f-2     :     0.000048
      f+3     :     0.000002
      f-3     :     0.000001
 15 C s       :     3.271050  s :     3.271050
      pz      :     0.987325  p :     2.879791
      px      :     1.040508
      py      :     0.851959
      dz2     :     0.018211  d :     0.088319
      dxz     :     0.016641
      dyz     :     0.017701
      dx2y2   :     0.018612
      dxy     :     0.017154
      f0      :     0.000841  f :     0.005638
      f+1     :     0.000731
      f-1     :     0.000794
      f+2     :     0.001333
      f-2     :     0.000399
      f+3     :     0.000796
      f-3     :     0.000743
 16 C s       :     3.213617  s :     3.213617
      pz      :     0.968156  p :     2.863805
      px      :     0.901941
      py      :     0.993707
      dz2     :     0.017930  d :     0.089096
      dxz     :     0.029780
      dyz     :     0.010058
      dx2y2   :     0.022068
      dxy     :     0.009260
      f0      :     0.000780  f :     0.005747
      f+1     :     0.001095
      f-1     :     0.000601
      f+2     :     0.001385
      f-2     :     0.000658
      f+3     :     0.000510
      f-3     :     0.000718
 17 H s       :     0.875607  s :     0.875607
      pz      :     0.005441  p :     0.022015
      px      :     0.011003
      py      :     0.005571
 18 H s       :     0.895582  s :     0.895582
      pz      :     0.004543  p :     0.021370
      px      :     0.004900
      py      :     0.011927
 19 C s       :     3.215923  s :     3.215923
      pz      :     0.943165  p :     2.855111
      px      :     0.950343
      py      :     0.961603
      dz2     :     0.017017  d :     0.086913
      dxz     :     0.029336
      dyz     :     0.010279
      dx2y2   :     0.020503
      dxy     :     0.009777
      f0      :     0.000627  f :     0.005707
      f+1     :     0.001142
      f-1     :     0.000551
      f+2     :     0.001500
      f-2     :     0.000662
      f+3     :     0.000517
      f-3     :     0.000709
 20 H s       :     0.859807  s :     0.859807
      pz      :     0.005811  p :     0.021633
      px      :     0.010413
      py      :     0.005409
 21 H s       :     0.866289  s :     0.866289
      pz      :     0.009568  p :     0.021948
      px      :     0.007920
      py      :     0.004460
 22 O s       :     3.836655  s :     3.836655
      pz      :     1.658345  p :     4.711335
      px      :     1.532709
      py      :     1.520280
      dz2     :     0.004007  d :     0.030858
      dxz     :     0.005202
      dyz     :     0.004637
      dx2y2   :     0.008284
      dxy     :     0.008728
      f0      :     0.000173  f :     0.001848
      f+1     :     0.000199
      f-1     :     0.000201
      f+2     :     0.000140
      f-2     :     0.000358
      f+3     :     0.000383
      f-3     :     0.000394
 23 H s       :     0.861332  s :     0.861332
      pz      :     0.009348  p :     0.022745
      px      :     0.008790
      py      :     0.004607
 24 H s       :     0.883019  s :     0.883019
      pz      :     0.004678  p :     0.021770
      px      :     0.004450
      py      :     0.012642
 25 H s       :     0.907996  s :     0.907996
      pz      :     0.005668  p :     0.023239
      px      :     0.004471
      py      :     0.013100
 26 H s       :     0.895952  s :     0.895952
      pz      :     0.007894  p :     0.021453
      px      :     0.009060
      py      :     0.004499
 27 H s       :     0.854454  s :     0.854454
      pz      :     0.004331  p :     0.022398
      px      :     0.011887
      py      :     0.006180
 28 H s       :     0.833845  s :     0.833845
      pz      :     0.009020  p :     0.022123
      px      :     0.007009
      py      :     0.006094


                     *******************************
                     * LOEWDIN POPULATION ANALYSIS *
                     *******************************

----------------------
LOEWDIN ATOMIC CHARGES
----------------------
   0 C :   -0.205500
   1 C :   -0.280749
   2 C :   -0.381315
   3 H :    0.124957
   4 H :    0.136336
   5 S :    0.451518
   6 C :   -0.316848
   7 N :    0.090032
   8 N :    0.125602
   9 H :    0.191862
  10 H :    0.185463
  11 H :    0.188333
  12 H :    0.186170
  13 O :   -0.423375
  14 O :   -0.319476
  15 C :   -0.247932
  16 C :   -0.268680
  17 H :    0.142845
  18 H :    0.135096
  19 C :   -0.264919
  20 H :    0.134529
  21 H :    0.143261
  22 O :   -0.372985
  23 H :    0.138914
  24 H :    0.138982
  25 H :    0.129884
  26 H :    0.132658
  27 H :    0.149957
  28 H :    0.155378

-------------------------------
LOEWDIN REDUCED ORBITAL CHARGES
-------------------------------
  0 C s       :     2.772282  s :     2.772282
      pz      :     0.988879  p :     3.033737
      px      :     1.023492
      py      :     1.021366
      dz2     :     0.073617  d :     0.361942
      dxz     :     0.062223
      dyz     :     0.086440
      dx2y2   :     0.055363
      dxy     :     0.084299
      f0      :     0.006044  f :     0.037538
      f+1     :     0.005672
      f-1     :     0.006178
      f+2     :     0.005525
      f-2     :     0.004496
      f+3     :     0.004645
      f-3     :     0.004978
  1 C s       :     2.781825  s :     2.781825
      pz      :     1.011864  p :     3.057063
      px      :     1.025565
      py      :     1.019633
      dz2     :     0.108777  d :     0.403128
      dxz     :     0.094799
      dyz     :     0.071592
      dx2y2   :     0.082323
      dxy     :     0.045637
      f0      :     0.008901  f :     0.038733
      f+1     :     0.005844
      f-1     :     0.005238
      f+2     :     0.005510
      f-2     :     0.006691
      f+3     :     0.002068
      f-3     :     0.004482
  2 C s       :     2.849264  s :     2.849264
      pz      :     1.053064  p :     3.150875
      px      :     1.060127
      py      :     1.037685
      dz2     :     0.069203  d :     0.349486
      dxz     :     0.062779
      dyz     :     0.078138
      dx2y2   :     0.062993
      dxy     :     0.076372
      f0      :     0.004786  f :     0.031690
      f+1     :     0.004908
      f-1     :     0.004362
      f+2     :     0.004142
      f-2     :     0.005539
      f+3     :     0.003449
      f-3     :     0.004503
  3 H s       :     0.811973  s :     0.811973
      pz      :     0.015020  p :     0.063070
      px      :     0.028660
      py      :     0.019389
  4 H s       :     0.800648  s :     0.800648
      pz      :     0.027326  p :     0.063016
      px      :     0.016942
      py      :     0.018748
  5 S s       :     4.731947  s :     4.731947
      pz      :     2.861971  p :     8.601686
      px      :     2.851703
      py      :     2.888012
      dz2     :     0.415101  d :     1.847483
      dxz     :     0.400170
      dyz     :     0.347116
      dx2y2   :     0.352957
      dxy     :     0.332139
      f0      :     0.043731  f :     0.367367
      f+1     :     0.093339
      f-1     :     0.055864
      f+2     :     0.040639
      f-2     :     0.046825
      f+3     :     0.042166
      f-3     :     0.044804
  6 C s       :     2.731326  s :     2.731326
      pz      :     0.988471  p :     2.711616
      px      :     0.930342
      py      :     0.792803
      dz2     :     0.152561  d :     0.765668
      dxz     :     0.181573
      dyz     :     0.111211
      dx2y2   :     0.181390
      dxy     :     0.138933
      f0      :     0.014096  f :     0.108238
      f+1     :     0.019670
      f-1     :     0.012753
      f+2     :     0.021314
      f-2     :     0.013588
      f+3     :     0.012701
      f-3     :     0.014117
  7 N s       :     2.980930  s :     2.980930
      pz      :     1.168962  p :     3.777249
      px      :     1.268489
      py      :     1.339798
      dz2     :     0.030982  d :     0.140146
      dxz     :     0.042971
      dyz     :     0.018045
      dx2y2   :     0.023886
      dxy     :     0.024263
      f0      :     0.001920  f :     0.011642
      f+1     :     0.001724
      f-1     :     0.000556
      f+2     :     0.001713
      f-2     :     0.001593
      f+3     :     0.001989
      f-3     :     0.002147
  8 N s       :     2.978736  s :     2.978736
      pz      :     1.190910  p :     3.738372
      px      :     1.186428
      py      :     1.361033
      dz2     :     0.053403  d :     0.145399
      dxz     :     0.025956
      dyz     :     0.022047
      dx2y2   :     0.025090
      dxy     :     0.018903
      f0      :     0.001730  f :     0.011892
      f+1     :     0.001519
      f-1     :     0.001660
      f+2     :     0.001869
      f-2     :     0.002294
      f+3     :     0.001538
      f-3     :     0.001280
  9 H s       :     0.704360  s :     0.704360
      pz      :     0.018644  p :     0.103778
      px      :     0.057317
      py      :     0.027816
 10 H s       :     0.695397  s :     0.695397
      pz      :     0.070520  p :     0.119141
      px      :     0.020418
      py      :     0.028203
 11 H s       :     0.707194  s :     0.707194
      pz      :     0.034312  p :     0.104473
      px      :     0.028691
      py      :     0.041470
 12 H s       :     0.691079  s :     0.691079
      pz      :     0.075112  p :     0.122751
      px      :     0.021579
      py      :     0.026060
 13 O s       :     3.553624  s :     3.553624
      pz      :     1.626520  p :     4.807740
      px      :     1.533927
      py      :     1.647294
      dz2     :     0.007295  d :     0.057949
      dxz     :     0.019093
      dyz     :     0.002920
      dx2y2   :     0.017645
      dxy     :     0.010997
      f0      :     0.000499  f :     0.004062
      f+1     :     0.000685
      f-1     :     0.000062
      f+2     :     0.000985
      f-2     :     0.000430
      f+3     :     0.000749
      f-3     :     0.000651
 14 O s       :     3.552346  s :     3.552346
      pz      :     1.491229  p :     4.696982
      px      :     1.611671
      py      :     1.594083
      dz2     :     0.037491  d :     0.065570
      dxz     :     0.012877
      dyz     :     0.013831
      dx2y2   :     0.000674
      dxy     :     0.000699
      f0      :     0.002339  f :     0.004578
      f+1     :     0.000990
      f-1     :     0.001030
      f+2     :     0.000100
      f-2     :     0.000113
      f+3     :     0.000003
      f-3     :     0.000002
 15 C s       :     2.781237  s :     2.781237
      pz      :     1.027704  p :     3.038619
      px      :     1.030648
      py      :     0.980267
      dz2     :     0.072839  d :     0.390591
      dxz     :     0.082584
      dyz     :     0.081842
      dx2y2   :     0.086074
      dxy     :     0.067253
      f0      :     0.006213  f :     0.037485
      f+1     :     0.003868
      f-1     :     0.005782
      f+2     :     0.006465
      f-2     :     0.004244
      f+3     :     0.006004
      f-3     :     0.004909
 16 C s       :     2.774140  s :     2.774140
      pz      :     1.015178  p :     3.055219
      px      :     1.008029
      py      :     1.032011
      dz2     :     0.075822  d :     0.400255
      dxz     :     0.122850
      dyz     :     0.052696
      dx2y2   :     0.105950
      dxy     :     0.042938
      f0      :     0.006186  f :     0.039066
      f+1     :     0.007149
      f-1     :     0.004741
      f+2     :     0.005656
      f-2     :     0.005774
      f+3     :     0.003969
      f-3     :     0.005590
 17 H s       :     0.798081  s :     0.798081
      pz      :     0.015151  p :     0.059074
      px      :     0.027559
      py      :     0.016364
 18 H s       :     0.806815  s :     0.806815
      pz      :     0.013432  p :     0.058089
      px      :     0.013784
      py      :     0.030873
 19 C s       :     2.773371  s :     2.773371
      pz      :     1.008324  p :     3.055018
      px      :     1.034067
      py      :     1.012627
      dz2     :     0.071853  d :     0.397816
      dxz     :     0.121694
      dyz     :     0.057411
      dx2y2   :     0.101310
      dxy     :     0.045547
      f0      :     0.005821  f :     0.038714
      f+1     :     0.007089
      f-1     :     0.004617
      f+2     :     0.005920
      f-2     :     0.005264
      f+3     :     0.004277
      f-3     :     0.005726
 20 H s       :     0.806805  s :     0.806805
      pz      :     0.015544  p :     0.058665
      px      :     0.028289
      py      :     0.014833
 21 H s       :     0.797649  s :     0.797649
      pz      :     0.024239  p :     0.059090
      px      :     0.022274
      py      :     0.012577
 22 O s       :     3.558692  s :     3.558692
      pz      :     1.620405  p :     4.747907
      px      :     1.574652
      py      :     1.552850
      dz2     :     0.008373  d :     0.062137
      dxz     :     0.009690
      dyz     :     0.009101
      dx2y2   :     0.011366
      dxy     :     0.023606
      f0      :     0.000467  f :     0.004248
      f+1     :     0.000395
      f-1     :     0.000404
      f+2     :     0.000210
      f-2     :     0.000952
      f+3     :     0.000907
      f-3     :     0.000914
 23 H s       :     0.799291  s :     0.799291
      pz      :     0.024597  p :     0.061795
      px      :     0.023684
      py      :     0.013513
 24 H s       :     0.802535  s :     0.802535
      pz      :     0.014060  p :     0.058483
      px      :     0.013323
      py      :     0.031100
 25 H s       :     0.807619  s :     0.807619
      pz      :     0.015841  p :     0.062498
      px      :     0.013010
      py      :     0.033647
 26 H s       :     0.809326  s :     0.809326
      pz      :     0.020939  p :     0.058016
      px      :     0.023006
      py      :     0.014071
 27 H s       :     0.790906  s :     0.790906
      pz      :     0.011934  p :     0.059137
      px      :     0.030571
      py      :     0.016632
 28 H s       :     0.784903  s :     0.784903
      pz      :     0.022934  p :     0.059719
      px      :     0.020469
      py      :     0.016315


                      *****************************
                      * MAYER POPULATION ANALYSIS *
                      *****************************

  NA   - Mulliken gross atomic population
  ZA   - Total nuclear charge
  QA   - Mulliken gross atomic charge
  VA   - Mayer's total valence
  BVA  - Mayer's bonded valence
  FA   - Mayer's free valence

  ATOM       NA         ZA         QA         VA         BVA        FA
  0 C      6.2181     6.0000    -0.2181     3.8495     3.8495    -0.0000
  1 C      6.1188     6.0000    -0.1188     3.8590     3.8590    -0.0000
  2 C      6.2851     6.0000    -0.2851     3.8671     3.8671    -0.0000
  3 H      0.8940     1.0000     0.1060     0.9794     0.9794    -0.0000
  4 H      0.8662     1.0000     0.1338     0.9814     0.9814    -0.0000
  5 S     15.0848    16.0000     0.9152     6.0488     6.0488    -0.0000
  6 C      5.7341     6.0000     0.2659     4.0145     4.0145    -0.0000
  7 N      7.3316     7.0000    -0.3316     3.2551     3.2551    -0.0000
  8 N      7.2737     7.0000    -0.2737     3.3666     3.3666    -0.0000
  9 H      0.7421     1.0000     0.2579     0.9518     0.9518     0.0000
 10 H      0.7243     1.0000     0.2757     0.9906     0.9906    -0.0000
 11 H      0.7508     1.0000     0.2492     0.9462     0.9462     0.0000
 12 H      0.7033     1.0000     0.2967     0.9564     0.9564     0.0000
 13 O      8.6577     8.0000    -0.6577     1.7099     1.7099     0.0000
 14 O      8.4994     8.0000    -0.4994     2.0094     2.0094    -0.0000
 15 C      6.2448     6.0000    -0.2448     3.8396     3.8396     0.0000
 16 C      6.1723     6.0000    -0.1723     3.8390     3.8390     0.0000
 17 H      0.8976     1.0000     0.1024     0.9816     0.9816     0.0000
 18 H      0.9170     1.0000     0.0830     0.9636     0.9636    -0.0000
 19 C      6.1637     6.0000    -0.1637     3.7531     3.7531    -0.0000
 20 H      0.8814     1.0000     0.1186     0.9595     0.9595     0.0000
 21 H      0.8882     1.0000     0.1118     0.9779     0.9779     0.0000
 22 O      8.5807     8.0000    -0.5807     1.8432     1.8432     0.0000
 23 H      0.8841     1.0000     0.1159     1.0107     1.0107    -0.0000
 24 H      0.9048     1.0000     0.0952     0.9657     0.9657    -0.0000
 25 H      0.9312     1.0000     0.0688     1.0172     1.0172    -0.0000
 26 H      0.9174     1.0000     0.0826     0.9644     0.9644    -0.0000
 27 H      0.8769     1.0000     0.1231     0.9731     0.9731     0.0000
 28 H      0.8560     1.0000     0.1440     0.9659     0.9659    -0.0000

  Mayer bond orders larger than 0.100000
B(  0-C ,  6-C ) :   0.9899 B(  0-C , 15-C ) :   0.9211 B(  0-C , 27-H ) :   0.9676 
B(  0-C , 28-H ) :   0.9617 B(  1-C ,  2-C ) :   0.9568 B(  1-C , 16-C ) :   0.9861 
B(  1-C , 17-H ) :   0.9616 B(  1-C , 18-H ) :   0.9568 B(  2-C ,  3-H ) :   0.9607 
B(  2-C ,  4-H ) :   0.9561 B(  2-C ,  5-S ) :   0.8968 B(  5-S , 13-O ) :   1.5036 
B(  5-S , 14-O ) :   1.9211 B(  5-S , 22-O ) :   1.6765 B(  6-C ,  7-N ) :   1.3917 
B(  6-C ,  8-N ) :   1.5056 B(  7-N , 11-H ) :   0.9144 B(  7-N , 12-H ) :   0.8527 
B(  8-N ,  9-H ) :   0.9006 B(  8-N , 10-H ) :   0.8470 B( 15-C , 19-C ) :   0.9372 
B( 15-C , 20-H ) :   0.9844 B( 15-C , 21-H ) :   0.9617 B( 16-C , 19-C ) :   0.9435 
B( 16-C , 25-H ) :   0.9503 B( 16-C , 26-H ) :   0.9607 B( 19-C , 23-H ) :   0.9712 
B( 19-C , 24-H ) :   0.9613 

-------
TIMINGS
-------

Total SCF time: 0 days 0 hours 0 min 50 sec 

Total time                  ....      50.289 sec
Sum of individual times     ....      49.232 sec  ( 97.9%)

Fock matrix formation       ....      45.430 sec  ( 90.3%)
  Split-RI-J                ....       4.834 sec  ( 10.6% of F)
  Chain of spheres X        ....      35.074 sec  ( 77.2% of F)
  XC integration            ....       5.208 sec  ( 11.5% of F)
    Basis function eval.    ....       1.156 sec  ( 22.2% of XC)
    Density eval.           ....       1.323 sec  ( 25.4% of XC)
    XC-Functional eval.     ....       0.108 sec  (  2.1% of XC)
    XC-Potential eval.      ....       1.221 sec  ( 23.4% of XC)
Diagonalization             ....       0.657 sec  (  1.3%)
Density matrix formation    ....       0.050 sec  (  0.1%)
Population analysis         ....       0.075 sec  (  0.1%)
Initial guess               ....       0.331 sec  (  0.7%)
Orbital Transformation      ....       0.000 sec  (  0.0%)
Orbital Orthonormalization  ....       0.000 sec  (  0.0%)
DIIS solution               ....       0.351 sec  (  0.7%)
SOSCF solution              ....       0.514 sec  (  1.0%)
Grid generation             ....       1.824 sec  (  3.6%)

Maximum memory used throughout the entire SCF-calculation: 108.0 MB


-------------------------------------------------------------------------------
                          DFT DISPERSION CORRECTION                            
                                                                               
                              DFTD3 V3.1  Rev 1                                
                          USING Becke-Johnson damping                          
-------------------------------------------------------------------------------
The B3LYP functional is recognized
Active option DFTDOPT                   ...         4   

molecular C6(AA) [au] = 7791.413659 


            DFT-D V3
 parameters
 s6 scaling factor         :     1.0000 
 a1 scaling factor         :     0.3981 
 s8 scaling factor         :     1.9889 
 a2 scaling factor         :     4.4211 
 ad hoc parameters k1-k3   :    16.0000     1.3333    -4.0000 

 Edisp/kcal,au: -38.062303905556  -0.060656135754 
 E6   /kcal   : -18.400984285 
 E8   /kcal   : -19.661319621 
 % E8         :  51.655621450 

-------------------------   ----------------
Dispersion correction           -0.060656136
-------------------------   ----------------


-------------------------   --------------------
FINAL SINGLE POINT ENERGY     -1009.679174678171
-------------------------   --------------------


                            ***************************************
                            *     ORCA property calculations      *
                            ***************************************

                                    ---------------------
                                    Active property flags
                                    ---------------------
   (+) Dipole Moment


------------------------------------------------------------------------------
                       ORCA ELECTRIC PROPERTIES CALCULATION
------------------------------------------------------------------------------

Dipole Moment Calculation                       ... on
Quadrupole Moment Calculation                   ... off
Polarizability Calculation                      ... off
GBWName                                         ... B3LYP_B_wt_wb97.gbw
Electron density file                           ... B3LYP_B_wt_wb97.scfp
The origin for moment calculation is the CENTER OF MASS  = ( 4.617847, -0.474729 -8.330931)

-------------
DIPOLE MOMENT
-------------
                                X             Y             Z
Electronic contribution:      2.77684      -6.31899     -13.37313
Nuclear contribution   :     -1.90023       6.18953      17.82209
                        -----------------------------------------
Total Dipole Moment    :      0.87660      -0.12947       4.44896
                        -----------------------------------------
Magnitude (a.u.)       :      4.53634
Magnitude (Debye)      :     11.53047



--------------------
Rotational spectrum 
--------------------
 
Rotational constants in cm-1:     0.036337     0.018755     0.015005 
Rotational constants in MHz :  1089.341704   562.266628   449.834770 

 Dipole components along the rotational axes: 
x,y,z [a.u.] :     4.499786     0.523386    -0.237513 
x,y,z [Debye]:    11.437548     1.330341    -0.603711 

 

Timings for individual modules:

Sum of individual times         ...       51.704 sec (=   0.862 min)
GTO integral calculation        ...        0.979 sec (=   0.016 min)   1.9 %
SCF iterations                  ...       50.725 sec (=   0.845 min)  98.1 %
                             ****ORCA TERMINATED NORMALLY****
TOTAL RUN TIME: 0 days 0 hours 0 minutes 52 seconds 397 msec
