
                                        *****************
                                        * O   R   C   A *
                                        *****************

                                            #,                                       
                                            ###                                      
                                            ####                                     
                                            #####                                    
                                            ######                                   
                                           ########,                                 
                                     ,,################,,,,,                         
                               ,,#################################,,                 
                          ,,##########################################,,             
                       ,#########################################, ''#####,          
                    ,#############################################,,   '####,        
                  ,##################################################,,,,####,       
                ,###########''''           ''''###############################       
              ,#####''   ,,,,##########,,,,          '''####'''          '####       
            ,##' ,,,,###########################,,,                        '##       
           ' ,,###''''                  '''############,,,                           
         ,,##''                                '''############,,,,        ,,,,,,###''
      ,#''                                            '''#######################'''  
     '                                                          ''''####''''         
             ,#######,   #######,   ,#######,      ##                                
            ,#'     '#,  ##    ##  ,#'     '#,    #''#        ######   ,####,        
            ##       ##  ##   ,#'  ##            #'  '#       #        #'  '#        
            ##       ##  #######   ##           ,######,      #####,   #    #        
            '#,     ,#'  ##    ##  '#,     ,#' ,#      #,         ##   #,  ,#        
             '#######'   ##     ##  '#######'  #'      '#     #####' # '####'        



                  #######################################################
                  #                        -***-                        #
                  #          Department of theory and spectroscopy      #
                  #    Directorship and core code : Frank Neese         #
                  #        Max Planck Institute fuer Kohlenforschung    #
                  #                Kaiser Wilhelm Platz 1               #
                  #                 D-45470 Muelheim/Ruhr               #
                  #                      Germany                        #
                  #                                                     #
                  #                  All rights reserved                #
                  #                        -***-                        #
                  #######################################################


                         Program Version 5.0.0 -  RELEASE  -
                                (SVN: $Rev: 19529$)
                ($Date: 2021-06-28 11:36:33 +0200 (Mo, 28 Jun 2021) $)


 With contributions from (in alphabetic order):
   Daniel Aravena         : Magnetic Suceptibility
   Michael Atanasov       : Ab Initio Ligand Field Theory (pilot matlab implementation)
   Alexander A. Auer      : GIAO ZORA, VPT2 properties, NMR spectrum
   Ute Becker             : Parallelization
   Giovanni Bistoni       : ED, misc. LED, open-shell LED, HFLD
   Martin Brehm           : Molecular dynamics
   Dmytro Bykov           : SCF Hessian
   Vijay G. Chilkuri      : MRCI spin determinant printing, contributions to CSF-ICE
   Dipayan Datta          : RHF DLPNO-CCSD density
   Achintya Kumar Dutta   : EOM-CC, STEOM-CC
   Dmitry Ganyushin       : Spin-Orbit,Spin-Spin,Magnetic field MRCI
   Miquel Garcia          : C-PCM Hessian, Gaussian charge scheme
   Yang Guo               : DLPNO-NEVPT2, F12-NEVPT2, CIM, IAO-localization
   Andreas Hansen         : Spin unrestricted coupled pair/coupled cluster methods
   Benjamin Helmich-Paris : MC-RPA, TRAH-SCF, COSX integrals
   Lee Huntington         : MR-EOM, pCC
   Robert Izsak           : Overlap fitted RIJCOSX, COSX-SCS-MP3, EOM
   Marcus Kettner         : VPT2
   Christian Kollmar      : KDIIS, OOCD, Brueckner-CCSD(T), CCSD density, CASPT2, CASPT2-K
   Simone Kossmann        : Meta GGA functionals, TD-DFT gradient, OOMP2, MP2 Hessian
   Martin Krupicka        : Initial AUTO-CI
   Lucas Lang             : DCDCAS
   Marvin Lechner         : AUTO-CI (C++ implementation), FIC-MRCC
   Dagmar Lenk            : GEPOL surface, SMD
   Dimitrios Liakos       : Extrapolation schemes; Compound Job, initial MDCI parallelization
   Dimitrios Manganas     : Further ROCIS development; embedding schemes
   Dimitrios Pantazis     : SARC Basis sets
   Anastasios Papadopoulos: AUTO-CI, single reference methods and gradients
   Taras Petrenko         : DFT Hessian,TD-DFT gradient, ASA, ECA, R-Raman, ABS, FL, XAS/XES, NRVS
   Peter Pinski           : DLPNO-MP2, DLPNO-MP2 Gradient
   Christoph Reimann      : Effective Core Potentials
   Marius Retegan         : Local ZFS, SOC
   Christoph Riplinger    : Optimizer, TS searches, QM/MM, DLPNO-CCSD(T), (RO)-DLPNO pert. Triples
   Tobias Risthaus        : Range-separated hybrids, TD-DFT gradient, RPA, STAB
   Michael Roemelt        : Original ROCIS implementation
   Masaaki Saitow         : Open-shell DLPNO-CCSD energy and density
   Barbara Sandhoefer     : DKH picture change effects
   Avijit Sen             : IP-ROCIS
   Kantharuban Sivalingam : CASSCF convergence, NEVPT2, FIC-MRCI
   Bernardo de Souza      : ESD, SOC TD-DFT
   Georgi Stoychev        : AutoAux, RI-MP2 NMR
   Willem Van den Heuvel  : Paramagnetic NMR
   Boris Wezisla          : Elementary symmetry handling
   Frank Wennmohs         : Technical directorship


 We gratefully acknowledge several colleagues who have allowed us to
 interface, adapt or use parts of their codes:
   Stefan Grimme, W. Hujo, H. Kruse, P. Pracht,  : VdW corrections, initial TS optimization,
                  C. Bannwarth, S. Ehlert          DFT functionals, gCP, sTDA/sTD-DF
   Ed Valeev, F. Pavosevic, A. Kumar             : LibInt (2-el integral package), F12 methods
   Garnet Chan, S. Sharma, J. Yang, R. Olivares  : DMRG
   Ulf Ekstrom                                   : XCFun DFT Library
   Mihaly Kallay                                 : mrcc  (arbitrary order and MRCC methods)
   Jiri Pittner, Ondrej Demel                    : Mk-CCSD
   Frank Weinhold                                : gennbo (NPA and NBO analysis)
   Christopher J. Cramer and Donald G. Truhlar   : smd solvation model
   Lars Goerigk                                  : TD-DFT with DH, B97 family of functionals
   V. Asgeirsson, H. Jonsson                     : NEB implementation
   FAccTs GmbH                                   : IRC, NEB, NEB-TS, DLPNO-Multilevel, CI-OPT
                                                   MM, QMMM, 2- and 3-layer-ONIOM, Crystal-QMMM,
                                                   LR-CPCM, SF, NACMEs, symmetry and pop. for TD-DFT,
                                                   nearIR, NL-DFT gradient (VV10), updates on ESD,
                                                   ML-optimized integration grids
   S Lehtola, MJT Oliveira, MAL Marques          : LibXC Library
   Liviu Ungur et al                             : ANISO software


 Your calculation uses the libint2 library for the computation of 2-el integrals
 For citations please refer to: http://libint.valeyev.net

 Your ORCA version has been built with support for libXC version: 5.1.0
 For citations please refer to: https://tddft.org/programs/libxc/

 This ORCA versions uses:
   CBLAS   interface :  Fast vector & matrix operations
   LAPACKE interface :  Fast linear algebra routines
   SCALAPACK package :  Parallel linear algebra routines
   Shared memory     :  Shared parallel matrices
   BLAS/LAPACK       :  OpenBLAS 0.3.15  USE64BITINT DYNAMIC_ARCH NO_AFFINITY Haswell SINGLE_THREADED
        Core in use  :  Haswell
   Copyright (c) 2011-2014, The OpenBLAS Project




***************************************
The coordinates will be read from file: D3.xyz
***************************************


Your calculation utilizes the atom-pairwise dispersion correction
with the Becke-Johnson damping scheme (D3BJ)
Cite in your paper:
S.Grimme, S.Ehrlich, L.Goerigk, J Comput Chem, (2011), 32, 1456–1465 
S.Grimme, J.Antony, S.Ehrlich and H.Krieg, J.Chem.Phys., 132, (2010), 154104 
   

================================================================================

----- Orbital basis set information -----
Your calculation utilizes the basis: def2-TZVP
   F. Weigend and R. Ahlrichs, Phys. Chem. Chem. Phys. 7, 3297 (2005).

----- AuxJ basis set information -----
Your calculation utilizes the auxiliary basis: def2/J
   F. Weigend, Phys. Chem. Chem. Phys. 8, 1057 (2006).

================================================================================
                                        WARNINGS
                       Please study these warnings very carefully!
================================================================================


INFO   : the flag for use of the SHARK integral package has been found!

================================================================================
                                       INPUT FILE
================================================================================
NAME = B3LYP_D3_wb97.com
|  1> !B3LYP D3BJ RIJCOSX def2-TZVP def2/J TightSCF xyzfile                                                                                         
|  2> 
|  3> *xyzfile 0 1 D3.xyz
|  4> 
|  5> %MaxCore 64000
|  6> 
|  7> %pal nprocs 18                                                                                                                                                  
|  8> end  
|  9> 
| 10> %scf
| 11>   MaxIter 150
| 12> end
| 13> 
| 14> 
| 15>                          ****END OF INPUT****
================================================================================

                       ****************************
                       * Single Point Calculation *
                       ****************************

---------------------------------
CARTESIAN COORDINATES (ANGSTROEM)
---------------------------------
  C      2.916324   -1.242589   -1.543125
  C      0.704661    1.443129   -4.503630
  C      1.728539    1.424320   -5.639443
  H      2.646718    1.953794   -5.381054
  H      1.299916    1.930613   -6.503614
  S      2.252625   -0.188115   -6.271840
  C      3.466585   -1.590971   -2.889082
  C      4.652275   -1.143164   -3.259692
  N      2.752264   -2.292043   -3.728029
  H      1.778364   -2.489604   -3.512738
  H      2.948612   -2.208544   -4.716813
  H      5.146723   -0.512508   -2.633852
  H      4.783030   -1.007203   -4.253498
  O      3.562607   -0.444464   -5.631552
  F      2.344944   -0.033742   -7.696501
  C      2.804084    0.290698   -1.359243
  C      1.052550    0.695659   -3.214915
  H     -0.232483    1.032925   -4.884449
  H      0.511700    2.495794   -4.267966
  C      2.388380    1.093669   -2.597108
  H      3.763425    0.674718   -0.999889
  H      2.094788    0.461222   -0.545756
  O      1.266058   -1.159177   -5.805365
  H      3.167316    1.013242   -3.359430
  H      2.357690    2.149375   -2.310997
  H      1.039284   -0.368429   -3.449329
  H      0.250787    0.865605   -2.488283
  H      1.940472   -1.716529   -1.441161
  H      3.558569   -1.663433   -0.766371

----------------------------
CARTESIAN COORDINATES (A.U.)
----------------------------
  NO LB      ZA    FRAG     MASS         X           Y           Z
   0 C     6.0000    0    12.011    5.511054   -2.348154   -2.916084
   1 C     6.0000    0    12.011    1.331617    2.727119   -8.510627
   2 C     6.0000    0    12.011    3.266466    2.691575  -10.657002
   3 H     1.0000    0     1.008    5.001573    3.692135  -10.168719
   4 H     1.0000    0     1.008    2.456486    3.648330  -12.290050
   5 S    16.0000    0    32.060    4.256845   -0.355485  -11.852059
   6 C     6.0000    0    12.011    6.550897   -3.006500   -5.459573
   7 C     6.0000    0    12.011    8.791525   -2.160266   -6.159925
   8 N     7.0000    0    14.007    5.201026   -4.331334   -7.044953
   9 H     1.0000    0     1.008    3.360621   -4.704669   -6.638113
  10 H     1.0000    0     1.008    5.572070   -4.173543   -8.913484
  11 H     1.0000    0     1.008    9.725897   -0.968501   -4.977259
  12 H     1.0000    0     1.008    9.038617   -1.903337   -8.037945
  13 O     8.0000    0    15.999    6.732352   -0.839915  -10.642091
  14 F     9.0000    0    18.998    4.431301   -0.063764  -14.544279
  15 C     6.0000    0    12.011    5.298951    0.549339   -2.568597
  16 C     6.0000    0    12.011    1.989032    1.314604   -6.075308
  17 H     1.0000    0     1.008   -0.439329    1.951946   -9.230272
  18 H     1.0000    0     1.008    0.966972    4.716368   -8.065286
  19 C     6.0000    0    12.011    4.513384    2.066735   -4.907822
  20 H     1.0000    0     1.008    7.111842    1.275032   -1.889516
  21 H     1.0000    0     1.008    3.958575    0.871583   -1.031329
  22 O     8.0000    0    15.999    2.392504   -2.190526  -10.970549
  23 H     1.0000    0     1.008    5.985361    1.914750   -6.348402
  24 H     1.0000    0     1.008    4.455389    4.061730   -4.367151
  25 H     1.0000    0     1.008    1.963961   -0.696229   -6.518287
  26 H     1.0000    0     1.008    0.473919    1.635756   -4.702174
  27 H     1.0000    0     1.008    3.666960   -3.243770   -2.723400
  28 H     1.0000    0     1.008    6.724720   -3.143433   -1.448231

--------------------------------
INTERNAL COORDINATES (ANGSTROEM)
--------------------------------
 C      0   0   0     0.000000000000     0.00000000     0.00000000
 C      1   0   0     4.568273793968     0.00000000     0.00000000
 C      2   1   0     1.529297825534    98.62404527     0.00000000
 H      3   2   1     1.090944370706   112.43319093   291.35935600
 H      3   2   1     1.089423309889   108.66365748   173.02891256
 S      3   2   1     1.809568454434   117.67249747    54.59879179
 C      1   2   3     1.495244269354    74.44217903   337.12806402
 C      7   1   2     1.320508752421   120.26891390   103.10495601
 N      7   1   2     1.305981940434   120.13503729   286.08645689
 H      9   7   1     1.016790325068   119.48364563     8.33019225
 H      9   7   1     1.011542432359   118.51921329   155.66854205
 H      8   7   1     1.016799188787   118.30856157   356.12171918
 H      8   7   1     1.011549184661   115.93680355   208.86906715
 O      6   3   2     1.480451351977   105.03550261   259.70514125
 F      6   3   2     1.435971529587   105.63739582   140.00826415
 C      1   2   3     1.548347683709    57.29458071   106.04454887
 C      2   1   3     1.529877614442    19.39834396   186.99389249
 H      2   1   3     1.091572130247   114.88526166   114.65620169
 H      2   1   3     1.095844940799   120.70540048   244.49829987
 C     17   2   1     1.524643581099   114.39523607    61.63043835
 H     16   1   2     1.094048234703   108.84673673   220.49718341
 H     16   1   2     1.092676175276   106.85886165   106.82959772
 O      6   3   2     1.460778685441   106.56716191    16.57397008
 H     20  17   2     1.092861154855   108.82111327   307.33588892
 H     20  17   2     1.094219453583   109.46571263    62.60087563
 H     17   2   1     1.089682404302   107.04520605   298.66165453
 H     17   2   1     1.095307766624   108.45540496   184.02122912
 H      1   2   3     1.089634927768    83.26793994   226.06030881
 H      1   2   3     1.092215339711   166.43145148    86.04509137

---------------------------
INTERNAL COORDINATES (A.U.)
---------------------------
 C      0   0   0     0.000000000000     0.00000000     0.00000000
 C      1   0   0     8.632786375368     0.00000000     0.00000000
 C      2   1   0     2.889954067461    98.62404527     0.00000000
 H      3   2   1     2.061586087978   112.43319093   291.35935600
 H      3   2   1     2.058711699600   108.66365748   173.02891256
 S      3   2   1     3.419588799463   117.67249747    54.59879179
 C      1   2   3     2.825602172394    74.44217903   337.12806402
 C      7   1   2     2.495399899522   120.26891390   103.10495601
 N      7   1   2     2.467948203268   120.13503729   286.08645689
 H      9   7   1     1.921455250000   119.48364563     8.33019225
 H      9   7   1     1.911538170000   118.51921329   155.66854205
 H      8   7   1     1.921472000000   118.30856157   356.12171918
 H      8   7   1     1.911550930000   115.93680355   208.86906715
 O      6   3   2     2.797647609830   105.03550261   259.70514125
 F      6   3   2     2.713592927028   105.63739582   140.00826415
 C      1   2   3     2.925953082301    57.29458071   106.04454887
 C      2   1   3     2.891049709713    19.39834396   186.99389249
 H      2   1   3     2.062772381588   114.88526166   114.65620169
 H      2   1   3     2.070846823354   120.70540048   244.49829987
 C     17   2   1     2.881158820119   114.39523607    61.63043835
 H     16   1   2     2.067451540889   108.84673673   220.49718341
 H     16   1   2     2.064858724332   106.85886165   106.82959772
 O      6   3   2     2.760471657752   106.56716191    16.57397008
 H     20  17   2     2.065208285076   108.82111327   307.33588892
 H     20  17   2     2.067775097680   109.46571263    62.60087563
 H     17   2   1     2.059201317083   107.04520605   298.66165453
 H     17   2   1     2.069831711276   108.45540496   184.02122912
 H      1   2   3     2.059111599436    83.26793994   226.06030881
 H      1   2   3     2.063987871322   166.43145148    86.04509137

---------------------
BASIS SET INFORMATION
---------------------
There are 6 groups of distinct atoms

 Group   1 Type C   : 11s6p2d1f contracted to 5s3p2d1f pattern {62111/411/11/1}
 Group   2 Type H   : 5s1p contracted to 3s1p pattern {311/1}
 Group   3 Type S   : 14s9p3d1f contracted to 5s5p2d1f pattern {73211/51111/21/1}
 Group   4 Type N   : 11s6p2d1f contracted to 5s3p2d1f pattern {62111/411/11/1}
 Group   5 Type O   : 11s6p2d1f contracted to 5s3p2d1f pattern {62111/411/11/1}
 Group   6 Type F   : 11s6p2d1f contracted to 5s3p2d1f pattern {62111/411/11/1}

Atom   0C    basis set group =>   1
Atom   1C    basis set group =>   1
Atom   2C    basis set group =>   1
Atom   3H    basis set group =>   2
Atom   4H    basis set group =>   2
Atom   5S    basis set group =>   3
Atom   6C    basis set group =>   1
Atom   7C    basis set group =>   1
Atom   8N    basis set group =>   4
Atom   9H    basis set group =>   2
Atom  10H    basis set group =>   2
Atom  11H    basis set group =>   2
Atom  12H    basis set group =>   2
Atom  13O    basis set group =>   5
Atom  14F    basis set group =>   6
Atom  15C    basis set group =>   1
Atom  16C    basis set group =>   1
Atom  17H    basis set group =>   2
Atom  18H    basis set group =>   2
Atom  19C    basis set group =>   1
Atom  20H    basis set group =>   2
Atom  21H    basis set group =>   2
Atom  22O    basis set group =>   5
Atom  23H    basis set group =>   2
Atom  24H    basis set group =>   2
Atom  25H    basis set group =>   2
Atom  26H    basis set group =>   2
Atom  27H    basis set group =>   2
Atom  28H    basis set group =>   2
---------------------------------
AUXILIARY/J BASIS SET INFORMATION
---------------------------------
There are 6 groups of distinct atoms

 Group   1 Type C   : 12s5p4d2f1g contracted to 6s4p3d1f1g pattern {711111/2111/211/2/1}
 Group   2 Type H   : 5s2p1d contracted to 3s1p1d pattern {311/2/1}
 Group   3 Type S   : 14s5p5d2f1g contracted to 8s4p3d1f1g pattern {71111111/2111/311/2/1}
 Group   4 Type N   : 12s5p4d2f1g contracted to 6s4p3d1f1g pattern {711111/2111/211/2/1}
 Group   5 Type O   : 12s5p4d2f1g contracted to 6s4p3d1f1g pattern {711111/2111/211/2/1}
 Group   6 Type F   : 12s5p4d2f1g contracted to 6s4p3d1f1g pattern {711111/2111/211/2/1}

Atom   0C    basis set group =>   1
Atom   1C    basis set group =>   1
Atom   2C    basis set group =>   1
Atom   3H    basis set group =>   2
Atom   4H    basis set group =>   2
Atom   5S    basis set group =>   3
Atom   6C    basis set group =>   1
Atom   7C    basis set group =>   1
Atom   8N    basis set group =>   4
Atom   9H    basis set group =>   2
Atom  10H    basis set group =>   2
Atom  11H    basis set group =>   2
Atom  12H    basis set group =>   2
Atom  13O    basis set group =>   5
Atom  14F    basis set group =>   6
Atom  15C    basis set group =>   1
Atom  16C    basis set group =>   1
Atom  17H    basis set group =>   2
Atom  18H    basis set group =>   2
Atom  19C    basis set group =>   1
Atom  20H    basis set group =>   2
Atom  21H    basis set group =>   2
Atom  22O    basis set group =>   5
Atom  23H    basis set group =>   2
Atom  24H    basis set group =>   2
Atom  25H    basis set group =>   2
Atom  26H    basis set group =>   2
Atom  27H    basis set group =>   2
Atom  28H    basis set group =>   2


           ************************************************************
           *        Program running with 18 parallel MPI-processes    *
           *              working on a common directory               *
           ************************************************************
------------------------------------------------------------------------------
                           ORCA GTO INTEGRAL CALCULATION
                           -- RI-GTO INTEGRALS CHOSEN --
------------------------------------------------------------------------------
------------------------------------------------------------------------------
                   ___                                                        
                  /   \      - P O W E R E D   B Y -                         
                 /     \                                                     
                 |  |  |   _    _      __       _____    __    __             
                 |  |  |  | |  | |    /  \     |  _  \  |  |  /  |          
                  \  \/   | |  | |   /    \    | | | |  |  | /  /          
                 / \  \   | |__| |  /  /\  \   | |_| |  |  |/  /          
                |  |  |   |  __  | /  /__\  \  |    /   |      \           
                |  |  |   | |  | | |   __   |  |    \   |  |\   \          
                \     /   | |  | | |  |  |  |  | |\  \  |  | \   \       
                 \___/    |_|  |_| |__|  |__|  |_| \__\ |__|  \__/        
                                                                              
                      - O R C A' S   B I G   F R I E N D -                    
                                      &                                       
                       - I N T E G R A L  F E E D E R -                       
                                                                              
 v1 FN, 2020, v2 2021                                                         
------------------------------------------------------------------------------


Reading SHARK input file B3LYP_D3_wb97.SHARKINP.tmp ... ok
----------------------
SHARK INTEGRAL PACKAGE
----------------------

Number of atoms                             ...     29
Number of basis functions                   ...    505
Number of shells                            ...    209
Maximum angular momentum                    ...      3
Integral batch strategy                     ... SHARK/LIBINT Hybrid
RI-J (if used) integral strategy            ... SPLIT-RIJ (Revised 2003 algorithm where possible)
Printlevel                                  ...      1
Contraction scheme used                     ... SEGMENTED contraction
Coulomb Range Separation                    ... NOT USED
Exchange Range Separation                   ... NOT USED
Finite Nucleus Model                        ... NOT USED
Auxiliary Coulomb fitting basis             ... AVAILABLE
   # of basis functions in Aux-J            ...    815
   # of shells in Aux-J                     ...    277
   Maximum angular momentum in Aux-J        ...      4
Auxiliary J/K fitting basis                 ... NOT available
Auxiliary Correlation fitting basis         ... NOT available
Auxiliary 'external' fitting basis          ... NOT available
Integral threshold                          ...     2.500000e-11
Primitive cut-off                           ...     2.500000e-12
Primitive pair pre-selection threshold      ...     2.500000e-12

Calculating pre-screening integrals         ... done (  0.3 sec) Dimension = 209
Organizing shell pair data                  ... done (  0.3 sec)
Shell pair information
Total number of shell pairs                 ...     21945
Shell pairs after pre-screening             ...     18727
Total number of primitive shell pairs       ...     66414
Primitive shell pairs kept                  ...     39654
          la=0 lb=0:   5343 shell pairs
          la=1 lb=0:   5544 shell pairs
          la=1 lb=1:   1479 shell pairs
          la=2 lb=0:   2495 shell pairs
          la=2 lb=1:   1320 shell pairs
          la=2 lb=2:    311 shell pairs
          la=3 lb=0:   1211 shell pairs
          la=3 lb=1:    646 shell pairs
          la=3 lb=2:    296 shell pairs
          la=3 lb=3:     82 shell pairs

Calculating one electron integrals          ... done (  0.0 sec)
Calculating RI/J V-Matrix + Cholesky decomp.... done (  0.1 sec)
Calculating Nuclear repulsion               ... done (  0.0 sec) ENN=   1085.350348668173 Eh

SHARK setup successfully completed in   0.8 seconds

Maximum memory used throughout the entire GTOINT-calculation: 29.5 MB


           ************************************************************
           *        Program running with 18 parallel MPI-processes    *
           *              working on a common directory               *
           ************************************************************
-------------------------------------------------------------------------------
                                 ORCA SCF
-------------------------------------------------------------------------------

------------
SCF SETTINGS
------------
Hamiltonian:
 Density Functional     Method          .... DFT(GTOs)
 Exchange Functional    Exchange        .... B88
   X-Alpha parameter    XAlpha          ....  0.666667
   Becke's b parameter  XBeta           ....  0.004200
 Correlation Functional Correlation     .... LYP
 LDA part of GGA corr.  LDAOpt          .... VWN-5
 Gradients option       PostSCFGGA      .... off
 Hybrid DFT is turned on
   Fraction HF Exchange ScalHFX         ....  0.200000
   Scaling of DF-GGA-X  ScalDFX         ....  0.720000
   Scaling of DF-GGA-C  ScalDFC         ....  0.810000
   Scaling of DF-LDA-C  ScalLDAC        ....  1.000000
   Perturbative correction              ....  0.000000
   Density functional embedding theory  .... OFF
   NL short-range parameter             ....  4.800000
 RI-approximation to the Coulomb term is turned on
   Number of AuxJ basis functions       .... 815
   RIJ-COSX (HFX calculated with COS-X)).... on


General Settings:
 Integral files         IntName         .... B3LYP_D3_wb97
 Hartree-Fock type      HFTyp           .... RHF
 Total Charge           Charge          ....    0
 Multiplicity           Mult            ....    1
 Number of Electrons    NEL             ....  112
 Basis Dimension        Dim             ....  505
 Nuclear Repulsion      ENuc            ....   1085.3503486682 Eh

Convergence Acceleration:
 DIIS                   CNVDIIS         .... on
   Start iteration      DIISMaxIt       ....    12
   Startup error        DIISStart       ....  0.200000
   # of expansion vecs  DIISMaxEq       ....     5
   Bias factor          DIISBfac        ....   1.050
   Max. coefficient     DIISMaxC        ....  10.000
 Trust-Rad. Augm. Hess. CNVTRAH         .... auto
   Auto Start mean grad. ratio tolernc. ....  1.125000
   Auto Start start iteration           ....    20
   Auto Start num. interpolation iter.  ....    10
   Max. Number of Micro iterations      ....    16
   Max. Number of Macro iterations      .... Maxiter - #DIIS iter
   Number of Davidson start vectors     ....     2
   Converg. threshold I  (grad. norm)   ....   1.000e-05
   Converg. threshold II (energy diff.) ....   1.000e-08
   Grad. Scal. Fac. for Micro threshold ....   0.100
   Minimum threshold for Micro iter.    ....   0.010
   NR start threshold (gradient norm)   ....   0.001
   Initial trust radius                 ....   0.400
   Minimum AH scaling param. (alpha)    ....   1.000
   Maximum AH scaling param. (alpha)    .... 1000.000
   Orbital update algorithm             .... Taylor
   White noise on init. David. guess    .... on
   Maximum white noise                  ....   0.010
   Quad. conv. algorithm                .... NR
 SOSCF                  CNVSOSCF        .... on
   Start iteration      SOSCFMaxIt      ....   150
   Startup grad/error   SOSCFStart      ....  0.003300
 Level Shifting         CNVShift        .... on
   Level shift para.    LevelShift      ....    0.2500
   Turn off err/grad.   ShiftErr        ....    0.0010
 Zerner damping         CNVZerner       .... off
 Static damping         CNVDamp         .... on
   Fraction old density DampFac         ....    0.7000
   Max. Damping (<1)    DampMax         ....    0.9800
   Min. Damping (>=0)   DampMin         ....    0.0000
   Turn off err/grad.   DampErr         ....    0.1000
 Fernandez-Rico         CNVRico         .... off

SCF Procedure:
 Maximum # iterations   MaxIter         ....   150
 SCF integral mode      SCFMode         .... Direct
   Integral package                     .... SHARK and LIBINT hybrid scheme
 Reset frequency        DirectResetFreq ....    20
 Integral Threshold     Thresh          ....  2.500e-11 Eh
 Primitive CutOff       TCut            ....  2.500e-12 Eh

Convergence Tolerance:
 Convergence Check Mode ConvCheckMode   .... Total+1el-Energy
 Convergence forced     ConvForced      .... 0
 Energy Change          TolE            ....  1.000e-08 Eh
 1-El. energy change                    ....  1.000e-05 Eh
 Orbital Gradient       TolG            ....  1.000e-05
 Orbital Rotation angle TolX            ....  1.000e-05
 DIIS Error             TolErr          ....  5.000e-07


Diagonalization of the overlap matrix:
Smallest eigenvalue                        ... 5.845e-05
Time for diagonalization                   ...    0.072 sec
Threshold for overlap eigenvalues          ... 1.000e-08
Number of eigenvalues below threshold      ... 0
Time for construction of square roots      ...    0.220 sec
Total time needed                          ...    0.296 sec

Time for model grid setup =    0.198 sec

------------------------------
INITIAL GUESS: MODEL POTENTIAL
------------------------------
Loading Hartree-Fock densities                     ... done
Calculating cut-offs                               ... done
Initializing the effective Hamiltonian             ... done
Setting up the integral package (SHARK)            ... done
Starting the Coulomb interaction                   ... done (   0.2 sec)
Reading the grid                                   ... done
Mapping shells                                     ... done
Starting the XC term evaluation                    ... done (   0.2 sec)
  promolecular density results
     # of electrons  =    111.991524951
     EX              =   -104.189281665
     EC              =     -3.950805985
     EX+EC           =   -108.140087650
Transforming the Hamiltonian                       ... done (   0.0 sec)
Diagonalizing the Hamiltonian                      ... done (   0.1 sec)
Back transforming the eigenvectors                 ... done (   0.0 sec)
Now organizing SCF variables                       ... done
                      ------------------
                      INITIAL GUESS DONE (   0.7 sec)
                      ------------------
-------------------
DFT GRID GENERATION
-------------------

General Integration Accuracy     IntAcc      ... 4.388
Radial Grid Type                 RadialGrid  ... OptM3 with GC (2021)
Angular Grid (max. ang.)         AngularGrid ... 4 (Lebedev-302)
Angular grid pruning method      GridPruning ... 4 (adaptive)
Weight generation scheme         WeightScheme... Becke
Basis function cutoff            BFCut       ... 1.0000e-11
Integration weight cutoff        WCut        ... 1.0000e-14
Angular grids for H and He will be reduced by one unit
Partially contracted basis set               ... off
Rotationally invariant grid construction     ... off

Total number of grid points                  ...   129516
Total number of batches                      ...     2039
Average number of points per batch           ...       63
Average number of grid points per atom       ...     4466
Time for grid setup =    0.936 sec

--------------------
COSX GRID GENERATION
--------------------

GRIDX 1
-------
General Integration Accuracy     IntAcc      ... 3.816
Radial Grid Type                 RadialGrid  ... OptM3 with GC (2021)
Angular Grid (max. ang.)         AngularGrid ... 1 (Lebedev-50)
Angular grid pruning method      GridPruning ... 4 (adaptive)
Weight generation scheme         WeightScheme... Becke
Basis function cutoff            BFCut       ... 1.0000e-11
Integration weight cutoff        WCut        ... 1.0000e-14
Angular grids for H and He will be reduced by one unit
Partially contracted basis set               ... on
Rotationally invariant grid construction     ... off

Total number of grid points                  ...    16413
Total number of batches                      ...      275
Average number of points per batch           ...       59
Average number of grid points per atom       ...      566
UseSFitting                                  ... on

GRIDX 2
-------
General Integration Accuracy     IntAcc      ... 4.020
Radial Grid Type                 RadialGrid  ... OptM3 with GC (2021)
Angular Grid (max. ang.)         AngularGrid ... 2 (Lebedev-110)
Angular grid pruning method      GridPruning ... 4 (adaptive)
Weight generation scheme         WeightScheme... Becke
Basis function cutoff            BFCut       ... 1.0000e-11
Integration weight cutoff        WCut        ... 1.0000e-14
Angular grids for H and He will be reduced by one unit
Partially contracted basis set               ... on
Rotationally invariant grid construction     ... off

Total number of grid points                  ...    34772
Total number of batches                      ...      558
Average number of points per batch           ...       62
Average number of grid points per atom       ...     1199
UseSFitting                                  ... on

GRIDX 3
-------
General Integration Accuracy     IntAcc      ... 4.338
Radial Grid Type                 RadialGrid  ... OptM3 with GC (2021)
Angular Grid (max. ang.)         AngularGrid ... 3 (Lebedev-194)
Angular grid pruning method      GridPruning ... 4 (adaptive)
Weight generation scheme         WeightScheme... Becke
Basis function cutoff            BFCut       ... 1.0000e-11
Integration weight cutoff        WCut        ... 1.0000e-14
Angular grids for H and He will be reduced by one unit
Partially contracted basis set               ... on
Rotationally invariant grid construction     ... off

Total number of grid points                  ...    76324
Total number of batches                      ...     1207
Average number of points per batch           ...       63
Average number of grid points per atom       ...     2632
UseSFitting                                  ... on

Time for X-Grid setup             =    0.775 sec

--------------
SCF ITERATIONS
--------------
ITER       Energy         Delta-E        Max-DP      RMS-DP      [F,P]     Damp
               ***  Starting incremental Fock matrix formation  ***
  0  -1016.7779596248   0.000000000000 0.17222698  0.00138248  0.3184970 0.7000
  1  -1017.1247125990  -0.346752974246 0.10368015  0.00096708  0.1218788 0.7000
                               ***Turning on DIIS***
  2  -1017.2379334638  -0.113220864796 0.10723720  0.00134776  0.0440593 0.0000
  3  -1017.4450496560  -0.207116192233 0.10238501  0.00078835  0.0743086 0.0000
  4  -1017.4822280106  -0.037178354563 0.03192863  0.00028357  0.0238662 0.0000
  5  -1017.4860720398  -0.003844029200 0.01010434  0.00009485  0.0072674 0.0000
                      *** Initiating the SOSCF procedure ***
                           *** Shutting down DIIS ***
                      *** Re-Reading the Fockian *** 
                      *** Removing any level shift *** 
ITER      Energy       Delta-E        Grad      Rot      Max-DP    RMS-DP
  6  -1017.48624714  -0.0001751002  0.000287  0.000287  0.004416  0.000042
               *** Restarting incremental Fock matrix formation ***
  7  -1017.48625171  -0.0000045730  0.000172  0.000847  0.002654  0.000031
  8  -1017.48625234  -0.0000006244  0.000272  0.000477  0.000963  0.000012
  9  -1017.48625479  -0.0000024552  0.000058  0.000227  0.000827  0.000009
 10  -1017.48625492  -0.0000001231  0.000031  0.000035  0.000105  0.000002
 11  -1017.48625504  -0.0000001272  0.000014  0.000065  0.000264  0.000003
 12  -1017.48625504   0.0000000017  0.000015  0.000016  0.000058  0.000001
 13  -1017.48625506  -0.0000000205  0.000005  0.000021  0.000070  0.000001
 14  -1017.48625506   0.0000000023  0.000005  0.000007  0.000019  0.000000
                  ***Gradient check signals convergence***
              ***Rediagonalizing the Fockian in SOSCF/NRSCF***

               *****************************************************
               *                     SUCCESS                       *
               *           SCF CONVERGED AFTER  15 CYCLES          *
               *****************************************************

Old exchange energy                            =    -21.134545253 Eh
New exchange energy                            =    -21.134551503 Eh
Exchange energy change after final integration =     -0.000006250 Eh
Total energy after final integration           =  -1017.486261314 Eh
Final COS-X integration done in                =     5.376 sec

----------------
TOTAL SCF ENERGY
----------------

Total Energy       :        -1017.48626131 Eh          -27687.20876 eV

Components:
Nuclear Repulsion  :         1085.35034867 Eh           29533.88446 eV
Electronic Energy  :        -2102.83660998 Eh          -57221.09322 eV
One Electron Energy:        -3551.20926469 Eh          -96633.31684 eV
Two Electron Energy:         1448.37265471 Eh           39412.22361 eV
Max COSX asymmetry :            0.00000252 Eh               0.00007 eV

Virial components:
Potential Energy   :        -2032.49618114 Eh          -55307.03284 eV
Kinetic Energy     :         1015.00991983 Eh           27619.82408 eV
Virial Ratio       :            2.00243972


DFT components:
N(Alpha)           :       55.999997037261 electrons
N(Beta)            :       55.999997037261 electrons
N(Total)           :      111.999994074521 electrons
E(X)               :      -83.960306062501 Eh       
E(C)               :       -4.641946563542 Eh       
E(XC)              :      -88.602252626043 Eh       
DFET-embed. en.    :        0.000000000000 Eh       

---------------
SCF CONVERGENCE
---------------

  Last Energy change         ...   -4.3059e-09  Tolerance :   1.0000e-08
  Last MAX-Density change    ...    2.5535e-15  Tolerance :   1.0000e-07
  Last RMS-Density change    ...    1.6171e-17  Tolerance :   5.0000e-09
  Last Orbital Gradient      ...    1.3786e-06  Tolerance :   1.0000e-05
  Last Orbital Rotation      ...    5.6706e-06  Tolerance :   1.0000e-05

             **** THE GBW FILE WAS UPDATED (B3LYP_D3_wb97.gbw) ****
             **** DENSITY B3LYP_D3_wb97.scfp WAS UPDATED ****
             **** ENERGY FILE WAS UPDATED (B3LYP_D3_wb97.en.tmp) ****
             **** THE GBW FILE WAS UPDATED (B3LYP_D3_wb97.gbw) ****
             **** DENSITY B3LYP_D3_wb97.scfp WAS UPDATED ****
----------------
ORBITAL ENERGIES
----------------

  NO   OCC          E(Eh)            E(eV) 
   0   2.0000     -89.109887     -2424.8033 
   1   2.0000     -24.814162      -675.2277 
   2   2.0000     -19.146184      -520.9941 
   3   2.0000     -19.137071      -520.7462 
   4   2.0000     -14.284944      -388.7131 
   5   2.0000     -10.234967      -278.5076 
   6   2.0000     -10.198529      -277.5161 
   7   2.0000     -10.168396      -276.6961 
   8   2.0000     -10.162341      -276.5314 
   9   2.0000     -10.160202      -276.4732 
  10   2.0000     -10.158314      -276.4218 
  11   2.0000     -10.155880      -276.3556 
  12   2.0000     -10.066275      -273.9173 
  13   2.0000      -8.154061      -221.8833 
  14   2.0000      -6.120737      -166.5537 
  15   2.0000      -6.114472      -166.3832 
  16   2.0000      -6.114104      -166.3732 
  17   2.0000      -1.399318       -38.0774 
  18   2.0000      -1.113679       -30.3048 
  19   2.0000      -1.016244       -27.6534 
  20   2.0000      -0.910170       -24.7670 
  21   2.0000      -0.838418       -22.8145 
  22   2.0000      -0.794419       -21.6172 
  23   2.0000      -0.762602       -20.7515 
  24   2.0000      -0.728239       -19.8164 
  25   2.0000      -0.697848       -18.9894 
  26   2.0000      -0.672233       -18.2924 
  27   2.0000      -0.632968       -17.2239 
  28   2.0000      -0.602306       -16.3896 
  29   2.0000      -0.597611       -16.2618 
  30   2.0000      -0.572494       -15.5784 
  31   2.0000      -0.562764       -15.3136 
  32   2.0000      -0.535221       -14.5641 
  33   2.0000      -0.503172       -13.6920 
  34   2.0000      -0.494881       -13.4664 
  35   2.0000      -0.493297       -13.4233 
  36   2.0000      -0.475827       -12.9479 
  37   2.0000      -0.467725       -12.7274 
  38   2.0000      -0.448732       -12.2106 
  39   2.0000      -0.435640       -11.8544 
  40   2.0000      -0.426177       -11.5969 
  41   2.0000      -0.412522       -11.2253 
  42   2.0000      -0.400347       -10.8940 
  43   2.0000      -0.384666       -10.4673 
  44   2.0000      -0.379234       -10.3195 
  45   2.0000      -0.363636        -9.8950 
  46   2.0000      -0.358562        -9.7570 
  47   2.0000      -0.350186        -9.5291 
  48   2.0000      -0.341461        -9.2916 
  49   2.0000      -0.335348        -9.1253 
  50   2.0000      -0.328000        -8.9253 
  51   2.0000      -0.320885        -8.7317 
  52   2.0000      -0.315848        -8.5947 
  53   2.0000      -0.307471        -8.3667 
  54   2.0000      -0.298458        -8.1215 
  55   2.0000      -0.162592        -4.4244 
  56   0.0000       0.008589         0.2337 
  57   0.0000       0.014470         0.3937 
  58   0.0000       0.040478         1.1015 
  59   0.0000       0.044579         1.2130 
  60   0.0000       0.048903         1.3307 
  61   0.0000       0.055524         1.5109 
  62   0.0000       0.062184         1.6921 
  63   0.0000       0.066248         1.8027 
  64   0.0000       0.081261         2.2112 
  65   0.0000       0.084708         2.3050 
  66   0.0000       0.093918         2.5556 
  67   0.0000       0.104697         2.8489 
  68   0.0000       0.114933         3.1275 
  69   0.0000       0.117766         3.2046 
  70   0.0000       0.122994         3.3468 
  71   0.0000       0.125662         3.4194 
  72   0.0000       0.140739         3.8297 
  73   0.0000       0.149224         4.0606 
  74   0.0000       0.162092         4.4108 
  75   0.0000       0.171842         4.6761 
  76   0.0000       0.173878         4.7315 
  77   0.0000       0.185296         5.0421 
  78   0.0000       0.188410         5.1269 
  79   0.0000       0.197605         5.3771 
  80   0.0000       0.206268         5.6128 
  81   0.0000       0.206691         5.6244 
  82   0.0000       0.211524         5.7559 
  83   0.0000       0.222454         6.0533 
  84   0.0000       0.223362         6.0780 
  85   0.0000       0.246433         6.7058 
  86   0.0000       0.252046         6.8585 
  87   0.0000       0.253497         6.8980 
  88   0.0000       0.264923         7.2089 
  89   0.0000       0.269720         7.3394 
  90   0.0000       0.276436         7.5222 
  91   0.0000       0.282007         7.6738 
  92   0.0000       0.293967         7.9993 
  93   0.0000       0.310390         8.4461 
  94   0.0000       0.319151         8.6845 
  95   0.0000       0.322658         8.7800 
  96   0.0000       0.329270         8.9599 
  97   0.0000       0.340654         9.2697 
  98   0.0000       0.357045         9.7157 
  99   0.0000       0.366461         9.9719 
 100   0.0000       0.372128        10.1261 
 101   0.0000       0.374337        10.1862 
 102   0.0000       0.383715        10.4414 
 103   0.0000       0.389759        10.6059 
 104   0.0000       0.396907        10.8004 
 105   0.0000       0.406044        11.0490 
 106   0.0000       0.406407        11.0589 
 107   0.0000       0.411510        11.1978 
 108   0.0000       0.416135        11.3236 
 109   0.0000       0.421900        11.4805 
 110   0.0000       0.427539        11.6339 
 111   0.0000       0.434867        11.8333 
 112   0.0000       0.436953        11.8901 
 113   0.0000       0.445491        12.1224 
 114   0.0000       0.448315        12.1993 
 115   0.0000       0.451285        12.2801 
 116   0.0000       0.461303        12.5527 
 117   0.0000       0.469537        12.7767 
 118   0.0000       0.474222        12.9042 
 119   0.0000       0.477132        12.9834 
 120   0.0000       0.478625        13.0240 
 121   0.0000       0.485899        13.2220 
 122   0.0000       0.492194        13.3933 
 123   0.0000       0.501991        13.6599 
 124   0.0000       0.507015        13.7966 
 125   0.0000       0.520014        14.1503 
 126   0.0000       0.530443        14.4341 
 127   0.0000       0.533273        14.5111 
 128   0.0000       0.543536        14.7904 
 129   0.0000       0.551173        14.9982 
 130   0.0000       0.554016        15.0756 
 131   0.0000       0.566937        15.4271 
 132   0.0000       0.572188        15.5700 
 133   0.0000       0.582571        15.8526 
 134   0.0000       0.590693        16.0736 
 135   0.0000       0.601392        16.3647 
 136   0.0000       0.602627        16.3983 
 137   0.0000       0.610638        16.6163 
 138   0.0000       0.624635        16.9972 
 139   0.0000       0.634473        17.2649 
 140   0.0000       0.654393        17.8069 
 141   0.0000       0.659266        17.9395 
 142   0.0000       0.666843        18.1457 
 143   0.0000       0.676252        18.4018 
 144   0.0000       0.693651        18.8752 
 145   0.0000       0.715973        19.4826 
 146   0.0000       0.729582        19.8529 
 147   0.0000       0.739527        20.1235 
 148   0.0000       0.753070        20.4921 
 149   0.0000       0.760619        20.6975 
 150   0.0000       0.770747        20.9731 
 151   0.0000       0.785585        21.3769 
 152   0.0000       0.791178        21.5291 
 153   0.0000       0.809759        22.0347 
 154   0.0000       0.818211        22.2647 
 155   0.0000       0.833691        22.6859 
 156   0.0000       0.843186        22.9443 
 157   0.0000       0.852120        23.1874 
 158   0.0000       0.866365        23.5750 
 159   0.0000       0.885824        24.1045 
 160   0.0000       0.893588        24.3158 
 161   0.0000       0.895510        24.3681 
 162   0.0000       0.905197        24.6317 
 163   0.0000       0.924555        25.1584 
 164   0.0000       0.936122        25.4732 
 165   0.0000       0.954259        25.9667 
 166   0.0000       0.962832        26.2000 
 167   0.0000       0.969744        26.3881 
 168   0.0000       0.986346        26.8398 
 169   0.0000       0.997952        27.1557 
 170   0.0000       1.006922        27.3997 
 171   0.0000       1.015581        27.6354 
 172   0.0000       1.039283        28.2803 
 173   0.0000       1.051621        28.6161 
 174   0.0000       1.058617        28.8064 
 175   0.0000       1.064633        28.9701 
 176   0.0000       1.089976        29.6598 
 177   0.0000       1.092584        29.7307 
 178   0.0000       1.111570        30.2474 
 179   0.0000       1.130884        30.7729 
 180   0.0000       1.142230        31.0817 
 181   0.0000       1.147353        31.2211 
 182   0.0000       1.165822        31.7236 
 183   0.0000       1.171302        31.8727 
 184   0.0000       1.178685        32.0737 
 185   0.0000       1.181968        32.1630 
 186   0.0000       1.203386        32.7458 
 187   0.0000       1.218720        33.1631 
 188   0.0000       1.235953        33.6320 
 189   0.0000       1.250656        34.0321 
 190   0.0000       1.260965        34.3126 
 191   0.0000       1.289576        35.0911 
 192   0.0000       1.305838        35.5337 
 193   0.0000       1.315431        35.7947 
 194   0.0000       1.320693        35.9379 
 195   0.0000       1.343603        36.5613 
 196   0.0000       1.345401        36.6102 
 197   0.0000       1.361669        37.0529 
 198   0.0000       1.376510        37.4567 
 199   0.0000       1.393098        37.9081 
 200   0.0000       1.400151        38.1000 
 201   0.0000       1.423206        38.7274 
 202   0.0000       1.445839        39.3433 
 203   0.0000       1.457435        39.6588 
 204   0.0000       1.471099        40.0306 
 205   0.0000       1.477217        40.1971 
 206   0.0000       1.493972        40.6530 
 207   0.0000       1.510928        41.1144 
 208   0.0000       1.515696        41.2442 
 209   0.0000       1.527125        41.5552 
 210   0.0000       1.533824        41.7375 
 211   0.0000       1.546242        42.0754 
 212   0.0000       1.558043        42.3965 
 213   0.0000       1.559768        42.4434 
 214   0.0000       1.571543        42.7639 
 215   0.0000       1.576173        42.8899 
 216   0.0000       1.582845        43.0714 
 217   0.0000       1.599018        43.5115 
 218   0.0000       1.603276        43.6274 
 219   0.0000       1.616524        43.9879 
 220   0.0000       1.623985        44.1909 
 221   0.0000       1.631951        44.4077 
 222   0.0000       1.641213        44.6597 
 223   0.0000       1.645237        44.7692 
 224   0.0000       1.661600        45.2144 
 225   0.0000       1.666359        45.3439 
 226   0.0000       1.679913        45.7128 
 227   0.0000       1.686443        45.8905 
 228   0.0000       1.705456        46.4078 
 229   0.0000       1.712563        46.6012 
 230   0.0000       1.724896        46.9368 
 231   0.0000       1.729247        47.0552 
 232   0.0000       1.734744        47.2048 
 233   0.0000       1.767684        48.1011 
 234   0.0000       1.777082        48.3569 
 235   0.0000       1.792809        48.7848 
 236   0.0000       1.811548        49.2947 
 237   0.0000       1.819567        49.5129 
 238   0.0000       1.828073        49.7444 
 239   0.0000       1.841157        50.1004 
 240   0.0000       1.851624        50.3852 
 241   0.0000       1.863210        50.7005 
 242   0.0000       1.871869        50.9361 
 243   0.0000       1.882167        51.2164 
 244   0.0000       1.904256        51.8175 
 245   0.0000       1.911458        52.0134 
 246   0.0000       1.943613        52.8884 
 247   0.0000       1.951920        53.1145 
 248   0.0000       1.962106        53.3916 
 249   0.0000       1.966388        53.5081 
 250   0.0000       1.982711        53.9523 
 251   0.0000       1.992795        54.2267 
 252   0.0000       2.003404        54.5154 
 253   0.0000       2.019481        54.9529 
 254   0.0000       2.035704        55.3943 
 255   0.0000       2.045201        55.6528 
 256   0.0000       2.054868        55.9158 
 257   0.0000       2.059946        56.0540 
 258   0.0000       2.080542        56.6144 
 259   0.0000       2.105677        57.2984 
 260   0.0000       2.120173        57.6929 
 261   0.0000       2.127413        57.8898 
 262   0.0000       2.139696        58.2241 
 263   0.0000       2.163881        58.8822 
 264   0.0000       2.172204        59.1087 
 265   0.0000       2.189976        59.5923 
 266   0.0000       2.211519        60.1785 
 267   0.0000       2.224671        60.5364 
 268   0.0000       2.239678        60.9447 
 269   0.0000       2.263999        61.6065 
 270   0.0000       2.276941        61.9587 
 271   0.0000       2.287472        62.2453 
 272   0.0000       2.298919        62.5568 
 273   0.0000       2.308781        62.8251 
 274   0.0000       2.328688        63.3668 
 275   0.0000       2.337477        63.6060 
 276   0.0000       2.350084        63.9490 
 277   0.0000       2.369189        64.4689 
 278   0.0000       2.372218        64.5513 
 279   0.0000       2.380647        64.7807 
 280   0.0000       2.390388        65.0458 
 281   0.0000       2.409923        65.5773 
 282   0.0000       2.430106        66.1265 
 283   0.0000       2.434506        66.2463 
 284   0.0000       2.436035        66.2879 
 285   0.0000       2.458764        66.9064 
 286   0.0000       2.470887        67.2363 
 287   0.0000       2.479266        67.4643 
 288   0.0000       2.486306        67.6558 
 289   0.0000       2.509166        68.2779 
 290   0.0000       2.516177        68.4687 
 291   0.0000       2.520563        68.5880 
 292   0.0000       2.540443        69.1290 
 293   0.0000       2.550716        69.4085 
 294   0.0000       2.563652        69.7605 
 295   0.0000       2.576742        70.1167 
 296   0.0000       2.589244        70.4569 
 297   0.0000       2.592018        70.5324 
 298   0.0000       2.599914        70.7473 
 299   0.0000       2.605129        70.8892 
 300   0.0000       2.613895        71.1277 
 301   0.0000       2.618557        71.2546 
 302   0.0000       2.632480        71.6334 
 303   0.0000       2.636621        71.7461 
 304   0.0000       2.640668        71.8562 
 305   0.0000       2.658352        72.3374 
 306   0.0000       2.664315        72.4997 
 307   0.0000       2.667387        72.5833 
 308   0.0000       2.682257        72.9879 
 309   0.0000       2.686420        73.1012 
 310   0.0000       2.703767        73.5732 
 311   0.0000       2.712867        73.8209 
 312   0.0000       2.723589        74.1126 
 313   0.0000       2.729085        74.2622 
 314   0.0000       2.741993        74.6134 
 315   0.0000       2.754716        74.9596 
 316   0.0000       2.764555        75.2274 
 317   0.0000       2.767851        75.3171 
 318   0.0000       2.780491        75.6610 
 319   0.0000       2.791670        75.9652 
 320   0.0000       2.800205        76.1975 
 321   0.0000       2.814306        76.5811 
 322   0.0000       2.827581        76.9424 
 323   0.0000       2.846534        77.4581 
 324   0.0000       2.870436        78.1085 
 325   0.0000       2.890821        78.6632 
 326   0.0000       2.902125        78.9708 
 327   0.0000       2.915641        79.3386 
 328   0.0000       2.929011        79.7025 
 329   0.0000       2.951720        80.3204 
 330   0.0000       2.969145        80.7946 
 331   0.0000       2.978090        81.0380 
 332   0.0000       2.991042        81.3904 
 333   0.0000       3.011445        81.9456 
 334   0.0000       3.018775        82.1451 
 335   0.0000       3.031821        82.5000 
 336   0.0000       3.038564        82.6835 
 337   0.0000       3.057505        83.1989 
 338   0.0000       3.086718        83.9939 
 339   0.0000       3.096429        84.2581 
 340   0.0000       3.118137        84.8488 
 341   0.0000       3.123747        85.0015 
 342   0.0000       3.136475        85.3478 
 343   0.0000       3.158665        85.9516 
 344   0.0000       3.163431        86.0813 
 345   0.0000       3.174436        86.3808 
 346   0.0000       3.191796        86.8532 
 347   0.0000       3.202521        87.1450 
 348   0.0000       3.210805        87.3705 
 349   0.0000       3.231187        87.9251 
 350   0.0000       3.233245        87.9811 
 351   0.0000       3.240135        88.1686 
 352   0.0000       3.261039        88.7374 
 353   0.0000       3.271214        89.0143 
 354   0.0000       3.285981        89.4161 
 355   0.0000       3.288914        89.4959 
 356   0.0000       3.304156        89.9107 
 357   0.0000       3.312479        90.1371 
 358   0.0000       3.320497        90.3553 
 359   0.0000       3.323630        90.4406 
 360   0.0000       3.333100        90.6983 
 361   0.0000       3.349451        91.1432 
 362   0.0000       3.358726        91.3956 
 363   0.0000       3.372764        91.7776 
 364   0.0000       3.377203        91.8984 
 365   0.0000       3.397640        92.4545 
 366   0.0000       3.404602        92.6439 
 367   0.0000       3.420405        93.0740 
 368   0.0000       3.427811        93.2755 
 369   0.0000       3.434553        93.4589 
 370   0.0000       3.443609        93.7054 
 371   0.0000       3.447008        93.7979 
 372   0.0000       3.459692        94.1430 
 373   0.0000       3.473811        94.5272 
 374   0.0000       3.480299        94.7037 
 375   0.0000       3.493727        95.0692 
 376   0.0000       3.513322        95.6024 
 377   0.0000       3.520411        95.7953 
 378   0.0000       3.535930        96.2175 
 379   0.0000       3.554779        96.7305 
 380   0.0000       3.565400        97.0195 
 381   0.0000       3.584906        97.5503 
 382   0.0000       3.608423        98.1902 
 383   0.0000       3.621182        98.5374 
 384   0.0000       3.643566        99.1465 
 385   0.0000       3.656155        99.4890 
 386   0.0000       3.668439        99.8233 
 387   0.0000       3.681587       100.1811 
 388   0.0000       3.720277       101.2339 
 389   0.0000       3.749097       102.0181 
 390   0.0000       3.756064       102.2077 
 391   0.0000       3.771673       102.6324 
 392   0.0000       3.805545       103.5541 
 393   0.0000       3.820399       103.9584 
 394   0.0000       3.851344       104.8004 
 395   0.0000       3.853659       104.8634 
 396   0.0000       3.865847       105.1950 
 397   0.0000       3.887283       105.7783 
 398   0.0000       3.895694       106.0072 
 399   0.0000       3.904840       106.2561 
 400   0.0000       3.928233       106.8926 
 401   0.0000       3.949861       107.4812 
 402   0.0000       3.968941       108.0004 
 403   0.0000       3.987091       108.4943 
 404   0.0000       4.003809       108.9492 
 405   0.0000       4.019559       109.3778 
 406   0.0000       4.026731       109.5729 
 407   0.0000       4.048947       110.1775 
 408   0.0000       4.069181       110.7280 
 409   0.0000       4.077740       110.9609 
 410   0.0000       4.113465       111.9331 
 411   0.0000       4.136465       112.5589 
 412   0.0000       4.163751       113.3014 
 413   0.0000       4.204624       114.4136 
 414   0.0000       4.235223       115.2463 
 415   0.0000       4.284289       116.5814 
 416   0.0000       4.286267       116.6352 
 417   0.0000       4.314850       117.4130 
 418   0.0000       4.346380       118.2710 
 419   0.0000       4.359532       118.6289 
 420   0.0000       4.394812       119.5889 
 421   0.0000       4.397196       119.6538 
 422   0.0000       4.445085       120.9569 
 423   0.0000       4.458755       121.3289 
 424   0.0000       4.481164       121.9387 
 425   0.0000       4.557641       124.0197 
 426   0.0000       4.590210       124.9060 
 427   0.0000       4.603011       125.2543 
 428   0.0000       4.622646       125.7886 
 429   0.0000       4.632922       126.0682 
 430   0.0000       4.659408       126.7889 
 431   0.0000       4.694261       127.7373 
 432   0.0000       4.705671       128.0478 
 433   0.0000       4.759609       129.5155 
 434   0.0000       4.763829       129.6304 
 435   0.0000       4.796431       130.5175 
 436   0.0000       4.822999       131.2405 
 437   0.0000       4.856083       132.1407 
 438   0.0000       4.864246       132.3629 
 439   0.0000       4.877134       132.7135 
 440   0.0000       4.934258       134.2680 
 441   0.0000       4.958209       134.9197 
 442   0.0000       5.010053       136.3305 
 443   0.0000       5.028900       136.8433 
 444   0.0000       5.078230       138.1857 
 445   0.0000       5.115587       139.2022 
 446   0.0000       5.119755       139.3156 
 447   0.0000       5.134199       139.7087 
 448   0.0000       5.153729       140.2401 
 449   0.0000       5.161093       140.4405 
 450   0.0000       5.167723       140.6209 
 451   0.0000       5.178922       140.9256 
 452   0.0000       5.204963       141.6343 
 453   0.0000       5.308404       144.4490 
 454   0.0000       5.323513       144.8601 
 455   0.0000       5.337864       145.2507 
 456   0.0000       5.364400       145.9727 
 457   0.0000       5.407722       147.1516 
 458   0.0000       5.430220       147.7638 
 459   0.0000       5.447125       148.2238 
 460   0.0000       5.464916       148.7079 
 461   0.0000       5.534522       150.6020 
 462   0.0000       5.552025       151.0783 
 463   0.0000       5.584092       151.9509 
 464   0.0000       5.639049       153.4463 
 465   0.0000       5.798619       157.7884 
 466   0.0000       6.025087       163.9510 
 467   0.0000       6.297475       171.3630 
 468   0.0000       6.375865       173.4961 
 469   0.0000       6.406590       174.3322 
 470   0.0000       6.432773       175.0447 
 471   0.0000       6.579574       179.0393 
 472   0.0000       6.657594       181.1623 
 473   0.0000       6.673843       181.6045 
 474   0.0000       6.734430       183.2532 
 475   0.0000       6.755424       183.8244 
 476   0.0000       6.813061       185.3928 
 477   0.0000       6.817451       185.5123 
 478   0.0000       6.828837       185.8221 
 479   0.0000       6.853565       186.4950 
 480   0.0000       6.897542       187.6917 
 481   0.0000       6.961726       189.4382 
 482   0.0000       6.992974       190.2885 
 483   0.0000       7.047765       191.7794 
 484   0.0000       8.218011       223.6235 
 485   0.0000       8.227172       223.8727 
 486   0.0000       8.593205       233.8330 
 487   0.0000       8.617761       234.5012 
 488   0.0000       8.688563       236.4278 
 489   0.0000       9.334333       254.0001 
 490   0.0000       9.517090       258.9732 
 491   0.0000       9.730653       264.7845 
 492   0.0000      22.102304       601.4343 
 493   0.0000      22.460619       611.1845 
 494   0.0000      22.506351       612.4290 
 495   0.0000      22.511291       612.5634 
 496   0.0000      22.525361       612.9462 
 497   0.0000      22.552024       613.6718 
 498   0.0000      22.583189       614.5198 
 499   0.0000      22.716035       618.1347 
 500   0.0000      23.310630       634.3145 
 501   0.0000      32.183194       875.7492 
 502   0.0000      43.663619      1188.1475 
 503   0.0000      43.700812      1189.1596 
 504   0.0000      57.069889      1552.9506 

                    ********************************
                    * MULLIKEN POPULATION ANALYSIS *
                    ********************************

-----------------------
MULLIKEN ATOMIC CHARGES
-----------------------
   0 C :   -0.199755
   1 C :   -0.131410
   2 C :   -0.293248
   3 H :    0.161086
   4 H :    0.141638
   5 S :    0.905627
   6 C :    0.173448
   7 C :   -0.402471
   8 N :   -0.371160
   9 H :    0.200759
  10 H :    0.219898
  11 H :    0.063187
  12 H :    0.104900
  13 O :   -0.454783
  14 F :   -0.101553
  15 C :   -0.202761
  16 C :   -0.195876
  17 H :    0.109721
  18 H :    0.105857
  19 C :   -0.133709
  20 H :    0.101463
  21 H :    0.078185
  22 O :   -0.450433
  23 H :    0.120064
  24 H :    0.076102
  25 H :    0.091489
  26 H :    0.088843
  27 H :    0.081967
  28 H :    0.112926
Sum of atomic charges:   -0.0000000

--------------------------------
MULLIKEN REDUCED ORBITAL CHARGES
--------------------------------
  0 C s       :     3.240382  s :     3.240382
      pz      :     0.933061  p :     2.874013
      px      :     1.010407
      py      :     0.930545
      dz2     :     0.013031  d :     0.079687
      dxz     :     0.010563
      dyz     :     0.025418
      dx2y2   :     0.008709
      dxy     :     0.021966
      f0      :     0.000956  f :     0.005674
      f+1     :     0.001007
      f-1     :     0.000916
      f+2     :     0.000734
      f-2     :     0.000372
      f+3     :     0.000723
      f-3     :     0.000966
  1 C s       :     3.195006  s :     3.195006
      pz      :     0.889062  p :     2.835491
      px      :     0.951688
      py      :     0.994742
      dz2     :     0.031707  d :     0.095010
      dxz     :     0.022681
      dyz     :     0.013358
      dx2y2   :     0.018852
      dxy     :     0.008412
      f0      :     0.001204  f :     0.005902
      f+1     :     0.001161
      f-1     :     0.000619
      f+2     :     0.001259
      f-2     :     0.000963
      f+3     :     0.000105
      f-3     :     0.000592
  2 C s       :     3.261700  s :     3.261700
      pz      :     1.016378  p :     2.944308
      px      :     1.033487
      py      :     0.894443
      dz2     :     0.021345  d :     0.082291
      dxz     :     0.006721
      dyz     :     0.020058
      dx2y2   :     0.015837
      dxy     :     0.018330
      f0      :     0.000650  f :     0.004949
      f+1     :     0.001029
      f-1     :     0.000293
      f+2     :     0.000775
      f-2     :     0.000998
      f+3     :     0.000543
      f-3     :     0.000662
  3 H s       :     0.816018  s :     0.816018
      pz      :     0.005240  p :     0.022896
      px      :     0.011084
      py      :     0.006572
  4 H s       :     0.835773  s :     0.835773
      pz      :     0.009841  p :     0.022589
      px      :     0.005836
      py      :     0.006912
  5 S s       :     5.376479  s :     5.376479
      pz      :     2.723567  p :     8.511140
      px      :     2.836624
      py      :     2.950949
      dz2     :     0.235483  d :     1.084374
      dxz     :     0.216024
      dyz     :     0.160623
      dx2y2   :     0.247503
      dxy     :     0.224742
      f0      :     0.015778  f :     0.122380
      f+1     :     0.032357
      f-1     :     0.019316
      f+2     :     0.012002
      f-2     :     0.014901
      f+3     :     0.013506
      f-3     :     0.014519
  6 C s       :     3.134253  s :     3.134253
      pz      :     0.799872  p :     2.511408
      px      :     0.890540
      py      :     0.820997
      dz2     :     0.030055  d :     0.166341
      dxz     :     0.040465
      dyz     :     0.020193
      dx2y2   :     0.048966
      dxy     :     0.026662
      f0      :     0.002012  f :     0.014550
      f+1     :     0.002636
      f-1     :     0.001791
      f+2     :     0.002870
      f-2     :     0.002107
      f+3     :     0.001862
      f-3     :     0.001272
  7 C s       :     3.278557  s :     3.278557
      pz      :     1.006085  p :     3.079675
      px      :     0.957582
      py      :     1.116007
      dz2     :     0.007041  d :     0.039410
      dxz     :     0.009695
      dyz     :     0.003366
      dx2y2   :     0.007311
      dxy     :     0.011998
      f0      :     0.000899  f :     0.004829
      f+1     :     0.000519
      f-1     :     0.000302
      f+2     :     0.000275
      f-2     :     0.000805
      f+3     :     0.001425
      f-3     :     0.000604
  8 N s       :     3.425869  s :     3.425869
      pz      :     1.138009  p :     3.904740
      px      :     1.168332
      py      :     1.598399
      dz2     :     0.013415  d :     0.037224
      dxz     :     0.003573
      dyz     :     0.004524
      dx2y2   :     0.010640
      dxy     :     0.005071
      f0      :     0.000701  f :     0.003327
      f+1     :     0.000409
      f-1     :     0.000409
      f+2     :     0.000459
      f-2     :     0.000278
      f+3     :     0.000627
      f-3     :     0.000444
  9 H s       :     0.761790  s :     0.761790
      pz      :     0.006070  p :     0.037451
      px      :     0.018793
      py      :     0.012587
 10 H s       :     0.739827  s :     0.739827
      pz      :     0.021851  p :     0.040275
      px      :     0.007189
      py      :     0.011235
 11 H s       :     0.911445  s :     0.911445
      pz      :     0.007451  p :     0.025368
      px      :     0.008292
      py      :     0.009625
 12 H s       :     0.866455  s :     0.866455
      pz      :     0.014996  p :     0.028645
      px      :     0.006702
      py      :     0.006947
 13 O s       :     3.866151  s :     3.866151
      pz      :     1.519168  p :     4.553374
      px      :     1.365379
      py      :     1.668826
      dz2     :     0.005199  d :     0.033365
      dxz     :     0.010237
      dyz     :     0.002497
      dx2y2   :     0.007798
      dxy     :     0.007633
      f0      :     0.000159  f :     0.001893
      f+1     :     0.000431
      f-1     :     0.000028
      f+2     :     0.000377
      f-2     :     0.000257
      f+3     :     0.000322
      f-3     :     0.000319
 14 F s       :     3.901298  s :     3.901298
      pz      :     1.500117  p :     5.177371
      px      :     1.842156
      py      :     1.835098
      dz2     :     0.009477  d :     0.021931
      dxz     :     0.005900
      dyz     :     0.005957
      dx2y2   :     0.000283
      dxy     :     0.000314
      f0      :     0.000406  f :     0.000952
      f+1     :     0.000249
      f-1     :     0.000254
      f+2     :     0.000020
      f-2     :     0.000022
      f+3     :     0.000001
      f-3     :     0.000001
 15 C s       :     3.242476  s :     3.242476
      pz      :     0.956456  p :     2.865518
      px      :     1.014173
      py      :     0.894889
      dz2     :     0.017090  d :     0.089024
      dxz     :     0.016774
      dyz     :     0.019902
      dx2y2   :     0.016470
      dxy     :     0.018789
      f0      :     0.000866  f :     0.005743
      f+1     :     0.000716
      f-1     :     0.000883
      f+2     :     0.001343
      f-2     :     0.000411
      f+3     :     0.000789
      f-3     :     0.000733
 16 C s       :     3.237332  s :     3.237332
      pz      :     0.927364  p :     2.865360
      px      :     0.944993
      py      :     0.993003
      dz2     :     0.017002  d :     0.087465
      dxz     :     0.027217
      dyz     :     0.011169
      dx2y2   :     0.022274
      dxy     :     0.009804
      f0      :     0.000749  f :     0.005719
      f+1     :     0.001088
      f-1     :     0.000639
      f+2     :     0.001396
      f-2     :     0.000617
      f+3     :     0.000483
      f-3     :     0.000747
 17 H s       :     0.868307  s :     0.868307
      pz      :     0.005236  p :     0.021972
      px      :     0.011125
      py      :     0.005611
 18 H s       :     0.872539  s :     0.872539
      pz      :     0.004671  p :     0.021603
      px      :     0.004726
      py      :     0.012206
 19 C s       :     3.189054  s :     3.189054
      pz      :     0.970022  p :     2.850234
      px      :     0.930925
      py      :     0.949287
      dz2     :     0.018275  d :     0.088651
      dxz     :     0.029525
      dyz     :     0.009581
      dx2y2   :     0.021808
      dxy     :     0.009462
      f0      :     0.000671  f :     0.005771
      f+1     :     0.001122
      f-1     :     0.000545
      f+2     :     0.001506
      f-2     :     0.000681
      f+3     :     0.000529
      f-3     :     0.000715
 20 H s       :     0.876778  s :     0.876778
      pz      :     0.005584  p :     0.021759
      px      :     0.010853
      py      :     0.005322
 21 H s       :     0.900167  s :     0.900167
      pz      :     0.009381  p :     0.021648
      px      :     0.007565
      py      :     0.004702
 22 O s       :     3.858363  s :     3.858363
      pz      :     1.554672  p :     4.555834
      px      :     1.506024
      py      :     1.495137
      dz2     :     0.004549  d :     0.034278
      dxz     :     0.005983
      dyz     :     0.005923
      dx2y2   :     0.008885
      dxy     :     0.008939
      f0      :     0.000168  f :     0.001958
      f+1     :     0.000210
      f-1     :     0.000203
      f+2     :     0.000164
      f-2     :     0.000394
      f+3     :     0.000402
      f-3     :     0.000417
 23 H s       :     0.856641  s :     0.856641
      pz      :     0.008552  p :     0.023295
      px      :     0.009786
      py      :     0.004957
 24 H s       :     0.902313  s :     0.902313
      pz      :     0.004992  p :     0.021586
      px      :     0.004349
      py      :     0.012244
 25 H s       :     0.885314  s :     0.885314
      pz      :     0.004976  p :     0.023197
      px      :     0.004514
      py      :     0.013707
 26 H s       :     0.889622  s :     0.889622
      pz      :     0.008150  p :     0.021534
      px      :     0.008937
      py      :     0.004448
 27 H s       :     0.896105  s :     0.896105
      pz      :     0.004785  p :     0.021928
      px      :     0.010970
      py      :     0.006173
 28 H s       :     0.865095  s :     0.865095
      pz      :     0.008719  p :     0.021979
      px      :     0.007282
      py      :     0.005978


                     *******************************
                     * LOEWDIN POPULATION ANALYSIS *
                     *******************************

----------------------
LOEWDIN ATOMIC CHARGES
----------------------
   0 C :   -0.212563
   1 C :   -0.271235
   2 C :   -0.362714
   3 H :    0.144867
   4 H :    0.135306
   5 S :    0.554952
   6 C :   -0.383596
   7 C :   -0.288221
   8 N :    0.023986
   9 H :    0.156634
  10 H :    0.160688
  11 H :    0.098443
  12 H :    0.098563
  13 O :   -0.283359
  14 F :    0.105554
  15 C :   -0.247090
  16 C :   -0.263224
  17 H :    0.142804
  18 H :    0.145799
  19 C :   -0.264735
  20 H :    0.135898
  21 H :    0.130165
  22 O :   -0.277563
  23 H :    0.140752
  24 H :    0.130717
  25 H :    0.134954
  26 H :    0.136189
  27 H :    0.130879
  28 H :    0.147149

-------------------------------
LOEWDIN REDUCED ORBITAL CHARGES
-------------------------------
  0 C s       :     2.768127  s :     2.768127
      pz      :     1.012526  p :     3.027941
      px      :     1.013420
      py      :     1.001996
      dz2     :     0.078657  d :     0.377575
      dxz     :     0.063271
      dyz     :     0.090487
      dx2y2   :     0.061783
      dxy     :     0.083377
      f0      :     0.006162  f :     0.038919
      f+1     :     0.005521
      f-1     :     0.006933
      f+2     :     0.005392
      f-2     :     0.004920
      f+3     :     0.004567
      f-3     :     0.005424
  1 C s       :     2.782280  s :     2.782280
      pz      :     1.011528  p :     3.049732
      px      :     1.008750
      py      :     1.029455
      dz2     :     0.107283  d :     0.400653
      dxz     :     0.103314
      dyz     :     0.065482
      dx2y2   :     0.083328
      dxy     :     0.041245
      f0      :     0.009010  f :     0.038569
      f+1     :     0.005998
      f-1     :     0.004932
      f+2     :     0.005766
      f-2     :     0.006493
      f+3     :     0.002084
      f-3     :     0.004286
  2 C s       :     2.850146  s :     2.850146
      pz      :     1.057062  p :     3.123392
      px      :     1.077590
      py      :     0.988740
      dz2     :     0.072529  d :     0.357541
      dxz     :     0.058139
      dyz     :     0.083205
      dx2y2   :     0.066063
      dxy     :     0.077606
      f0      :     0.005044  f :     0.031635
      f+1     :     0.005002
      f-1     :     0.003736
      f+2     :     0.004042
      f-2     :     0.005519
      f+3     :     0.003721
      f-3     :     0.004570
  3 H s       :     0.791077  s :     0.791077
      pz      :     0.015265  p :     0.064056
      px      :     0.030381
      py      :     0.018410
  4 H s       :     0.801232  s :     0.801232
      pz      :     0.026418  p :     0.063462
      px      :     0.018107
      py      :     0.018936
  5 S s       :     4.767591  s :     4.767591
      pz      :     2.765556  p :     8.558277
      px      :     2.873828
      py      :     2.918893
      dz2     :     0.418222  d :     1.742139
      dxz     :     0.346969
      dyz     :     0.256896
      dx2y2   :     0.371619
      dxy     :     0.348433
      f0      :     0.063080  f :     0.377041
      f+1     :     0.089037
      f-1     :     0.054913
      f+2     :     0.038275
      f-2     :     0.046439
      f+3     :     0.041083
      f-3     :     0.044214
  6 C s       :     2.708503  s :     2.708503
      pz      :     0.955545  p :     2.858466
      px      :     1.036349
      py      :     0.866572
      dz2     :     0.142988  d :     0.721329
      dxz     :     0.183353
      dyz     :     0.104189
      dx2y2   :     0.164169
      dxy     :     0.126629
      f0      :     0.013229  f :     0.095298
      f+1     :     0.018276
      f-1     :     0.012220
      f+2     :     0.020860
      f-2     :     0.011882
      f+3     :     0.007948
      f-3     :     0.010884
  7 C s       :     2.808960  s :     2.808960
      pz      :     1.032787  p :     3.209713
      px      :     1.096469
      py      :     1.080458
      dz2     :     0.053643  d :     0.237502
      dxz     :     0.073479
      dyz     :     0.029646
      dx2y2   :     0.038072
      dxy     :     0.042662
      f0      :     0.005453  f :     0.032046
      f+1     :     0.005256
      f-1     :     0.001598
      f+2     :     0.004450
      f-2     :     0.004330
      f+3     :     0.005671
      f-3     :     0.005289
  8 N s       :     2.966447  s :     2.966447
      pz      :     1.171287  p :     3.825920
      px      :     1.183206
      py      :     1.471427
      dz2     :     0.066003  d :     0.170610
      dxz     :     0.023635
      dyz     :     0.020783
      dx2y2   :     0.038633
      dxy     :     0.021557
      f0      :     0.001838  f :     0.013037
      f+1     :     0.001812
      f-1     :     0.001857
      f+2     :     0.002478
      f-2     :     0.002026
      f+3     :     0.001778
      f-3     :     0.001248
  9 H s       :     0.736956  s :     0.736956
      pz      :     0.018898  p :     0.106410
      px      :     0.053268
      py      :     0.034244
 10 H s       :     0.726198  s :     0.726198
      pz      :     0.059734  p :     0.113114
      px      :     0.021053
      py      :     0.032327
 11 H s       :     0.825950  s :     0.825950
      pz      :     0.024618  p :     0.075607
      px      :     0.022228
      py      :     0.028761
 12 H s       :     0.815896  s :     0.815896
      pz      :     0.042728  p :     0.085541
      px      :     0.020477
      py      :     0.022336
 13 O s       :     3.572387  s :     3.572387
      pz      :     1.517557  p :     4.638368
      px      :     1.507727
      py      :     1.613083
      dz2     :     0.007564  d :     0.068314
      dxz     :     0.024802
      dyz     :     0.003984
      dx2y2   :     0.019694
      dxy     :     0.012270
      f0      :     0.000543  f :     0.004291
      f+1     :     0.000643
      f-1     :     0.000047
      f+2     :     0.001103
      f-2     :     0.000473
      f+3     :     0.000790
      f-3     :     0.000691
 14 F s       :     3.652433  s :     3.652433
      pz      :     1.629570  p :     5.199316
      px      :     1.789673
      py      :     1.780073
      dz2     :     0.022996  d :     0.040872
      dxz     :     0.008533
      dyz     :     0.008461
      dx2y2   :     0.000394
      dxy     :     0.000489
      f0      :     0.000909  f :     0.001825
      f+1     :     0.000420
      f-1     :     0.000406
      f+2     :     0.000038
      f-2     :     0.000050
      f+3     :     0.000001
      f-3     :     0.000001
 15 C s       :     2.781800  s :     2.781800
      pz      :     1.009323  p :     3.038461
      px      :     1.025970
      py      :     1.003168
      dz2     :     0.068780  d :     0.389477
      dxz     :     0.082874
      dyz     :     0.087771
      dx2y2   :     0.080005
      dxy     :     0.070047
      f0      :     0.006093  f :     0.037352
      f+1     :     0.003845
      f-1     :     0.005952
      f+2     :     0.006526
      f-2     :     0.004222
      f+3     :     0.005936
      f-3     :     0.004778
 16 C s       :     2.773666  s :     2.773666
      pz      :     0.999744  p :     3.053815
      px      :     1.021973
      py      :     1.032098
      dz2     :     0.074810  d :     0.396724
      dxz     :     0.119240
      dyz     :     0.055420
      dx2y2   :     0.103590
      dxy     :     0.043664
      f0      :     0.006043  f :     0.039018
      f+1     :     0.007202
      f-1     :     0.004915
      f+2     :     0.005710
      f-2     :     0.005617
      f+3     :     0.003943
      f-3     :     0.005587
 17 H s       :     0.798017  s :     0.798017
      pz      :     0.014892  p :     0.059179
      px      :     0.027703
      py      :     0.016584
 18 H s       :     0.795710  s :     0.795710
      pz      :     0.013565  p :     0.058491
      px      :     0.013201
      py      :     0.031725
 19 C s       :     2.773685  s :     2.773685
      pz      :     1.019813  p :     3.052330
      px      :     1.021955
      py      :     1.010562
      dz2     :     0.073736  d :     0.399975
      dxz     :     0.121770
      dyz     :     0.057137
      dx2y2   :     0.103466
      dxy     :     0.043865
      f0      :     0.005970  f :     0.038746
      f+1     :     0.007164
      f-1     :     0.004433
      f+2     :     0.005891
      f-2     :     0.005228
      f+3     :     0.004242
      f-3     :     0.005819
 20 H s       :     0.805606  s :     0.805606
      pz      :     0.014668  p :     0.058496
      px      :     0.028967
      py      :     0.014861
 21 H s       :     0.811136  s :     0.811136
      pz      :     0.023567  p :     0.058699
      px      :     0.021778
      py      :     0.013354
 22 O s       :     3.570328  s :     3.570328
      pz      :     1.534963  p :     4.635414
      px      :     1.560990
      py      :     1.539461
      dz2     :     0.008483  d :     0.067310
      dxz     :     0.010986
      dyz     :     0.010592
      dx2y2   :     0.012281
      dxy     :     0.024967
      f0      :     0.000517  f :     0.004511
      f+1     :     0.000372
      f-1     :     0.000370
      f+2     :     0.000237
      f-2     :     0.001069
      f+3     :     0.000971
      f-3     :     0.000974
 23 H s       :     0.796486  s :     0.796486
      pz      :     0.023410  p :     0.062761
      px      :     0.025313
      py      :     0.014038
 24 H s       :     0.810877  s :     0.810877
      pz      :     0.014875  p :     0.058406
      px      :     0.013247
      py      :     0.030284
 25 H s       :     0.802110  s :     0.802110
      pz      :     0.014487  p :     0.062935
      px      :     0.013225
      py      :     0.035224
 26 H s       :     0.805685  s :     0.805685
      pz      :     0.021066  p :     0.058126
      px      :     0.023110
      py      :     0.013950
 27 H s       :     0.810566  s :     0.810566
      pz      :     0.013188  p :     0.058556
      px      :     0.028880
      py      :     0.016488
 28 H s       :     0.794096  s :     0.794096
      pz      :     0.022451  p :     0.058755
      px      :     0.020560
      py      :     0.015744


                      *****************************
                      * MAYER POPULATION ANALYSIS *
                      *****************************

  NA   - Mulliken gross atomic population
  ZA   - Total nuclear charge
  QA   - Mulliken gross atomic charge
  VA   - Mayer's total valence
  BVA  - Mayer's bonded valence
  FA   - Mayer's free valence

  ATOM       NA         ZA         QA         VA         BVA        FA
  0 C      6.1998     6.0000    -0.1998     3.8360     3.8360    -0.0000
  1 C      6.1314     6.0000    -0.1314     3.8495     3.8495    -0.0000
  2 C      6.2932     6.0000    -0.2932     3.8833     3.8833     0.0000
  3 H      0.8389     1.0000     0.1611     0.9667     0.9667    -0.0000
  4 H      0.8584     1.0000     0.1416     0.9595     0.9595    -0.0000
  5 S     15.0944    16.0000     0.9056     5.7897     5.7897    -0.0000
  6 C      5.8266     6.0000     0.1734     3.7977     3.7977    -0.0000
  7 C      6.4025     6.0000    -0.4025     3.7941     3.7941    -0.0000
  8 N      7.3712     7.0000    -0.3712     3.1636     3.1636     0.0000
  9 H      0.7992     1.0000     0.2008     0.9716     0.9716     0.0000
 10 H      0.7801     1.0000     0.2199     0.9911     0.9911     0.0000
 11 H      0.9368     1.0000     0.0632     0.9935     0.9935     0.0000
 12 H      0.8951     1.0000     0.1049     1.0251     1.0251    -0.0000
 13 O      8.4548     8.0000    -0.4548     1.9572     1.9572    -0.0000
 14 F      9.1016     9.0000    -0.1016     1.2297     1.2297     0.0000
 15 C      6.2028     6.0000    -0.2028     3.9340     3.9340    -0.0000
 16 C      6.1959     6.0000    -0.1959     3.8039     3.8039     0.0000
 17 H      0.8903     1.0000     0.1097     0.9784     0.9784    -0.0000
 18 H      0.8941     1.0000     0.1059     0.9659     0.9659    -0.0000
 19 C      6.1337     6.0000    -0.1337     3.7700     3.7700     0.0000
 20 H      0.8985     1.0000     0.1015     0.9649     0.9649    -0.0000
 21 H      0.9218     1.0000     0.0782     0.9725     0.9725    -0.0000
 22 O      8.4504     8.0000    -0.4504     2.0021     2.0021     0.0000
 23 H      0.8799     1.0000     0.1201     0.9959     0.9959     0.0000
 24 H      0.9239     1.0000     0.0761     0.9617     0.9617     0.0000
 25 H      0.9085     1.0000     0.0915     1.0191     1.0191    -0.0000
 26 H      0.9112     1.0000     0.0888     0.9690     0.9690    -0.0000
 27 H      0.9180     1.0000     0.0820     0.9732     0.9732    -0.0000
 28 H      0.8871     1.0000     0.1129     0.9715     0.9715     0.0000

  Mayer bond orders larger than 0.100000
B(  0-C ,  6-C ) :   0.9327 B(  0-C , 15-C ) :   0.9549 B(  0-C , 27-H ) :   0.9738 
B(  0-C , 28-H ) :   0.9787 B(  1-C ,  2-C ) :   0.9561 B(  1-C , 16-C ) :   0.9772 
B(  1-C , 17-H ) :   0.9679 B(  1-C , 18-H ) :   0.9499 B(  2-C ,  3-H ) :   0.9418 
B(  2-C ,  4-H ) :   0.9446 B(  2-C ,  5-S ) :   0.9072 B(  5-S , 13-O ) :   1.8137 
B(  5-S , 14-F ) :   1.1469 B(  5-S , 22-O ) :   1.8555 B(  6-C ,  7-C ) :   1.6936 
B(  6-C ,  8-N ) :   1.2067 B(  7-C , 11-H ) :   1.0071 B(  7-C , 12-H ) :   0.9953 
B(  8-N ,  9-H ) :   0.9300 B(  8-N , 10-H ) :   0.9136 B( 15-C , 19-C ) :   0.9808 
B( 15-C , 20-H ) :   0.9709 B( 15-C , 21-H ) :   0.9667 B( 16-C , 19-C ) :   0.9347 
B( 16-C , 25-H ) :   0.9646 B( 16-C , 26-H ) :   0.9629 B( 19-C , 23-H ) :   0.9636 
B( 19-C , 24-H ) :   0.9610 

-------
TIMINGS
-------

Total SCF time: 0 days 0 hours 0 min 53 sec 

Total time                  ....      53.715 sec
Sum of individual times     ....      52.553 sec  ( 97.8%)

Fock matrix formation       ....      48.324 sec  ( 90.0%)
  Split-RI-J                ....       5.294 sec  ( 11.0% of F)
  Chain of spheres X        ....      35.281 sec  ( 73.0% of F)
  XC integration            ....       5.341 sec  ( 11.1% of F)
    Basis function eval.    ....       1.301 sec  ( 24.4% of XC)
    Density eval.           ....       1.477 sec  ( 27.6% of XC)
    XC-Functional eval.     ....       0.122 sec  (  2.3% of XC)
    XC-Potential eval.      ....       1.336 sec  ( 25.0% of XC)
Diagonalization             ....       0.658 sec  (  1.2%)
Density matrix formation    ....       0.057 sec  (  0.1%)
Population analysis         ....       0.079 sec  (  0.1%)
Initial guess               ....       0.547 sec  (  1.0%)
Orbital Transformation      ....       0.000 sec  (  0.0%)
Orbital Orthonormalization  ....       0.000 sec  (  0.0%)
DIIS solution               ....       0.362 sec  (  0.7%)
SOSCF solution              ....       0.616 sec  (  1.1%)
Grid generation             ....       1.909 sec  (  3.6%)

Maximum memory used throughout the entire SCF-calculation: 107.9 MB


-------------------------------------------------------------------------------
                          DFT DISPERSION CORRECTION                            
                                                                               
                              DFTD3 V3.1  Rev 1                                
                          USING Becke-Johnson damping                          
-------------------------------------------------------------------------------
The B3LYP functional is recognized
Active option DFTDOPT                   ...         4   

molecular C6(AA) [au] = 7805.575211 


            DFT-D V3
 parameters
 s6 scaling factor         :     1.0000 
 a1 scaling factor         :     0.3981 
 s8 scaling factor         :     1.9889 
 a2 scaling factor         :     4.4211 
 ad hoc parameters k1-k3   :    16.0000     1.3333    -4.0000 

 Edisp/kcal,au: -38.289217070442  -0.061017744861 
 E6   /kcal   : -18.436931704 
 E8   /kcal   : -19.852285367 
 % E8         :  51.848240538 

-------------------------   ----------------
Dispersion correction           -0.061017745
-------------------------   ----------------


-------------------------   --------------------
FINAL SINGLE POINT ENERGY     -1017.547279058967
-------------------------   --------------------


                            ***************************************
                            *     ORCA property calculations      *
                            ***************************************

                                    ---------------------
                                    Active property flags
                                    ---------------------
   (+) Dipole Moment


------------------------------------------------------------------------------
                       ORCA ELECTRIC PROPERTIES CALCULATION
------------------------------------------------------------------------------

Dipole Moment Calculation                       ... on
Quadrupole Moment Calculation                   ... off
Polarizability Calculation                      ... off
GBWName                                         ... B3LYP_D3_wb97.gbw
Electron density file                           ... B3LYP_D3_wb97.scfp
The origin for moment calculation is the CENTER OF MASS  = ( 4.575368, -0.452764 -8.440675)

-------------
DIPOLE MOMENT
-------------
                                X             Y             Z
Electronic contribution:      0.05396      -4.18922     -22.54976
Nuclear contribution   :     -1.50273       5.82595      21.72909
                        -----------------------------------------
Total Dipole Moment    :     -1.44876       1.63673      -0.82067
                        -----------------------------------------
Magnitude (a.u.)       :      2.33480
Magnitude (Debye)      :      5.93459



--------------------
Rotational spectrum 
--------------------
 
Rotational constants in cm-1:     0.036883     0.018294     0.014745 
Rotational constants in MHz :  1105.724679   548.429785   442.050481 

 Dipole components along the rotational axes: 
x,y,z [a.u.] :    -1.310962     1.931156     0.057581 
x,y,z [Debye]:    -3.332200     4.908608     0.146358 

 

Timings for individual modules:

Sum of individual times         ...       55.488 sec (=   0.925 min)
GTO integral calculation        ...        1.291 sec (=   0.022 min)   2.3 %
SCF iterations                  ...       54.197 sec (=   0.903 min)  97.7 %
                             ****ORCA TERMINATED NORMALLY****
TOTAL RUN TIME: 0 days 0 hours 0 minutes 56 seconds 197 msec
