
                                        *****************
                                        * O   R   C   A *
                                        *****************

                                            #,                                       
                                            ###                                      
                                            ####                                     
                                            #####                                    
                                            ######                                   
                                           ########,                                 
                                     ,,################,,,,,                         
                               ,,#################################,,                 
                          ,,##########################################,,             
                       ,#########################################, ''#####,          
                    ,#############################################,,   '####,        
                  ,##################################################,,,,####,       
                ,###########''''           ''''###############################       
              ,#####''   ,,,,##########,,,,          '''####'''          '####       
            ,##' ,,,,###########################,,,                        '##       
           ' ,,###''''                  '''############,,,                           
         ,,##''                                '''############,,,,        ,,,,,,###''
      ,#''                                            '''#######################'''  
     '                                                          ''''####''''         
             ,#######,   #######,   ,#######,      ##                                
            ,#'     '#,  ##    ##  ,#'     '#,    #''#        ######   ,####,        
            ##       ##  ##   ,#'  ##            #'  '#       #        #'  '#        
            ##       ##  #######   ##           ,######,      #####,   #    #        
            '#,     ,#'  ##    ##  '#,     ,#' ,#      #,         ##   #,  ,#        
             '#######'   ##     ##  '#######'  #'      '#     #####' # '####'        



                  #######################################################
                  #                        -***-                        #
                  #          Department of theory and spectroscopy      #
                  #    Directorship and core code : Frank Neese         #
                  #        Max Planck Institute fuer Kohlenforschung    #
                  #                Kaiser Wilhelm Platz 1               #
                  #                 D-45470 Muelheim/Ruhr               #
                  #                      Germany                        #
                  #                                                     #
                  #                  All rights reserved                #
                  #                        -***-                        #
                  #######################################################


                         Program Version 5.0.0 -  RELEASE  -
                                (SVN: $Rev: 19529$)
                ($Date: 2021-06-28 11:36:33 +0200 (Mo, 28 Jun 2021) $)


 With contributions from (in alphabetic order):
   Daniel Aravena         : Magnetic Suceptibility
   Michael Atanasov       : Ab Initio Ligand Field Theory (pilot matlab implementation)
   Alexander A. Auer      : GIAO ZORA, VPT2 properties, NMR spectrum
   Ute Becker             : Parallelization
   Giovanni Bistoni       : ED, misc. LED, open-shell LED, HFLD
   Martin Brehm           : Molecular dynamics
   Dmytro Bykov           : SCF Hessian
   Vijay G. Chilkuri      : MRCI spin determinant printing, contributions to CSF-ICE
   Dipayan Datta          : RHF DLPNO-CCSD density
   Achintya Kumar Dutta   : EOM-CC, STEOM-CC
   Dmitry Ganyushin       : Spin-Orbit,Spin-Spin,Magnetic field MRCI
   Miquel Garcia          : C-PCM Hessian, Gaussian charge scheme
   Yang Guo               : DLPNO-NEVPT2, F12-NEVPT2, CIM, IAO-localization
   Andreas Hansen         : Spin unrestricted coupled pair/coupled cluster methods
   Benjamin Helmich-Paris : MC-RPA, TRAH-SCF, COSX integrals
   Lee Huntington         : MR-EOM, pCC
   Robert Izsak           : Overlap fitted RIJCOSX, COSX-SCS-MP3, EOM
   Marcus Kettner         : VPT2
   Christian Kollmar      : KDIIS, OOCD, Brueckner-CCSD(T), CCSD density, CASPT2, CASPT2-K
   Simone Kossmann        : Meta GGA functionals, TD-DFT gradient, OOMP2, MP2 Hessian
   Martin Krupicka        : Initial AUTO-CI
   Lucas Lang             : DCDCAS
   Marvin Lechner         : AUTO-CI (C++ implementation), FIC-MRCC
   Dagmar Lenk            : GEPOL surface, SMD
   Dimitrios Liakos       : Extrapolation schemes; Compound Job, initial MDCI parallelization
   Dimitrios Manganas     : Further ROCIS development; embedding schemes
   Dimitrios Pantazis     : SARC Basis sets
   Anastasios Papadopoulos: AUTO-CI, single reference methods and gradients
   Taras Petrenko         : DFT Hessian,TD-DFT gradient, ASA, ECA, R-Raman, ABS, FL, XAS/XES, NRVS
   Peter Pinski           : DLPNO-MP2, DLPNO-MP2 Gradient
   Christoph Reimann      : Effective Core Potentials
   Marius Retegan         : Local ZFS, SOC
   Christoph Riplinger    : Optimizer, TS searches, QM/MM, DLPNO-CCSD(T), (RO)-DLPNO pert. Triples
   Tobias Risthaus        : Range-separated hybrids, TD-DFT gradient, RPA, STAB
   Michael Roemelt        : Original ROCIS implementation
   Masaaki Saitow         : Open-shell DLPNO-CCSD energy and density
   Barbara Sandhoefer     : DKH picture change effects
   Avijit Sen             : IP-ROCIS
   Kantharuban Sivalingam : CASSCF convergence, NEVPT2, FIC-MRCI
   Bernardo de Souza      : ESD, SOC TD-DFT
   Georgi Stoychev        : AutoAux, RI-MP2 NMR
   Willem Van den Heuvel  : Paramagnetic NMR
   Boris Wezisla          : Elementary symmetry handling
   Frank Wennmohs         : Technical directorship


 We gratefully acknowledge several colleagues who have allowed us to
 interface, adapt or use parts of their codes:
   Stefan Grimme, W. Hujo, H. Kruse, P. Pracht,  : VdW corrections, initial TS optimization,
                  C. Bannwarth, S. Ehlert          DFT functionals, gCP, sTDA/sTD-DF
   Ed Valeev, F. Pavosevic, A. Kumar             : LibInt (2-el integral package), F12 methods
   Garnet Chan, S. Sharma, J. Yang, R. Olivares  : DMRG
   Ulf Ekstrom                                   : XCFun DFT Library
   Mihaly Kallay                                 : mrcc  (arbitrary order and MRCC methods)
   Jiri Pittner, Ondrej Demel                    : Mk-CCSD
   Frank Weinhold                                : gennbo (NPA and NBO analysis)
   Christopher J. Cramer and Donald G. Truhlar   : smd solvation model
   Lars Goerigk                                  : TD-DFT with DH, B97 family of functionals
   V. Asgeirsson, H. Jonsson                     : NEB implementation
   FAccTs GmbH                                   : IRC, NEB, NEB-TS, DLPNO-Multilevel, CI-OPT
                                                   MM, QMMM, 2- and 3-layer-ONIOM, Crystal-QMMM,
                                                   LR-CPCM, SF, NACMEs, symmetry and pop. for TD-DFT,
                                                   nearIR, NL-DFT gradient (VV10), updates on ESD,
                                                   ML-optimized integration grids
   S Lehtola, MJT Oliveira, MAL Marques          : LibXC Library
   Liviu Ungur et al                             : ANISO software


 Your calculation uses the libint2 library for the computation of 2-el integrals
 For citations please refer to: http://libint.valeyev.net

 Your ORCA version has been built with support for libXC version: 5.1.0
 For citations please refer to: https://tddft.org/programs/libxc/

 This ORCA versions uses:
   CBLAS   interface :  Fast vector & matrix operations
   LAPACKE interface :  Fast linear algebra routines
   SCALAPACK package :  Parallel linear algebra routines
   Shared memory     :  Shared parallel matrices
   BLAS/LAPACK       :  OpenBLAS 0.3.15  USE64BITINT DYNAMIC_ARCH NO_AFFINITY Haswell SINGLE_THREADED
        Core in use  :  Haswell
   Copyright (c) 2011-2014, The OpenBLAS Project


================================================================================

----- Orbital basis set information -----
Your calculation utilizes the basis: def2-TZVP
   F. Weigend and R. Ahlrichs, Phys. Chem. Chem. Phys. 7, 3297 (2005).

----- AuxJ basis set information -----
Your calculation utilizes the auxiliary basis: def2/J
   F. Weigend, Phys. Chem. Chem. Phys. 8, 1057 (2006).

================================================================================
                                        WARNINGS
                       Please study these warnings very carefully!
================================================================================


INFO   : the flag for use of the SHARK integral package has been found!

================================================================================
                                       INPUT FILE
================================================================================
NAME = TZVP_LC_PBE_A_wt_dlpno_neg.com
|  1> !LC-PBE RIJCOSX def2-TZVP def2/J TightSCF
|  2> *xyz -1 1 
|  3> C         -5.57236       -5.80780       -0.81644
|  4> S         -6.90318       -4.61903       -0.52846
|  5> O         -8.11485       -5.25093       -0.95701
|  6> O         -6.53271       -3.42684       -1.31485
|  7> O         -6.86563       -4.29496        0.91412
|  8> C         -4.45780       -5.94187        0.22919
|  9> H         -5.17735       -5.54257       -1.79771
| 10> H         -6.07420       -6.76889       -0.92127
| 11> H         -3.75515       -6.68239       -0.09144
| 12> H         -4.88182       -6.23486        1.16689
| 13> H         -3.95908       -5.00189        0.34143
| 14> *
| 15> %MaxCore 64000
| 16> 
| 17> %pal nprocs 4
| 18> end  
| 19> 
| 20> %scf
| 21>   MaxIter 150
| 22> end
| 23> 
| 24>                          ****END OF INPUT****
================================================================================

                       ****************************
                       * Single Point Calculation *
                       ****************************

---------------------------------
CARTESIAN COORDINATES (ANGSTROEM)
---------------------------------
  C     -5.572360   -5.807800   -0.816440
  S     -6.903180   -4.619030   -0.528460
  O     -8.114850   -5.250930   -0.957010
  O     -6.532710   -3.426840   -1.314850
  O     -6.865630   -4.294960    0.914120
  C     -4.457800   -5.941870    0.229190
  H     -5.177350   -5.542570   -1.797710
  H     -6.074200   -6.768890   -0.921270
  H     -3.755150   -6.682390   -0.091440
  H     -4.881820   -6.234860    1.166890
  H     -3.959080   -5.001890    0.341430

----------------------------
CARTESIAN COORDINATES (A.U.)
----------------------------
  NO LB      ZA    FRAG     MASS         X           Y           Z
   0 C     6.0000    0    12.011  -10.530234  -10.975151   -1.542848
   1 S    16.0000    0    32.060  -13.045120   -8.728702   -0.998645
   2 O     8.0000    0    15.999  -15.334844   -9.922820   -1.808487
   3 O     8.0000    0    15.999  -12.345033   -6.475789   -2.484706
   4 O     8.0000    0    15.999  -12.974160   -8.116298    1.727436
   5 C     6.0000    0    12.011   -8.424021  -11.228507    0.433106
   6 H     1.0000    0     1.008   -9.783774  -10.473939   -3.397180
   7 H     1.0000    0     1.008  -11.478574  -12.791348   -1.740948
   8 H     1.0000    0     1.008   -7.096205  -12.627887   -0.172797
   9 H     1.0000    0     1.008   -9.225303  -11.782178    2.205103
  10 H     1.0000    0     1.008   -7.481577   -9.452202    0.645209

--------------------------------
INTERNAL COORDINATES (ANGSTROEM)
--------------------------------
 C      0   0   0     0.000000000000     0.00000000     0.00000000
 S      1   0   0     1.807536573821     0.00000000     0.00000000
 O      2   1   0     1.432165109685   106.56208582     0.00000000
 O      2   1   3     1.475457301686   105.16666730   238.45210070
 O      2   1   3     1.479009271032   106.30854122   122.18883319
 C      1   2   3     1.534131955016   118.93292281   220.05041070
 H      1   2   3     1.090536870491   104.48290251    94.52506513
 H      1   2   3     1.089278064867   104.85705990   341.96808105
 H      6   1   2     1.069995555972   109.47104647   179.99982600
 H      6   1   2     1.070008126371   109.47102823    60.00051838
 H      6   1   2     1.069991521649   109.47204847   300.00069232

---------------------------
INTERNAL COORDINATES (A.U.)
---------------------------
 C      0   0   0     0.000000000000     0.00000000     0.00000000
 S      1   0   0     3.415749101568     0.00000000     0.00000000
 O      2   1   0     2.706399835863   106.56208582     0.00000000
 O      2   1   3     2.788210222482   105.16666730   238.45210070
 O      2   1   3     2.794922471782   106.30854122   122.18883319
 C      1   2   3     2.899089248277   118.93292281   220.05041070
 H      1   2   3     2.060816024171   104.48290251    94.52506513
 H      1   2   3     2.058437226286   104.85705990   341.96808105
 H      6   1   2     2.021998565300   109.47104647   179.99982600
 H      6   1   2     2.022022319911   109.47102823    60.00051838
 H      6   1   2     2.021990941534   109.47204847   300.00069232

---------------------
BASIS SET INFORMATION
---------------------
There are 4 groups of distinct atoms

 Group   1 Type C   : 11s6p2d1f contracted to 5s3p2d1f pattern {62111/411/11/1}
 Group   2 Type S   : 14s9p3d1f contracted to 5s5p2d1f pattern {73211/51111/21/1}
 Group   3 Type O   : 11s6p2d1f contracted to 5s3p2d1f pattern {62111/411/11/1}
 Group   4 Type H   : 5s1p contracted to 3s1p pattern {311/1}

Atom   0C    basis set group =>   1
Atom   1S    basis set group =>   2
Atom   2O    basis set group =>   3
Atom   3O    basis set group =>   3
Atom   4O    basis set group =>   3
Atom   5C    basis set group =>   1
Atom   6H    basis set group =>   4
Atom   7H    basis set group =>   4
Atom   8H    basis set group =>   4
Atom   9H    basis set group =>   4
Atom  10H    basis set group =>   4
---------------------------------
AUXILIARY/J BASIS SET INFORMATION
---------------------------------
There are 4 groups of distinct atoms

 Group   1 Type C   : 12s5p4d2f1g contracted to 6s4p3d1f1g pattern {711111/2111/211/2/1}
 Group   2 Type S   : 14s5p5d2f1g contracted to 8s4p3d1f1g pattern {71111111/2111/311/2/1}
 Group   3 Type O   : 12s5p4d2f1g contracted to 6s4p3d1f1g pattern {711111/2111/211/2/1}
 Group   4 Type H   : 5s2p1d contracted to 3s1p1d pattern {311/2/1}

Atom   0C    basis set group =>   1
Atom   1S    basis set group =>   2
Atom   2O    basis set group =>   3
Atom   3O    basis set group =>   3
Atom   4O    basis set group =>   3
Atom   5C    basis set group =>   1
Atom   6H    basis set group =>   4
Atom   7H    basis set group =>   4
Atom   8H    basis set group =>   4
Atom   9H    basis set group =>   4
Atom  10H    basis set group =>   4


           ************************************************************
           *        Program running with 4 parallel MPI-processes     *
           *              working on a common directory               *
           ************************************************************
------------------------------------------------------------------------------
                           ORCA GTO INTEGRAL CALCULATION
                           -- RI-GTO INTEGRALS CHOSEN --
------------------------------------------------------------------------------
------------------------------------------------------------------------------
                   ___                                                        
                  /   \      - P O W E R E D   B Y -                         
                 /     \                                                     
                 |  |  |   _    _      __       _____    __    __             
                 |  |  |  | |  | |    /  \     |  _  \  |  |  /  |          
                  \  \/   | |  | |   /    \    | | | |  |  | /  /          
                 / \  \   | |__| |  /  /\  \   | |_| |  |  |/  /          
                |  |  |   |  __  | /  /__\  \  |    /   |      \           
                |  |  |   | |  | | |   __   |  |    \   |  |\   \          
                \     /   | |  | | |  |  |  |  | |\  \  |  | \   \       
                 \___/    |_|  |_| |__|  |__|  |_| \__\ |__|  \__/        
                                                                              
                      - O R C A' S   B I G   F R I E N D -                    
                                      &                                       
                       - I N T E G R A L  F E E D E R -                       
                                                                              
 v1 FN, 2020, v2 2021                                                         
------------------------------------------------------------------------------


Reading SHARK input file TZVP_LC_PBE_A_wt_dlpno_neg.SHARKINP.tmp ... ok
----------------------
SHARK INTEGRAL PACKAGE
----------------------

Number of atoms                             ...     11
Number of basis functions                   ...    222
Number of shells                            ...     88
Maximum angular momentum                    ...      3
Integral batch strategy                     ... SHARK/LIBINT Hybrid
RI-J (if used) integral strategy            ... SPLIT-RIJ (Revised 2003 algorithm where possible)
Printlevel                                  ...      1
Contraction scheme used                     ... SEGMENTED contraction
Coulomb Range Separation                    ... NOT USED
Exchange Range Separation                   ... Long Range
   Mu parameter                             ...  0.470000
   Scaling (regular/separated)              ...  0.000000  1.000000
Finite Nucleus Model                        ... NOT USED
Auxiliary Coulomb fitting basis             ... AVAILABLE
   # of basis functions in Aux-J            ...    351
   # of shells in Aux-J                     ...    117
   Maximum angular momentum in Aux-J        ...      4
Auxiliary J/K fitting basis                 ... NOT available
Auxiliary Correlation fitting basis         ... NOT available
Auxiliary 'external' fitting basis          ... NOT available
Integral threshold                          ...     2.500000e-11
Primitive cut-off                           ...     2.500000e-12
Primitive pair pre-selection threshold      ...     2.500000e-12

Calculating pre-screening integrals         ... done (  0.1 sec) Dimension = 88
Organizing shell pair data                  ... done (  0.0 sec)
Shell pair information
Total number of shell pairs                 ...      3916
Shell pairs after pre-screening             ...      3667
Total number of primitive shell pairs       ...     12564
Primitive shell pairs kept                  ...      8900
          la=0 lb=0:    927 shell pairs
          la=1 lb=0:   1063 shell pairs
          la=1 lb=1:    318 shell pairs
          la=2 lb=0:    498 shell pairs
          la=2 lb=1:    292 shell pairs
          la=2 lb=2:     76 shell pairs
          la=3 lb=0:    253 shell pairs
          la=3 lb=1:    147 shell pairs
          la=3 lb=2:     72 shell pairs
          la=3 lb=3:     21 shell pairs

Calculating one electron integrals          ... done (  0.0 sec)
Calculating RI/J V-Matrix + Cholesky decomp.... done (  0.0 sec)
Calculating Nuclear repulsion               ... done (  0.0 sec) ENN=    348.101115631751 Eh

SHARK setup successfully completed in   0.2 seconds

Maximum memory used throughout the entire GTOINT-calculation: 15.3 MB


           ************************************************************
           *        Program running with 4 parallel MPI-processes     *
           *              working on a common directory               *
           ************************************************************
-------------------------------------------------------------------------------
                                 ORCA SCF
-------------------------------------------------------------------------------

------------
SCF SETTINGS
------------
Hamiltonian:
 Density Functional     Method          .... DFT(GTOs)
 Exchange Functional    Exchange        .... LC-PBE
 Correlation Functional Correlation     .... PBE
   PBE beta parameter  CBetaPBE         ....  0.066725
 LDA part of GGA corr.  LDAOpt          .... PW91-LDA
 Gradients option       PostSCFGGA      .... off
   Density functional embedding theory  .... OFF
 Long-range corrected/Screened/Range-Separated Hybrid DFT is turned on
   Amount of maximum screened exact exchange              ....  1.000000
   Range separation parameter mu (erf(mu*r12)/r12)        ....  0.470000
   NL short-range parameter             ....  6.400000
 RI-approximation to the Coulomb term is turned on
   Number of AuxJ basis functions       .... 351
   RIJ-COSX (HFX calculated with COS-X)).... on


General Settings:
 Integral files         IntName         .... TZVP_LC_PBE_A_wt_dlpno_neg
 Hartree-Fock type      HFTyp           .... RHF
 Total Charge           Charge          ....   -1
 Multiplicity           Mult            ....    1
 Number of Electrons    NEL             ....   58
 Basis Dimension        Dim             ....  222
 Nuclear Repulsion      ENuc            ....    348.1011156318 Eh

Convergence Acceleration:
 DIIS                   CNVDIIS         .... on
   Start iteration      DIISMaxIt       ....    12
   Startup error        DIISStart       ....  0.200000
   # of expansion vecs  DIISMaxEq       ....     5
   Bias factor          DIISBfac        ....   1.050
   Max. coefficient     DIISMaxC        ....  10.000
 Trust-Rad. Augm. Hess. CNVTRAH         .... auto
   Auto Start mean grad. ratio tolernc. ....  1.125000
   Auto Start start iteration           ....    20
   Auto Start num. interpolation iter.  ....    10
   Max. Number of Micro iterations      ....    16
   Max. Number of Macro iterations      .... Maxiter - #DIIS iter
   Number of Davidson start vectors     ....     2
   Converg. threshold I  (grad. norm)   ....   1.000e-05
   Converg. threshold II (energy diff.) ....   1.000e-08
   Grad. Scal. Fac. for Micro threshold ....   0.100
   Minimum threshold for Micro iter.    ....   0.010
   NR start threshold (gradient norm)   ....   0.001
   Initial trust radius                 ....   0.400
   Minimum AH scaling param. (alpha)    ....   1.000
   Maximum AH scaling param. (alpha)    .... 1000.000
   Orbital update algorithm             .... Taylor
   White noise on init. David. guess    .... on
   Maximum white noise                  ....   0.010
   Quad. conv. algorithm                .... NR
 SOSCF                  CNVSOSCF        .... on
   Start iteration      SOSCFMaxIt      ....   150
   Startup grad/error   SOSCFStart      ....  0.003300
 Level Shifting         CNVShift        .... on
   Level shift para.    LevelShift      ....    0.2500
   Turn off err/grad.   ShiftErr        ....    0.0010
 Zerner damping         CNVZerner       .... off
 Static damping         CNVDamp         .... on
   Fraction old density DampFac         ....    0.7000
   Max. Damping (<1)    DampMax         ....    0.9800
   Min. Damping (>=0)   DampMin         ....    0.0000
   Turn off err/grad.   DampErr         ....    0.1000
 Fernandez-Rico         CNVRico         .... off

SCF Procedure:
 Maximum # iterations   MaxIter         ....   150
 SCF integral mode      SCFMode         .... Direct
   Integral package                     .... SHARK and LIBINT hybrid scheme
 Reset frequency        DirectResetFreq ....    20
 Integral Threshold     Thresh          ....  2.500e-11 Eh
 Primitive CutOff       TCut            ....  2.500e-12 Eh

Convergence Tolerance:
 Convergence Check Mode ConvCheckMode   .... Total+1el-Energy
 Convergence forced     ConvForced      .... 0
 Energy Change          TolE            ....  1.000e-08 Eh
 1-El. energy change                    ....  1.000e-05 Eh
 Orbital Gradient       TolG            ....  1.000e-05
 Orbital Rotation angle TolX            ....  1.000e-05
 DIIS Error             TolErr          ....  5.000e-07


Diagonalization of the overlap matrix:
Smallest eigenvalue                        ... 4.626e-04
Time for diagonalization                   ...    0.015 sec
Threshold for overlap eigenvalues          ... 1.000e-08
Number of eigenvalues below threshold      ... 0
Time for construction of square roots      ...    0.009 sec
Total time needed                          ...    0.025 sec

Time for model grid setup =    0.080 sec

------------------------------
INITIAL GUESS: MODEL POTENTIAL
------------------------------
Loading Hartree-Fock densities                     ... done
Calculating cut-offs                               ... done
Initializing the effective Hamiltonian             ... done
Setting up the integral package (SHARK)            ... done
Starting the Coulomb interaction                   ... done (   0.1 sec)
Reading the grid                                   ... done
Mapping shells                                     ... done
Starting the XC term evaluation                    ... done (   0.1 sec)
  promolecular density results
     # of electrons  =     56.997097991
     EX              =    -47.265979525
     EC              =     -2.014852490
     EX+EC           =    -49.280832015
Transforming the Hamiltonian                       ... done (   0.0 sec)
Diagonalizing the Hamiltonian                      ... done (   0.0 sec)
Back transforming the eigenvectors                 ... done (   0.0 sec)
Now organizing SCF variables                       ... done
                      ------------------
                      INITIAL GUESS DONE (   0.2 sec)
                      ------------------
-------------------
DFT GRID GENERATION
-------------------

General Integration Accuracy     IntAcc      ... 4.388
Radial Grid Type                 RadialGrid  ... OptM3 with GC (2021)
Angular Grid (max. ang.)         AngularGrid ... 4 (Lebedev-302)
Angular grid pruning method      GridPruning ... 4 (adaptive)
Weight generation scheme         WeightScheme... Becke
Basis function cutoff            BFCut       ... 1.0000e-11
Integration weight cutoff        WCut        ... 1.0000e-14
Angular grids for H and He will be reduced by one unit
Partially contracted basis set               ... off
Rotationally invariant grid construction     ... off

Total number of grid points                  ...    53860
Total number of batches                      ...      848
Average number of points per batch           ...       63
Average number of grid points per atom       ...     4896
Time for grid setup =    0.389 sec

--------------------
COSX GRID GENERATION
--------------------

GRIDX 1
-------
General Integration Accuracy     IntAcc      ... 3.816
Radial Grid Type                 RadialGrid  ... OptM3 with GC (2021)
Angular Grid (max. ang.)         AngularGrid ... 1 (Lebedev-50)
Angular grid pruning method      GridPruning ... 4 (adaptive)
Weight generation scheme         WeightScheme... Becke
Basis function cutoff            BFCut       ... 1.0000e-11
Integration weight cutoff        WCut        ... 1.0000e-14
Angular grids for H and He will be reduced by one unit
Partially contracted basis set               ... on
Rotationally invariant grid construction     ... off

Total number of grid points                  ...     6794
Total number of batches                      ...      110
Average number of points per batch           ...       61
Average number of grid points per atom       ...      618
UseSFitting                                  ... on

GRIDX 2
-------
General Integration Accuracy     IntAcc      ... 4.020
Radial Grid Type                 RadialGrid  ... OptM3 with GC (2021)
Angular Grid (max. ang.)         AngularGrid ... 2 (Lebedev-110)
Angular grid pruning method      GridPruning ... 4 (adaptive)
Weight generation scheme         WeightScheme... Becke
Basis function cutoff            BFCut       ... 1.0000e-11
Integration weight cutoff        WCut        ... 1.0000e-14
Angular grids for H and He will be reduced by one unit
Partially contracted basis set               ... on
Rotationally invariant grid construction     ... off

Total number of grid points                  ...    14986
Total number of batches                      ...      240
Average number of points per batch           ...       62
Average number of grid points per atom       ...     1362
UseSFitting                                  ... on

GRIDX 3
-------
General Integration Accuracy     IntAcc      ... 4.338
Radial Grid Type                 RadialGrid  ... OptM3 with GC (2021)
Angular Grid (max. ang.)         AngularGrid ... 3 (Lebedev-194)
Angular grid pruning method      GridPruning ... 4 (adaptive)
Weight generation scheme         WeightScheme... Becke
Basis function cutoff            BFCut       ... 1.0000e-11
Integration weight cutoff        WCut        ... 1.0000e-14
Angular grids for H and He will be reduced by one unit
Partially contracted basis set               ... on
Rotationally invariant grid construction     ... off

Total number of grid points                  ...    33647
Total number of batches                      ...      531
Average number of points per batch           ...       63
Average number of grid points per atom       ...     3059
UseSFitting                                  ... on

Time for X-Grid setup             =    0.350 sec

--------------
SCF ITERATIONS
--------------
ITER       Energy         Delta-E        Max-DP      RMS-DP      [F,P]     Damp
               ***  Starting incremental Fock matrix formation  ***
  0   -701.9447531044   0.000000000000 0.07953881  0.00087196  0.1641949 0.7000
  1   -702.0099913286  -0.065238224187 0.04265860  0.00057022  0.0747107 0.7000
                               ***Turning on DIIS***
  2   -702.0387857966  -0.028794467970 0.04674009  0.00105169  0.0347246 0.0000
  3   -702.0881605281  -0.049374731527 0.03998082  0.00046979  0.0424353 0.0000
  4   -702.0957353949  -0.007574866781 0.01244840  0.00020406  0.0056768 0.0000
                      *** Initiating the SOSCF procedure ***
                           *** Shutting down DIIS ***
                      *** Re-Reading the Fockian *** 
                      *** Removing any level shift *** 
ITER      Energy       Delta-E        Grad      Rot      Max-DP    RMS-DP
  5   -702.09601632  -0.0002809206  0.001013  0.001013  0.006918  0.000109
               *** Restarting incremental Fock matrix formation ***
  6   -702.09607074  -0.0000544223  0.000321  0.000463  0.003937  0.000059
  7   -702.09607832  -0.0000075853  0.000129  0.000306  0.002232  0.000034
  8   -702.09607908  -0.0000007603  0.000082  0.000062  0.000270  0.000005
  9   -702.09607934  -0.0000002575  0.000024  0.000028  0.000269  0.000004
 10   -702.09607937  -0.0000000263  0.000010  0.000009  0.000075  0.000001
 11   -702.09607937  -0.0000000058  0.000003  0.000002  0.000007  0.000000
                 **** Energy Check signals convergence ****
              ***Rediagonalizing the Fockian in SOSCF/NRSCF***

               *****************************************************
               *                     SUCCESS                       *
               *           SCF CONVERGED AFTER  12 CYCLES          *
               *****************************************************


----------------
TOTAL SCF ENERGY
----------------

Total Energy       :         -702.09607938 Eh          -19105.00560 eV

Components:
Nuclear Repulsion  :          348.10111563 Eh            9472.31292 eV
Electronic Energy  :        -1050.19719501 Eh          -28577.31852 eV
One Electron Energy:        -1670.28405005 Eh          -45450.73967 eV
Two Electron Energy:          620.08685505 Eh           16873.42115 eV
Max COSX asymmetry :            0.00001134 Eh               0.00031 eV

Virial components:
Potential Energy   :        -1402.24770222 Eh          -38157.09985 eV
Kinetic Energy     :          700.15162285 Eh           19052.09425 eV
Virial Ratio       :            2.00277719


DFT components:
N(Alpha)           :       29.000002750454 electrons
N(Beta)            :       29.000002750454 electrons
N(Total)           :       58.000005500908 electrons
E(X)               :      -47.833792490882 Eh       
E(C)               :       -2.054281397648 Eh       
E(XC)              :      -49.888073888530 Eh       
DFET-embed. en.    :        0.000000000000 Eh       

---------------
SCF CONVERGENCE
---------------

  Last Energy change         ...   -2.4530e-09  Tolerance :   1.0000e-08
  Last MAX-Density change    ...    5.8111e-06  Tolerance :   1.0000e-07
  Last RMS-Density change    ...    7.7186e-08  Tolerance :   5.0000e-09
  Last Orbital Gradient      ...    1.1323e-06  Tolerance :   1.0000e-05
  Last Orbital Rotation      ...    6.1912e-07  Tolerance :   1.0000e-05

             **** THE GBW FILE WAS UPDATED (TZVP_LC_PBE_A_wt_dlpno_neg.gbw) ****
             **** DENSITY TZVP_LC_PBE_A_wt_dlpno_neg.scfp WAS UPDATED ****
             **** ENERGY FILE WAS UPDATED (TZVP_LC_PBE_A_wt_dlpno_neg.en.tmp) ****
             **** THE GBW FILE WAS UPDATED (TZVP_LC_PBE_A_wt_dlpno_neg.gbw) ****
             **** DENSITY TZVP_LC_PBE_A_wt_dlpno_neg.scfp WAS UPDATED ****
----------------
ORBITAL ENERGIES
----------------

  NO   OCC          E(Eh)            E(eV) 
   0   2.0000     -88.267386     -2401.8777 
   1   2.0000     -18.756264      -510.3839 
   2   2.0000     -18.741172      -509.9732 
   3   2.0000     -18.740123      -509.9447 
   4   2.0000      -9.978841      -271.5381 
   5   2.0000      -9.972509      -271.3658 
   6   2.0000      -7.877704      -214.3632 
   7   2.0000      -5.894717      -160.4034 
   8   2.0000      -5.893077      -160.3588 
   9   2.0000      -5.892790      -160.3510 
  10   2.0000      -1.092901       -29.7393 
  11   2.0000      -0.948298       -25.8045 
  12   2.0000      -0.924458       -25.1558 
  13   2.0000      -0.810113       -22.0443 
  14   2.0000      -0.674844       -18.3634 
  15   2.0000      -0.530637       -14.4394 
  16   2.0000      -0.464748       -12.6464 
  17   2.0000      -0.459843       -12.5130 
  18   2.0000      -0.418480       -11.3874 
  19   2.0000      -0.401201       -10.9172 
  20   2.0000      -0.397733       -10.8229 
  21   2.0000      -0.360039        -9.7972 
  22   2.0000      -0.351487        -9.5644 
  23   2.0000      -0.286568        -7.7979 
  24   2.0000      -0.285725        -7.7750 
  25   2.0000      -0.246769        -6.7149 
  26   2.0000      -0.232138        -6.3168 
  27   2.0000      -0.230875        -6.2824 
  28   2.0000      -0.190815        -5.1923 
  29   0.0000       0.251832         6.8527 
  30   0.0000       0.301025         8.1913 
  31   0.0000       0.314191         8.5496 
  32   0.0000       0.318296         8.6613 
  33   0.0000       0.341473         9.2920 
  34   0.0000       0.371785        10.1168 
  35   0.0000       0.388274        10.5655 
  36   0.0000       0.415772        11.3137 
  37   0.0000       0.427357        11.6290 
  38   0.0000       0.440895        11.9974 
  39   0.0000       0.449663        12.2359 
  40   0.0000       0.461098        12.5471 
  41   0.0000       0.520989        14.1768 
  42   0.0000       0.550361        14.9761 
  43   0.0000       0.563038        15.3210 
  44   0.0000       0.576965        15.7000 
  45   0.0000       0.585209        15.9243 
  46   0.0000       0.587841        15.9960 
  47   0.0000       0.618206        16.8222 
  48   0.0000       0.648727        17.6528 
  49   0.0000       0.657858        17.9012 
  50   0.0000       0.675488        18.3810 
  51   0.0000       0.695979        18.9386 
  52   0.0000       0.710269        19.3274 
  53   0.0000       0.731634        19.9088 
  54   0.0000       0.740040        20.1375 
  55   0.0000       0.747889        20.3511 
  56   0.0000       0.779151        21.2018 
  57   0.0000       0.792273        21.5588 
  58   0.0000       0.802525        21.8378 
  59   0.0000       0.809618        22.0308 
  60   0.0000       0.831043        22.6138 
  61   0.0000       0.847863        23.0715 
  62   0.0000       0.880304        23.9543 
  63   0.0000       0.900923        24.5154 
  64   0.0000       0.909642        24.7526 
  65   0.0000       0.928573        25.2677 
  66   0.0000       0.967670        26.3316 
  67   0.0000       1.023745        27.8575 
  68   0.0000       1.048755        28.5381 
  69   0.0000       1.059959        28.8430 
  70   0.0000       1.118970        30.4487 
  71   0.0000       1.137671        30.9576 
  72   0.0000       1.143342        31.1119 
  73   0.0000       1.191238        32.4152 
  74   0.0000       1.213578        33.0231 
  75   0.0000       1.238277        33.6952 
  76   0.0000       1.244515        33.8650 
  77   0.0000       1.251791        34.0630 
  78   0.0000       1.326539        36.0970 
  79   0.0000       1.354983        36.8710 
  80   0.0000       1.377800        37.4918 
  81   0.0000       1.408471        38.3264 
  82   0.0000       1.453029        39.5389 
  83   0.0000       1.639568        44.6149 
  84   0.0000       1.648089        44.8468 
  85   0.0000       1.657258        45.0963 
  86   0.0000       1.727720        47.0136 
  87   0.0000       1.737223        47.2722 
  88   0.0000       1.749198        47.5981 
  89   0.0000       1.762436        47.9583 
  90   0.0000       1.785674        48.5907 
  91   0.0000       1.804032        49.0902 
  92   0.0000       1.819783        49.5188 
  93   0.0000       1.836990        49.9870 
  94   0.0000       1.854063        50.4516 
  95   0.0000       1.860726        50.6329 
  96   0.0000       1.901154        51.7330 
  97   0.0000       1.934384        52.6373 
  98   0.0000       1.943332        52.8808 
  99   0.0000       1.953567        53.1593 
 100   0.0000       1.978817        53.8464 
 101   0.0000       1.997774        54.3622 
 102   0.0000       2.020989        54.9939 
 103   0.0000       2.067011        56.2462 
 104   0.0000       2.116897        57.6037 
 105   0.0000       2.118549        57.6486 
 106   0.0000       2.151097        58.5343 
 107   0.0000       2.183284        59.4102 
 108   0.0000       2.200937        59.8905 
 109   0.0000       2.225721        60.5649 
 110   0.0000       2.237115        60.8750 
 111   0.0000       2.309416        62.8424 
 112   0.0000       2.344993        63.8105 
 113   0.0000       2.403095        65.3915 
 114   0.0000       2.431944        66.1766 
 115   0.0000       2.452667        66.7405 
 116   0.0000       2.539259        69.0967 
 117   0.0000       2.553538        69.4853 
 118   0.0000       2.569988        69.9329 
 119   0.0000       2.586402        70.3796 
 120   0.0000       2.601163        70.7812 
 121   0.0000       2.626893        71.4814 
 122   0.0000       2.633867        71.6712 
 123   0.0000       2.645991        72.0011 
 124   0.0000       2.661724        72.4292 
 125   0.0000       2.730358        74.2968 
 126   0.0000       2.739735        74.5520 
 127   0.0000       2.763662        75.2031 
 128   0.0000       2.770373        75.3857 
 129   0.0000       2.789060        75.8942 
 130   0.0000       2.800235        76.1983 
 131   0.0000       2.808803        76.4314 
 132   0.0000       2.865221        77.9666 
 133   0.0000       2.878315        78.3229 
 134   0.0000       2.925046        79.5945 
 135   0.0000       2.932121        79.7871 
 136   0.0000       2.941963        80.0549 
 137   0.0000       3.042854        82.8003 
 138   0.0000       3.075383        83.6854 
 139   0.0000       3.110984        84.6542 
 140   0.0000       3.183425        86.6254 
 141   0.0000       3.216500        87.5254 
 142   0.0000       3.228473        87.8512 
 143   0.0000       3.240935        88.1903 
 144   0.0000       3.270312        88.9897 
 145   0.0000       3.302572        89.8675 
 146   0.0000       3.320867        90.3654 
 147   0.0000       3.380600        91.9908 
 148   0.0000       3.398735        92.4843 
 149   0.0000       3.411850        92.8412 
 150   0.0000       3.425669        93.2172 
 151   0.0000       3.435025        93.4718 
 152   0.0000       3.466778        94.3358 
 153   0.0000       3.524345        95.9023 
 154   0.0000       3.526976        95.9739 
 155   0.0000       3.618060        98.4524 
 156   0.0000       3.641691        99.0954 
 157   0.0000       3.681598       100.1814 
 158   0.0000       3.688842       100.3785 
 159   0.0000       3.722166       101.2853 
 160   0.0000       3.774638       102.7131 
 161   0.0000       3.814696       103.8031 
 162   0.0000       3.874734       105.4369 
 163   0.0000       4.034774       109.7918 
 164   0.0000       4.048919       110.1767 
 165   0.0000       4.135000       112.5191 
 166   0.0000       4.166725       113.3824 
 167   0.0000       4.234347       115.2224 
 168   0.0000       4.261936       115.9732 
 169   0.0000       4.404505       119.8527 
 170   0.0000       4.462550       121.4321 
 171   0.0000       4.560058       124.0855 
 172   0.0000       4.620536       125.7312 
 173   0.0000       4.718817       128.4055 
 174   0.0000       4.752126       129.3119 
 175   0.0000       4.857244       132.1723 
 176   0.0000       5.036677       137.0550 
 177   0.0000       5.426936       147.6744 
 178   0.0000       5.473662       148.9459 
 179   0.0000       5.487087       149.3112 
 180   0.0000       5.489918       149.3883 
 181   0.0000       5.492219       149.4509 
 182   0.0000       5.494015       149.4997 
 183   0.0000       5.495602       149.5429 
 184   0.0000       5.505380       149.8090 
 185   0.0000       5.512914       150.0140 
 186   0.0000       5.580147       151.8435 
 187   0.0000       5.615480       152.8050 
 188   0.0000       5.623164       153.0141 
 189   0.0000       5.669817       154.2836 
 190   0.0000       5.694778       154.9628 
 191   0.0000       5.781516       157.3230 
 192   0.0000       5.850879       159.2105 
 193   0.0000       5.893766       160.3775 
 194   0.0000       5.985111       162.8632 
 195   0.0000       6.012457       163.6073 
 196   0.0000       6.052737       164.7033 
 197   0.0000       6.161152       167.6535 
 198   0.0000       6.619861       180.1356 
 199   0.0000       6.627998       180.3570 
 200   0.0000       6.633633       180.5103 
 201   0.0000       6.722385       182.9254 
 202   0.0000       6.737596       183.3393 
 203   0.0000       6.787717       184.7032 
 204   0.0000       6.990141       190.2114 
 205   0.0000       7.033484       191.3908 
 206   0.0000       7.045854       191.7274 
 207   0.0000       7.050031       191.8411 
 208   0.0000       7.172808       195.1820 
 209   0.0000       7.192621       195.7212 
 210   0.0000       7.216801       196.3791 
 211   0.0000       7.264930       197.6888 
 212   0.0000       7.290268       198.3783 
 213   0.0000       9.651795       262.6387 
 214   0.0000       9.817148       267.1382 
 215   0.0000       9.919160       269.9141 
 216   0.0000      22.425253       610.2221 
 217   0.0000      22.550870       613.6404 
 218   0.0000      22.931098       623.9869 
 219   0.0000      43.508794      1183.9345 
 220   0.0000      43.748362      1190.4535 
 221   0.0000      43.784390      1191.4338 

                    ********************************
                    * MULLIKEN POPULATION ANALYSIS *
                    ********************************

-----------------------
MULLIKEN ATOMIC CHARGES
-----------------------
   0 C :   -0.316873
   1 S :    0.737625
   2 O :   -0.517020
   3 O :   -0.567886
   4 O :   -0.570651
   5 C :   -0.422819
   6 H :    0.134253
   7 H :    0.128407
   8 H :    0.104413
   9 H :    0.147752
  10 H :    0.142800
Sum of atomic charges:   -1.0000000

--------------------------------
MULLIKEN REDUCED ORBITAL CHARGES
--------------------------------
  0 C s       :     3.220109  s :     3.220109
      pz      :     1.016803  p :     3.008594
      px      :     0.960497
      py      :     1.031294
      dz2     :     0.027328  d :     0.084078
      dxz     :     0.007783
      dyz     :     0.010266
      dx2y2   :     0.012323
      dxy     :     0.026378
      f0      :     0.000462  f :     0.004091
      f+1     :     0.001104
      f-1     :     0.000319
      f+2     :     0.000206
      f-2     :     0.000837
      f+3     :     0.000645
      f-3     :     0.000519
  1 S s       :     5.347028  s :     5.347028
      pz      :     2.835762  p :     8.606577
      px      :     2.892046
      py      :     2.878770
      dz2     :     0.265224  d :     1.181153
      dxz     :     0.227746
      dyz     :     0.233655
      dx2y2   :     0.191656
      dxy     :     0.262873
      f0      :     0.014380  f :     0.127616
      f+1     :     0.025773
      f-1     :     0.028385
      f+2     :     0.013932
      f-2     :     0.015979
      f+3     :     0.018004
      f-3     :     0.011163
  2 O s       :     3.769058  s :     3.769058
      pz      :     1.665893  p :     4.715198
      px      :     1.424983
      py      :     1.624322
      dz2     :     0.003834  d :     0.030849
      dxz     :     0.007795
      dyz     :     0.002545
      dx2y2   :     0.008514
      dxy     :     0.008162
      f0      :     0.000176  f :     0.001915
      f+1     :     0.000315
      f-1     :     0.000099
      f+2     :     0.000214
      f-2     :     0.000283
      f+3     :     0.000456
      f-3     :     0.000373
  3 O s       :     3.788138  s :     3.788138
      pz      :     1.618911  p :     4.749126
      px      :     1.685948
      py      :     1.444267
      dz2     :     0.004669  d :     0.028866
      dxz     :     0.003016
      dyz     :     0.008563
      dx2y2   :     0.006479
      dxy     :     0.006139
      f0      :     0.000165  f :     0.001756
      f+1     :     0.000054
      f-1     :     0.000414
      f+2     :     0.000338
      f-2     :     0.000298
      f+3     :     0.000248
      f-3     :     0.000241
  4 O s       :     3.792732  s :     3.792732
      pz      :     1.335951  p :     4.747429
      px      :     1.713377
      py      :     1.698100
      dz2     :     0.011477  d :     0.028752
      dxz     :     0.007648
      dyz     :     0.008199
      dx2y2   :     0.000791
      dxy     :     0.000636
      f0      :     0.000629  f :     0.001739
      f+1     :     0.000439
      f-1     :     0.000499
      f+2     :     0.000078
      f-2     :     0.000087
      f+3     :     0.000004
      f-3     :     0.000003
  5 C s       :     3.233606  s :     3.233606
      pz      :     1.028638  p :     3.125892
      px      :     1.015185
      py      :     1.082069
      dz2     :     0.020079  d :     0.060388
      dxz     :     0.007529
      dyz     :     0.009013
      dx2y2   :     0.002998
      dxy     :     0.020768
      f0      :     0.000370  f :     0.002933
      f+1     :     0.000893
      f-1     :     0.000091
      f+2     :     0.000116
      f-2     :     0.000766
      f+3     :     0.000502
      f-3     :     0.000196
  6 H s       :     0.845574  s :     0.845574
      pz      :     0.010604  p :     0.020173
      px      :     0.004795
      py      :     0.004774
  7 H s       :     0.851623  s :     0.851623
      pz      :     0.004254  p :     0.019970
      px      :     0.005944
      py      :     0.009773
  8 H s       :     0.876046  s :     0.876046
      pz      :     0.004815  p :     0.019541
      px      :     0.007357
      py      :     0.007369
  9 H s       :     0.832194  s :     0.832194
      pz      :     0.010003  p :     0.020054
      px      :     0.005575
      py      :     0.004476
 10 H s       :     0.837147  s :     0.837147
      pz      :     0.004403  p :     0.020053
      px      :     0.005527
      py      :     0.010123


                     *******************************
                     * LOEWDIN POPULATION ANALYSIS *
                     *******************************

----------------------
LOEWDIN ATOMIC CHARGES
----------------------
   0 C :   -0.438776
   1 S :    0.397202
   2 O :   -0.363207
   3 O :   -0.423264
   4 O :   -0.419582
   5 C :   -0.360334
   6 H :    0.128602
   7 H :    0.126754
   8 H :    0.107775
   9 H :    0.122391
  10 H :    0.122438

-------------------------------
LOEWDIN REDUCED ORBITAL CHARGES
-------------------------------
  0 C s       :     2.846100  s :     2.846100
      pz      :     1.070938  p :     3.214672
      px      :     1.069849
      py      :     1.073885
      dz2     :     0.092435  d :     0.347854
      dxz     :     0.064520
      dyz     :     0.036594
      dx2y2   :     0.052728
      dxy     :     0.101577
      f0      :     0.003344  f :     0.030150
      f+1     :     0.005773
      f-1     :     0.003867
      f+2     :     0.003368
      f-2     :     0.004860
      f+3     :     0.005023
      f-3     :     0.003915
  1 S s       :     4.730221  s :     4.730221
      pz      :     2.874511  p :     8.639625
      px      :     2.882789
      py      :     2.882325
      dz2     :     0.436211  d :     1.866820
      dxz     :     0.332824
      dyz     :     0.371851
      dx2y2   :     0.296781
      dxy     :     0.429152
      f0      :     0.047291  f :     0.366133
      f+1     :     0.067738
      f-1     :     0.076503
      f+2     :     0.040606
      f-2     :     0.047941
      f+3     :     0.051065
      f-3     :     0.034988
  2 O s       :     3.535916  s :     3.535916
      pz      :     1.621069  p :     4.759382
      px      :     1.532807
      py      :     1.605506
      dz2     :     0.008587  d :     0.063413
      dxz     :     0.014140
      dyz     :     0.004766
      dx2y2   :     0.015863
      dxy     :     0.020057
      f0      :     0.000478  f :     0.004496
      f+1     :     0.000663
      f-1     :     0.000208
      f+2     :     0.000458
      f-2     :     0.000713
      f+3     :     0.000763
      f-3     :     0.001213
  3 O s       :     3.562828  s :     3.562828
      pz      :     1.624284  p :     4.798002
      px      :     1.639919
      py      :     1.533799
      dz2     :     0.007285  d :     0.058431
      dxz     :     0.004814
      dyz     :     0.021915
      dx2y2   :     0.013682
      dxy     :     0.010735
      f0      :     0.000505  f :     0.004003
      f+1     :     0.000102
      f-1     :     0.000726
      f+2     :     0.000955
      f-2     :     0.000646
      f+3     :     0.000575
      f-3     :     0.000494
  4 O s       :     3.563860  s :     3.563860
      pz      :     1.498632  p :     4.793694
      px      :     1.650392
      py      :     1.644671
      dz2     :     0.031557  d :     0.058049
      dxz     :     0.010152
      dyz     :     0.014232
      dx2y2   :     0.001006
      dxy     :     0.001102
      f0      :     0.001821  f :     0.003979
      f+1     :     0.000694
      f-1     :     0.001131
      f+2     :     0.000135
      f-2     :     0.000183
      f+3     :     0.000009
      f-3     :     0.000006
  5 C s       :     2.820887  s :     2.820887
      pz      :     1.087196  p :     3.252390
      px      :     1.076588
      py      :     1.088607
      dz2     :     0.074029  d :     0.262608
      dxz     :     0.052299
      dyz     :     0.033797
      dx2y2   :     0.023110
      dxy     :     0.079373
      f0      :     0.002995  f :     0.024448
      f+1     :     0.005069
      f-1     :     0.002881
      f+2     :     0.003410
      f-2     :     0.004490
      f+3     :     0.003659
      f-3     :     0.001943
  6 H s       :     0.809039  s :     0.809039
      pz      :     0.030812  p :     0.062359
      px      :     0.016488
      py      :     0.015058
  7 H s       :     0.810960  s :     0.810960
      pz      :     0.013987  p :     0.062286
      px      :     0.017542
      py      :     0.030757
  8 H s       :     0.828730  s :     0.828730
      pz      :     0.016918  p :     0.063495
      px      :     0.022471
      py      :     0.024106
  9 H s       :     0.813125  s :     0.813125
      pz      :     0.030620  p :     0.064484
      px      :     0.018464
      py      :     0.015401
 10 H s       :     0.813418  s :     0.813418
      pz      :     0.014612  p :     0.064143
      px      :     0.017638
      py      :     0.031894


                      *****************************
                      * MAYER POPULATION ANALYSIS *
                      *****************************

  NA   - Mulliken gross atomic population
  ZA   - Total nuclear charge
  QA   - Mulliken gross atomic charge
  VA   - Mayer's total valence
  BVA  - Mayer's bonded valence
  FA   - Mayer's free valence

  ATOM       NA         ZA         QA         VA         BVA        FA
  0 C      6.3169     6.0000    -0.3169     3.8159     3.8159    -0.0000
  1 S     15.2624    16.0000     0.7376     6.3199     6.3199     0.0000
  2 O      8.5170     8.0000    -0.5170     1.9088     1.9088    -0.0000
  3 O      8.5679     8.0000    -0.5679     1.8354     1.8354    -0.0000
  4 O      8.5707     8.0000    -0.5707     1.8314     1.8314    -0.0000
  5 C      6.4228     6.0000    -0.4228     3.8563     3.8563     0.0000
  6 H      0.8657     1.0000     0.1343     0.9775     0.9775     0.0000
  7 H      0.8716     1.0000     0.1284     0.9718     0.9718    -0.0000
  8 H      0.8956     1.0000     0.1044     0.9559     0.9559     0.0000
  9 H      0.8522     1.0000     0.1478     0.9784     0.9784     0.0000
 10 H      0.8572     1.0000     0.1428     0.9732     0.9732     0.0000

  Mayer bond orders larger than 0.100000
B(  0-C ,  1-S ) :   0.8933 B(  0-C ,  5-C ) :   0.9434 B(  0-C ,  6-H ) :   0.9645 
B(  0-C ,  7-H ) :   0.9610 B(  1-S ,  2-O ) :   1.8490 B(  1-S ,  3-O ) :   1.7858 
B(  1-S ,  4-O ) :   1.7700 B(  5-C ,  8-H ) :   0.9704 B(  5-C ,  9-H ) :   0.9716 
B(  5-C , 10-H ) :   0.9747 

-------
TIMINGS
-------

Total SCF time: 0 days 0 hours 0 min 25 sec 

Total time                  ....      25.716 sec
Sum of individual times     ....      25.294 sec  ( 98.4%)

Fock matrix formation       ....      24.114 sec  ( 93.8%)
  Split-RI-J                ....       1.378 sec  (  5.7% of F)
  Chain of spheres X        ....      19.664 sec  ( 81.5% of F)
  XC integration            ....       3.018 sec  ( 12.5% of F)
    Basis function eval.    ....       0.998 sec  ( 33.1% of XC)
    Density eval.           ....       0.740 sec  ( 24.5% of XC)
    XC-Functional eval.     ....       0.276 sec  (  9.1% of XC)
    XC-Potential eval.      ....       0.855 sec  ( 28.3% of XC)
Diagonalization             ....       0.076 sec  (  0.3%)
Density matrix formation    ....       0.007 sec  (  0.0%)
Population analysis         ....       0.011 sec  (  0.0%)
Initial guess               ....       0.165 sec  (  0.6%)
Orbital Transformation      ....       0.000 sec  (  0.0%)
Orbital Orthonormalization  ....       0.000 sec  (  0.0%)
DIIS solution               ....       0.041 sec  (  0.2%)
SOSCF solution              ....       0.063 sec  (  0.2%)
Grid generation             ....       0.818 sec  (  3.2%)

Maximum memory used throughout the entire SCF-calculation: 23.5 MB

-------------------------   --------------------
FINAL SINGLE POINT ENERGY      -702.096079375346
-------------------------   --------------------


                            ***************************************
                            *     ORCA property calculations      *
                            ***************************************

                                    ---------------------
                                    Active property flags
                                    ---------------------
   (+) Dipole Moment


------------------------------------------------------------------------------
                       ORCA ELECTRIC PROPERTIES CALCULATION
------------------------------------------------------------------------------

Dipole Moment Calculation                       ... on
Quadrupole Moment Calculation                   ... off
Polarizability Calculation                      ... off
GBWName                                         ... TZVP_LC_PBE_A_wt_dlpno_neg.gbw
Electron density file                           ... TZVP_LC_PBE_A_wt_dlpno_neg.scfp
The origin for moment calculation is the CENTER OF MASS  = (-12.296080, -9.130664 -0.814482)

-------------
DIPOLE MOMENT
-------------
                                X             Y             Z
Electronic contribution:     -6.64191       4.26733      -0.93595
Nuclear contribution   :      8.13140      -5.68016       0.80206
                        -----------------------------------------
Total Dipole Moment    :      1.48950      -1.41283      -0.13389
                        -----------------------------------------
Magnitude (a.u.)       :      2.05733
Magnitude (Debye)      :      5.22932



--------------------
Rotational spectrum 
--------------------
 
Rotational constants in cm-1:     0.162101     0.080498     0.079099 
Rotational constants in MHz :  4859.669771  2413.267251  2371.338602 

 Dipole components along the rotational axes: 
x,y,z [a.u.] :    -1.898919    -0.791512    -0.015247 
x,y,z [Debye]:    -4.826669    -2.011863    -0.038755 

 

Timings for individual modules:

Sum of individual times         ...       30.050 sec (=   0.501 min)
GTO integral calculation        ...        2.399 sec (=   0.040 min)   8.0 %
SCF iterations                  ...       27.651 sec (=   0.461 min)  92.0 %
                             ****ORCA TERMINATED NORMALLY****
TOTAL RUN TIME: 0 days 0 hours 0 minutes 30 seconds 532 msec
