
                                        *****************
                                        * O   R   C   A *
                                        *****************

                                            #,                                       
                                            ###                                      
                                            ####                                     
                                            #####                                    
                                            ######                                   
                                           ########,                                 
                                     ,,################,,,,,                         
                               ,,#################################,,                 
                          ,,##########################################,,             
                       ,#########################################, ''#####,          
                    ,#############################################,,   '####,        
                  ,##################################################,,,,####,       
                ,###########''''           ''''###############################       
              ,#####''   ,,,,##########,,,,          '''####'''          '####       
            ,##' ,,,,###########################,,,                        '##       
           ' ,,###''''                  '''############,,,                           
         ,,##''                                '''############,,,,        ,,,,,,###''
      ,#''                                            '''#######################'''  
     '                                                          ''''####''''         
             ,#######,   #######,   ,#######,      ##                                
            ,#'     '#,  ##    ##  ,#'     '#,    #''#        ######   ,####,        
            ##       ##  ##   ,#'  ##            #'  '#       #        #'  '#        
            ##       ##  #######   ##           ,######,      #####,   #    #        
            '#,     ,#'  ##    ##  '#,     ,#' ,#      #,         ##   #,  ,#        
             '#######'   ##     ##  '#######'  #'      '#     #####' # '####'        



                  #######################################################
                  #                        -***-                        #
                  #          Department of theory and spectroscopy      #
                  #    Directorship and core code : Frank Neese         #
                  #        Max Planck Institute fuer Kohlenforschung    #
                  #                Kaiser Wilhelm Platz 1               #
                  #                 D-45470 Muelheim/Ruhr               #
                  #                      Germany                        #
                  #                                                     #
                  #                  All rights reserved                #
                  #                        -***-                        #
                  #######################################################


                         Program Version 5.0.0 -  RELEASE  -
                                (SVN: $Rev: 19529$)
                ($Date: 2021-06-28 11:36:33 +0200 (Mo, 28 Jun 2021) $)


 With contributions from (in alphabetic order):
   Daniel Aravena         : Magnetic Suceptibility
   Michael Atanasov       : Ab Initio Ligand Field Theory (pilot matlab implementation)
   Alexander A. Auer      : GIAO ZORA, VPT2 properties, NMR spectrum
   Ute Becker             : Parallelization
   Giovanni Bistoni       : ED, misc. LED, open-shell LED, HFLD
   Martin Brehm           : Molecular dynamics
   Dmytro Bykov           : SCF Hessian
   Vijay G. Chilkuri      : MRCI spin determinant printing, contributions to CSF-ICE
   Dipayan Datta          : RHF DLPNO-CCSD density
   Achintya Kumar Dutta   : EOM-CC, STEOM-CC
   Dmitry Ganyushin       : Spin-Orbit,Spin-Spin,Magnetic field MRCI
   Miquel Garcia          : C-PCM Hessian, Gaussian charge scheme
   Yang Guo               : DLPNO-NEVPT2, F12-NEVPT2, CIM, IAO-localization
   Andreas Hansen         : Spin unrestricted coupled pair/coupled cluster methods
   Benjamin Helmich-Paris : MC-RPA, TRAH-SCF, COSX integrals
   Lee Huntington         : MR-EOM, pCC
   Robert Izsak           : Overlap fitted RIJCOSX, COSX-SCS-MP3, EOM
   Marcus Kettner         : VPT2
   Christian Kollmar      : KDIIS, OOCD, Brueckner-CCSD(T), CCSD density, CASPT2, CASPT2-K
   Simone Kossmann        : Meta GGA functionals, TD-DFT gradient, OOMP2, MP2 Hessian
   Martin Krupicka        : Initial AUTO-CI
   Lucas Lang             : DCDCAS
   Marvin Lechner         : AUTO-CI (C++ implementation), FIC-MRCC
   Dagmar Lenk            : GEPOL surface, SMD
   Dimitrios Liakos       : Extrapolation schemes; Compound Job, initial MDCI parallelization
   Dimitrios Manganas     : Further ROCIS development; embedding schemes
   Dimitrios Pantazis     : SARC Basis sets
   Anastasios Papadopoulos: AUTO-CI, single reference methods and gradients
   Taras Petrenko         : DFT Hessian,TD-DFT gradient, ASA, ECA, R-Raman, ABS, FL, XAS/XES, NRVS
   Peter Pinski           : DLPNO-MP2, DLPNO-MP2 Gradient
   Christoph Reimann      : Effective Core Potentials
   Marius Retegan         : Local ZFS, SOC
   Christoph Riplinger    : Optimizer, TS searches, QM/MM, DLPNO-CCSD(T), (RO)-DLPNO pert. Triples
   Tobias Risthaus        : Range-separated hybrids, TD-DFT gradient, RPA, STAB
   Michael Roemelt        : Original ROCIS implementation
   Masaaki Saitow         : Open-shell DLPNO-CCSD energy and density
   Barbara Sandhoefer     : DKH picture change effects
   Avijit Sen             : IP-ROCIS
   Kantharuban Sivalingam : CASSCF convergence, NEVPT2, FIC-MRCI
   Bernardo de Souza      : ESD, SOC TD-DFT
   Georgi Stoychev        : AutoAux, RI-MP2 NMR
   Willem Van den Heuvel  : Paramagnetic NMR
   Boris Wezisla          : Elementary symmetry handling
   Frank Wennmohs         : Technical directorship


 We gratefully acknowledge several colleagues who have allowed us to
 interface, adapt or use parts of their codes:
   Stefan Grimme, W. Hujo, H. Kruse, P. Pracht,  : VdW corrections, initial TS optimization,
                  C. Bannwarth, S. Ehlert          DFT functionals, gCP, sTDA/sTD-DF
   Ed Valeev, F. Pavosevic, A. Kumar             : LibInt (2-el integral package), F12 methods
   Garnet Chan, S. Sharma, J. Yang, R. Olivares  : DMRG
   Ulf Ekstrom                                   : XCFun DFT Library
   Mihaly Kallay                                 : mrcc  (arbitrary order and MRCC methods)
   Jiri Pittner, Ondrej Demel                    : Mk-CCSD
   Frank Weinhold                                : gennbo (NPA and NBO analysis)
   Christopher J. Cramer and Donald G. Truhlar   : smd solvation model
   Lars Goerigk                                  : TD-DFT with DH, B97 family of functionals
   V. Asgeirsson, H. Jonsson                     : NEB implementation
   FAccTs GmbH                                   : IRC, NEB, NEB-TS, DLPNO-Multilevel, CI-OPT
                                                   MM, QMMM, 2- and 3-layer-ONIOM, Crystal-QMMM,
                                                   LR-CPCM, SF, NACMEs, symmetry and pop. for TD-DFT,
                                                   nearIR, NL-DFT gradient (VV10), updates on ESD,
                                                   ML-optimized integration grids
   S Lehtola, MJT Oliveira, MAL Marques          : LibXC Library
   Liviu Ungur et al                             : ANISO software


 Your calculation uses the libint2 library for the computation of 2-el integrals
 For citations please refer to: http://libint.valeyev.net

 Your ORCA version has been built with support for libXC version: 5.1.0
 For citations please refer to: https://tddft.org/programs/libxc/

 This ORCA versions uses:
   CBLAS   interface :  Fast vector & matrix operations
   LAPACKE interface :  Fast linear algebra routines
   SCALAPACK package :  Parallel linear algebra routines
   Shared memory     :  Shared parallel matrices
   BLAS/LAPACK       :  OpenBLAS 0.3.15  USE64BITINT DYNAMIC_ARCH NO_AFFINITY Haswell SINGLE_THREADED
        Core in use  :  Haswell
   Copyright (c) 2011-2014, The OpenBLAS Project


Your calculation utilizes the atom-pairwise dispersion correction
with the zero-damping scheme (D30)
Cite in your paper:
S.Grimme, J.Antony, S.Ehrlich and H.Krieg, J.Chem.Phys., 132, (2010), 154104 
   

XCFun DFT library Copyright 2009-2010 Ulf Ekstrom and contributors.
See http://admol.org/xcfun for more information.
This is free software; see the source code for copying conditions.
There is ABSOLUTELY NO WARRANTY; not even for MERCHANTABILITY or FITNESS FOR A PARTICULAR PURPOSE.
For details see the documentation.
Scientific users of this library should cite U. Ekstrom, L. Visscher, R. Bast, A. J. Thorvaldsen and K. Ruud;
J.Chem.Theor.Comp. 2010, DOI: 10.1021/ct100117s
XCFun Version 0.99 

================================================================================

----- Orbital basis set information -----
Your calculation utilizes the basis: def2-SVP
   F. Weigend and R. Ahlrichs, Phys. Chem. Chem. Phys. 7, 3297 (2005).

----- AuxJ basis set information -----
Your calculation utilizes the auxiliary basis: def2/J
   F. Weigend, Phys. Chem. Chem. Phys. 8, 1057 (2006).

================================================================================
                                        WARNINGS
                       Please study these warnings very carefully!
================================================================================


INFO   : the flag for use of the SHARK integral package has been found!

================================================================================
                                       INPUT FILE
================================================================================
NAME = A_neg.com
|  1> !wB97X-D3 RIJCOSX def2-SVP def2/J TightSCF 
|  2> *xyz -1 1
|  3> C          1.87218        0.42790       -2.07750
|  4> S          0.57902        0.14047       -3.29794
|  5> O          0.22886       -1.24687       -3.12787
|  6> O         -0.43927        1.11897       -3.01455
|  7> O          1.24788        0.40347       -4.59565
|  8> H          2.66832       -0.27048       -2.23022
|  9> H          1.46951        0.30034       -1.09440
| 10> H          2.24690        1.42458       -2.18288
| 11> *
| 12> 
| 13> %MaxCore 64000
| 14> 
| 15> %pal nprocs 8
| 16> end  
| 17> 
| 18> %scf
| 19>   MaxIter 150
| 20> end
| 21> 
| 22> 
| 23>                          ****END OF INPUT****
================================================================================

                       ****************************
                       * Single Point Calculation *
                       ****************************

---------------------------------
CARTESIAN COORDINATES (ANGSTROEM)
---------------------------------
  C      1.872180    0.427900   -2.077500
  S      0.579020    0.140470   -3.297940
  O      0.228860   -1.246870   -3.127870
  O     -0.439270    1.118970   -3.014550
  O      1.247880    0.403470   -4.595650
  H      2.668320   -0.270480   -2.230220
  H      1.469510    0.300340   -1.094400
  H      2.246900    1.424580   -2.182880

----------------------------
CARTESIAN COORDINATES (A.U.)
----------------------------
  NO LB      ZA    FRAG     MASS         X           Y           Z
   0 C     6.0000    0    12.011    3.537907    0.808614   -3.925906
   1 S    16.0000    0    32.060    1.094189    0.265450   -6.232203
   2 O     8.0000    0    15.999    0.432483   -2.356243   -5.910818
   3 O     8.0000    0    15.999   -0.830100    2.114547   -5.696674
   4 O     8.0000    0    15.999    2.358151    0.762448   -8.684520
   5 H     1.0000    0     1.008    5.042394   -0.511133   -4.214505
   6 H     1.0000    0     1.008    2.776971    0.567560   -2.068116
   7 H     1.0000    0     1.008    4.246026    2.692066   -4.125045

--------------------------------
INTERNAL COORDINATES (ANGSTROEM)
--------------------------------
 C      0   0   0     0.000000000000     0.00000000     0.00000000
 S      1   0   0     1.801208645355     0.00000000     0.00000000
 O      2   1   0     1.440919187914   104.36734258     0.00000000
 O      2   1   3     1.440377265233   105.41688411   124.20799639
 O      2   1   3     1.483439902288   103.92992138   241.87283969
 H      1   2   3     1.069998561868   109.47075466    55.79181145
 H      1   2   3     1.070000136682   109.47128655   295.79189366
 H      1   2   3     1.069995815506   109.47153940   175.79216571

---------------------------
INTERNAL COORDINATES (A.U.)
---------------------------
 C      0   0   0     0.000000000000     0.00000000     0.00000000
 S      1   0   0     3.403791049771     0.00000000     0.00000000
 O      2   1   0     2.722942646270   104.36734258     0.00000000
 O      2   1   3     2.721918560817   105.41688411   124.20799639
 O      2   1   3     2.803295151455   103.92992138   241.87283969
 H      1   2   3     2.022004245620   109.47075466    55.79181145
 H      1   2   3     2.022007221588   109.47128655   295.79189366
 H      1   2   3     2.021999055748   109.47153940   175.79216571

---------------------
BASIS SET INFORMATION
---------------------
There are 4 groups of distinct atoms

 Group   1 Type C   : 7s4p1d contracted to 3s2p1d pattern {511/31/1}
 Group   2 Type S   : 10s7p1d contracted to 4s3p1d pattern {5311/511/1}
 Group   3 Type O   : 7s4p1d contracted to 3s2p1d pattern {511/31/1}
 Group   4 Type H   : 4s1p contracted to 2s1p pattern {31/1}

Atom   0C    basis set group =>   1
Atom   1S    basis set group =>   2
Atom   2O    basis set group =>   3
Atom   3O    basis set group =>   3
Atom   4O    basis set group =>   3
Atom   5H    basis set group =>   4
Atom   6H    basis set group =>   4
Atom   7H    basis set group =>   4
---------------------------------
AUXILIARY/J BASIS SET INFORMATION
---------------------------------
There are 4 groups of distinct atoms

 Group   1 Type C   : 12s5p4d2f1g contracted to 6s4p3d1f1g pattern {711111/2111/211/2/1}
 Group   2 Type S   : 14s5p5d2f1g contracted to 8s4p3d1f1g pattern {71111111/2111/311/2/1}
 Group   3 Type O   : 12s5p4d2f1g contracted to 6s4p3d1f1g pattern {711111/2111/211/2/1}
 Group   4 Type H   : 5s2p1d contracted to 3s1p1d pattern {311/2/1}

Atom   0C    basis set group =>   1
Atom   1S    basis set group =>   2
Atom   2O    basis set group =>   3
Atom   3O    basis set group =>   3
Atom   4O    basis set group =>   3
Atom   5H    basis set group =>   4
Atom   6H    basis set group =>   4
Atom   7H    basis set group =>   4


           ************************************************************
           *        Program running with 8 parallel MPI-processes     *
           *              working on a common directory               *
           ************************************************************
------------------------------------------------------------------------------
                           ORCA GTO INTEGRAL CALCULATION
                           -- RI-GTO INTEGRALS CHOSEN --
------------------------------------------------------------------------------
------------------------------------------------------------------------------
                   ___                                                        
                  /   \      - P O W E R E D   B Y -                         
                 /     \                                                     
                 |  |  |   _    _      __       _____    __    __             
                 |  |  |  | |  | |    /  \     |  _  \  |  |  /  |          
                  \  \/   | |  | |   /    \    | | | |  |  | /  /          
                 / \  \   | |__| |  /  /\  \   | |_| |  |  |/  /          
                |  |  |   |  __  | /  /__\  \  |    /   |      \           
                |  |  |   | |  | | |   __   |  |    \   |  |\   \          
                \     /   | |  | | |  |  |  |  | |\  \  |  | \   \       
                 \___/    |_|  |_| |__|  |__|  |_| \__\ |__|  \__/        
                                                                              
                      - O R C A' S   B I G   F R I E N D -                    
                                      &                                       
                       - I N T E G R A L  F E E D E R -                       
                                                                              
 v1 FN, 2020, v2 2021                                                         
------------------------------------------------------------------------------


Reading SHARK input file A_neg.SHARKINP.tmp ... ok
----------------------
SHARK INTEGRAL PACKAGE
----------------------

Number of atoms                             ...      8
Number of basis functions                   ...     89
Number of shells                            ...     41
Maximum angular momentum                    ...      2
Integral batch strategy                     ... SHARK/LIBINT Hybrid
RI-J (if used) integral strategy            ... SPLIT-RIJ (Revised 2003 algorithm where possible)
Printlevel                                  ...      1
Contraction scheme used                     ... SEGMENTED contraction
Coulomb Range Separation                    ... NOT USED
Exchange Range Separation                   ... Long Range
   Mu parameter                             ...  0.250000
   Scaling (regular/separated)              ...  0.195728  0.804272
Finite Nucleus Model                        ... NOT USED
Auxiliary Coulomb fitting basis             ... AVAILABLE
   # of basis functions in Aux-J            ...    280
   # of shells in Aux-J                     ...     92
   Maximum angular momentum in Aux-J        ...      4
Auxiliary J/K fitting basis                 ... NOT available
Auxiliary Correlation fitting basis         ... NOT available
Auxiliary 'external' fitting basis          ... NOT available
Integral threshold                          ...     2.500000e-11
Primitive cut-off                           ...     2.500000e-12
Primitive pair pre-selection threshold      ...     2.500000e-12

Calculating pre-screening integrals         ... done (  0.0 sec) Dimension = 41
Organizing shell pair data                  ... done (  0.0 sec)
Shell pair information
Total number of shell pairs                 ...       861
Shell pairs after pre-screening             ...       848
Total number of primitive shell pairs       ...      3405
Primitive shell pairs kept                  ...      2607
          la=0 lb=0:    243 shell pairs
          la=1 lb=0:    305 shell pairs
          la=1 lb=1:    105 shell pairs
          la=2 lb=0:    110 shell pairs
          la=2 lb=1:     70 shell pairs
          la=2 lb=2:     15 shell pairs

Calculating one electron integrals          ... done (  0.0 sec)
Calculating RI/J V-Matrix + Cholesky decomp.... done (  0.0 sec)
Calculating Nuclear repulsion               ... done (  0.0 sec) ENN=    272.178541138223 Eh

SHARK setup successfully completed in   0.1 seconds

Maximum memory used throughout the entire GTOINT-calculation: 8.8 MB


           ************************************************************
           *        Program running with 8 parallel MPI-processes     *
           *              working on a common directory               *
           ************************************************************
-------------------------------------------------------------------------------
                                 ORCA SCF
-------------------------------------------------------------------------------

------------
SCF SETTINGS
------------
Hamiltonian:
 Density Functional     Method          .... DFT(GTOs)
 Exchange Functional    Exchange        .... WB97X-D3
 Correlation Functional Correlation     .... WB97X-D3
 Gradients option       PostSCFGGA      .... off
 Hybrid DFT is turned on
   Fraction HF Exchange ScalHFX         ....  0.195728
   Scaling of DF-GGA-X  ScalDFX         ....  0.000000
   Scaling of DF-GGA-C  ScalDFC         ....  1.000000
   Scaling of DF-LDA-C  ScalLDAC        ....  1.000000
   Perturbative correction              ....  0.000000
   Density functional embedding theory  .... OFF
 Long-range corrected/Screened/Range-Separated Hybrid DFT is turned on
   Amount of maximum screened exact exchange              ....  0.804272
   Range separation parameter mu (erf(mu*r12)/r12)        ....  0.250000
 RI-approximation to the Coulomb term is turned on
   Number of AuxJ basis functions       .... 280
   RIJ-COSX (HFX calculated with COS-X)).... on


General Settings:
 Integral files         IntName         .... A_neg
 Hartree-Fock type      HFTyp           .... RHF
 Total Charge           Charge          ....   -1
 Multiplicity           Mult            ....    1
 Number of Electrons    NEL             ....   50
 Basis Dimension        Dim             ....   89
 Nuclear Repulsion      ENuc            ....    272.1785411382 Eh

Convergence Acceleration:
 DIIS                   CNVDIIS         .... on
   Start iteration      DIISMaxIt       ....    12
   Startup error        DIISStart       ....  0.200000
   # of expansion vecs  DIISMaxEq       ....     5
   Bias factor          DIISBfac        ....   1.050
   Max. coefficient     DIISMaxC        ....  10.000
 Trust-Rad. Augm. Hess. CNVTRAH         .... auto
   Auto Start mean grad. ratio tolernc. ....  1.125000
   Auto Start start iteration           ....    20
   Auto Start num. interpolation iter.  ....    10
   Max. Number of Micro iterations      ....    16
   Max. Number of Macro iterations      .... Maxiter - #DIIS iter
   Number of Davidson start vectors     ....     2
   Converg. threshold I  (grad. norm)   ....   1.000e-05
   Converg. threshold II (energy diff.) ....   1.000e-08
   Grad. Scal. Fac. for Micro threshold ....   0.100
   Minimum threshold for Micro iter.    ....   0.010
   NR start threshold (gradient norm)   ....   0.001
   Initial trust radius                 ....   0.400
   Minimum AH scaling param. (alpha)    ....   1.000
   Maximum AH scaling param. (alpha)    .... 1000.000
   Orbital update algorithm             .... Taylor
   White noise on init. David. guess    .... on
   Maximum white noise                  ....   0.010
   Quad. conv. algorithm                .... NR
 SOSCF                  CNVSOSCF        .... on
   Start iteration      SOSCFMaxIt      ....   150
   Startup grad/error   SOSCFStart      ....  0.003300
 Level Shifting         CNVShift        .... on
   Level shift para.    LevelShift      ....    0.2500
   Turn off err/grad.   ShiftErr        ....    0.0010
 Zerner damping         CNVZerner       .... off
 Static damping         CNVDamp         .... on
   Fraction old density DampFac         ....    0.7000
   Max. Damping (<1)    DampMax         ....    0.9800
   Min. Damping (>=0)   DampMin         ....    0.0000
   Turn off err/grad.   DampErr         ....    0.1000
 Fernandez-Rico         CNVRico         .... off

SCF Procedure:
 Maximum # iterations   MaxIter         ....   150
 SCF integral mode      SCFMode         .... Direct
   Integral package                     .... SHARK and LIBINT hybrid scheme
 Reset frequency        DirectResetFreq ....    20
 Integral Threshold     Thresh          ....  2.500e-11 Eh
 Primitive CutOff       TCut            ....  2.500e-12 Eh

Convergence Tolerance:
 Convergence Check Mode ConvCheckMode   .... Total+1el-Energy
 Convergence forced     ConvForced      .... 0
 Energy Change          TolE            ....  1.000e-08 Eh
 1-El. energy change                    ....  1.000e-05 Eh
 Orbital Gradient       TolG            ....  1.000e-05
 Orbital Rotation angle TolX            ....  1.000e-05
 DIIS Error             TolErr          ....  5.000e-07


Diagonalization of the overlap matrix:
Smallest eigenvalue                        ... 5.202e-03
Time for diagonalization                   ...    0.002 sec
Threshold for overlap eigenvalues          ... 1.000e-08
Number of eigenvalues below threshold      ... 0
Time for construction of square roots      ...    0.003 sec
Total time needed                          ...    0.006 sec

Time for model grid setup =    0.037 sec

------------------------------
INITIAL GUESS: MODEL POTENTIAL
------------------------------
Loading Hartree-Fock densities                     ... done
Calculating cut-offs                               ... done
Initializing the effective Hamiltonian             ... done
Setting up the integral package (SHARK)            ... done
Starting the Coulomb interaction                   ... done (   0.0 sec)
Reading the grid                                   ... done
Mapping shells                                     ... done
Starting the XC term evaluation                    ... done (   0.0 sec)
  promolecular density results
     # of electrons  =     48.998584604
     EX              =    -55.456659241
     EC              =     -1.753783893
     EX+EC           =    -57.210443134
Transforming the Hamiltonian                       ... done (   0.0 sec)
Diagonalizing the Hamiltonian                      ... done (   0.0 sec)
Back transforming the eigenvectors                 ... done (   0.0 sec)
Now organizing SCF variables                       ... done
                      ------------------
                      INITIAL GUESS DONE (   0.1 sec)
                      ------------------
-------------------
DFT GRID GENERATION
-------------------

General Integration Accuracy     IntAcc      ... 4.388
Radial Grid Type                 RadialGrid  ... OptM3 with GC (2021)
Angular Grid (max. ang.)         AngularGrid ... 4 (Lebedev-302)
Angular grid pruning method      GridPruning ... 4 (adaptive)
Weight generation scheme         WeightScheme... Becke
Basis function cutoff            BFCut       ... 1.0000e-11
Integration weight cutoff        WCut        ... 1.0000e-14
Angular grids for H and He will be reduced by one unit
Partially contracted basis set               ... off
Rotationally invariant grid construction     ... off

Total number of grid points                  ...    41477
Total number of batches                      ...      652
Average number of points per batch           ...       63
Average number of grid points per atom       ...     5185
Time for grid setup =    0.236 sec

--------------------
COSX GRID GENERATION
--------------------

GRIDX 1
-------
General Integration Accuracy     IntAcc      ... 3.816
Radial Grid Type                 RadialGrid  ... OptM3 with GC (2021)
Angular Grid (max. ang.)         AngularGrid ... 1 (Lebedev-50)
Angular grid pruning method      GridPruning ... 4 (adaptive)
Weight generation scheme         WeightScheme... Becke
Basis function cutoff            BFCut       ... 1.0000e-11
Integration weight cutoff        WCut        ... 1.0000e-14
Angular grids for H and He will be reduced by one unit
Partially contracted basis set               ... on
Rotationally invariant grid construction     ... off

Total number of grid points                  ...     5203
Total number of batches                      ...       86
Average number of points per batch           ...       60
Average number of grid points per atom       ...      650
UseSFitting                                  ... on

GRIDX 2
-------
General Integration Accuracy     IntAcc      ... 4.020
Radial Grid Type                 RadialGrid  ... OptM3 with GC (2021)
Angular Grid (max. ang.)         AngularGrid ... 2 (Lebedev-110)
Angular grid pruning method      GridPruning ... 4 (adaptive)
Weight generation scheme         WeightScheme... Becke
Basis function cutoff            BFCut       ... 1.0000e-11
Integration weight cutoff        WCut        ... 1.0000e-14
Angular grids for H and He will be reduced by one unit
Partially contracted basis set               ... on
Rotationally invariant grid construction     ... off

Total number of grid points                  ...    11712
Total number of batches                      ...      187
Average number of points per batch           ...       62
Average number of grid points per atom       ...     1464
UseSFitting                                  ... on

GRIDX 3
-------
General Integration Accuracy     IntAcc      ... 4.338
Radial Grid Type                 RadialGrid  ... OptM3 with GC (2021)
Angular Grid (max. ang.)         AngularGrid ... 3 (Lebedev-194)
Angular grid pruning method      GridPruning ... 4 (adaptive)
Weight generation scheme         WeightScheme... Becke
Basis function cutoff            BFCut       ... 1.0000e-11
Integration weight cutoff        WCut        ... 1.0000e-14
Angular grids for H and He will be reduced by one unit
Partially contracted basis set               ... on
Rotationally invariant grid construction     ... off

Total number of grid points                  ...    26533
Total number of batches                      ...      418
Average number of points per batch           ...       63
Average number of grid points per atom       ...     3317
UseSFitting                                  ... on

Time for X-Grid setup             =    0.168 sec

--------------
SCF ITERATIONS
--------------
ITER       Energy         Delta-E        Max-DP      RMS-DP      [F,P]     Damp
               ***  Starting incremental Fock matrix formation  ***
  0   -663.0251178739   0.000000000000 0.13163364  0.00481330  0.2935219 0.7000
  1   -663.1724452475  -0.147327373615 0.07147173  0.00302991  0.1439094 0.7000
                               ***Turning on DIIS***
  2   -663.2355081419  -0.063062894402 0.07716996  0.00478772  0.0573422 0.0000
  3   -663.3379870879  -0.102478945907 0.06714585  0.00222838  0.0695190 0.0000
  4   -663.3555462371  -0.017559149255 0.01509920  0.00041252  0.0107590 0.0000
                      *** Initiating the SOSCF procedure ***
                           *** Shutting down DIIS ***
                      *** Re-Reading the Fockian *** 
                      *** Removing any level shift *** 
ITER      Energy       Delta-E        Grad      Rot      Max-DP    RMS-DP
  5   -663.35593188  -0.0003856451  0.000972  0.000972  0.002632  0.000148
               *** Restarting incremental Fock matrix formation ***
  6   -663.35596616  -0.0000342776  0.000416  0.000851  0.002201  0.000103
  7   -663.35597081  -0.0000046514  0.000173  0.000540  0.001493  0.000067
  8   -663.35597127  -0.0000004631  0.000141  0.000101  0.000253  0.000015
  9   -663.35597156  -0.0000002814  0.000034  0.000027  0.000163  0.000006
 10   -663.35597157  -0.0000000181  0.000015  0.000020  0.000058  0.000003
                  ***Gradient check signals convergence***
              ***Rediagonalizing the Fockian in SOSCF/NRSCF***

               *****************************************************
               *                     SUCCESS                       *
               *           SCF CONVERGED AFTER  11 CYCLES          *
               *****************************************************

Old exchange energy                            =    -16.475616203 Eh
New exchange energy                            =    -16.475639457 Eh
Exchange energy change after final integration =     -0.000023254 Eh
Total energy after final integration           =   -663.355994831 Eh
Final COS-X integration done in                =     0.564 sec

----------------
TOTAL SCF ENERGY
----------------

Total Energy       :         -663.35599483 Eh          -18050.83431 eV

Components:
Nuclear Repulsion  :          272.17854114 Eh            7406.35464 eV
Electronic Energy  :         -935.53453597 Eh          -25457.18894 eV
One Electron Energy:        -1465.23209418 Eh          -39870.99228 eV
Two Electron Energy:          529.69755821 Eh           14413.80334 eV
Max COSX asymmetry :            0.00000389 Eh               0.00011 eV

Virial components:
Potential Energy   :        -1324.08127788 Eh          -36030.08331 eV
Kinetic Energy     :          660.72528305 Eh           17979.24900 eV
Virial Ratio       :            2.00398155


DFT components:
N(Alpha)           :       25.000006300237 electrons
N(Beta)            :       25.000006300237 electrons
N(Total)           :       50.000012600475 electrons
E(XC)              :      -41.976034137071 Eh       
DFET-embed. en.    :        0.000000000000 Eh       

---------------
SCF CONVERGENCE
---------------

  Last Energy change         ...   -2.4538e-09  Tolerance :   1.0000e-08
  Last MAX-Density change    ...    8.8818e-15  Tolerance :   1.0000e-07
  Last RMS-Density change    ...    1.3373e-16  Tolerance :   5.0000e-09
  Last Orbital Gradient      ...    2.4198e-06  Tolerance :   1.0000e-05
  Last Orbital Rotation      ...    2.8392e-06  Tolerance :   1.0000e-05

             **** THE GBW FILE WAS UPDATED (A_neg.gbw) ****
             **** DENSITY A_neg.scfp WAS UPDATED ****
             **** ENERGY FILE WAS UPDATED (A_neg.en.tmp) ****
             **** THE GBW FILE WAS UPDATED (A_neg.gbw) ****
             **** DENSITY A_neg.scfp WAS UPDATED ****
----------------
ORBITAL ENERGIES
----------------

  NO   OCC          E(Eh)            E(eV) 
   0   2.0000     -88.936437     -2420.0835 
   1   2.0000     -18.987072      -516.6645 
   2   2.0000     -18.986924      -516.6605 
   3   2.0000     -18.970288      -516.2078 
   4   2.0000     -10.121667      -275.4246 
   5   2.0000      -8.016781      -218.1477 
   6   2.0000      -5.975866      -162.6116 
   7   2.0000      -5.975654      -162.6058 
   8   2.0000      -5.975506      -162.6018 
   9   2.0000      -1.018560       -27.7164 
  10   2.0000      -0.877316       -23.8730 
  11   2.0000      -0.848628       -23.0923 
  12   2.0000      -0.675977       -18.3943 
  13   2.0000      -0.467741       -12.7279 
  14   2.0000      -0.381006       -10.3677 
  15   2.0000      -0.372690       -10.1414 
  16   2.0000      -0.371593       -10.1116 
  17   2.0000      -0.322742        -8.7822 
  18   2.0000      -0.320505        -8.7214 
  19   2.0000      -0.218979        -5.9587 
  20   2.0000      -0.216843        -5.9006 
  21   2.0000      -0.182509        -4.9663 
  22   2.0000      -0.175071        -4.7639 
  23   2.0000      -0.163309        -4.4439 
  24   2.0000      -0.126961        -3.4548 
  25   0.0000       0.313958         8.5432 
  26   0.0000       0.364348         9.9144 
  27   0.0000       0.366393         9.9701 
  28   0.0000       0.401420        10.9232 
  29   0.0000       0.469712        12.7815 
  30   0.0000       0.484576        13.1860 
  31   0.0000       0.506667        13.7871 
  32   0.0000       0.705559        19.1992 
  33   0.0000       0.714762        19.4497 
  34   0.0000       0.717533        19.5251 
  35   0.0000       0.727762        19.8034 
  36   0.0000       0.905865        24.6498 
  37   0.0000       0.923467        25.1288 
  38   0.0000       0.925571        25.1861 
  39   0.0000       0.990969        26.9656 
  40   0.0000       0.999517        27.1982 
  41   0.0000       1.010546        27.4984 
  42   0.0000       1.016780        27.6680 
  43   0.0000       1.020709        27.7749 
  44   0.0000       1.070524        29.1304 
  45   0.0000       1.163841        31.6697 
  46   0.0000       1.169584        31.8260 
  47   0.0000       1.248687        33.9785 
  48   0.0000       1.289213        35.0813 
  49   0.0000       1.302898        35.4536 
  50   0.0000       1.367456        37.2104 
  51   0.0000       1.373890        37.3854 
  52   0.0000       1.389432        37.8084 
  53   0.0000       1.420635        38.6574 
  54   0.0000       1.456025        39.6205 
  55   0.0000       1.460626        39.7456 
  56   0.0000       1.552389        42.2427 
  57   0.0000       1.629108        44.3303 
  58   0.0000       1.639795        44.6211 
  59   0.0000       1.780435        48.4481 
  60   0.0000       1.788636        48.6713 
  61   0.0000       1.814544        49.3762 
  62   0.0000       1.872593        50.9559 
  63   0.0000       2.041361        55.5482 
  64   0.0000       2.042791        55.5872 
  65   0.0000       2.120727        57.7079 
  66   0.0000       2.244523        61.0766 
  67   0.0000       2.245857        61.1129 
  68   0.0000       2.522281        68.6347 
  69   0.0000       2.706016        73.6344 
  70   0.0000       2.706881        73.6580 
  71   0.0000       2.901975        78.9668 
  72   0.0000       2.950741        80.2938 
  73   0.0000       2.952344        80.3374 
  74   0.0000       2.957611        80.4807 
  75   0.0000       2.968846        80.7864 
  76   0.0000       2.974974        80.9532 
  77   0.0000       2.986606        81.2697 
  78   0.0000       3.034680        82.5778 
  79   0.0000       3.084045        83.9211 
  80   0.0000       3.101693        84.4013 
  81   0.0000       3.193233        86.8923 
  82   0.0000       3.227935        87.8366 
  83   0.0000       3.234033        88.0025 
  84   0.0000       3.368482        91.6611 
  85   0.0000       3.384291        92.0913 
  86   0.0000       3.560770        96.8935 
  87   0.0000       3.761099       102.3447 
  88   0.0000       3.778089       102.8070 

                    ********************************
                    * MULLIKEN POPULATION ANALYSIS *
                    ********************************

-----------------------
MULLIKEN ATOMIC CHARGES
-----------------------
   0 C :   -0.076068
   1 S :    0.865082
   2 O :   -0.590869
   3 O :   -0.589299
   4 O :   -0.636841
   5 H :    0.011942
   6 H :    0.005306
   7 H :    0.010748
Sum of atomic charges:   -1.0000000

--------------------------------
MULLIKEN REDUCED ORBITAL CHARGES
--------------------------------
  0 C s       :     3.004038  s :     3.004038
      pz      :     1.010345  p :     3.045812
      px      :     1.017316
      py      :     1.018151
      dz2     :     0.007433  d :     0.026218
      dxz     :     0.006475
      dyz     :     0.001261
      dx2y2   :     0.004099
      dxy     :     0.006950
  1 S s       :     5.292137  s :     5.292137
      pz      :     3.006862  p :     8.978361
      px      :     3.013281
      py      :     2.958217
      dz2     :     0.152187  d :     0.864420
      dxz     :     0.184639
      dyz     :     0.163571
      dx2y2   :     0.185544
      dxy     :     0.178479
  2 O s       :     3.814553  s :     3.814553
      pz      :     1.719711  p :     4.759334
      px      :     1.702564
      py      :     1.337059
      dz2     :     0.001961  d :     0.016982
      dxz     :     0.000385
      dyz     :     0.004430
      dx2y2   :     0.005487
      dxy     :     0.004720
  3 O s       :     3.813898  s :     3.813898
      pz      :     1.711229  p :     4.758403
      px      :     1.524847
      py      :     1.522326
      dz2     :     0.002007  d :     0.016999
      dxz     :     0.002523
      dyz     :     0.002503
      dx2y2   :     0.004432
      dxy     :     0.005534
  4 O s       :     3.835337  s :     3.835337
      pz      :     1.401884  p :     4.786296
      px      :     1.649586
      py      :     1.734826
      dz2     :     0.005301  d :     0.015208
      dxz     :     0.004778
      dyz     :     0.003252
      dx2y2   :     0.000974
      dxy     :     0.000904
  5 H s       :     0.963190  s :     0.963190
      pz      :     0.005420  p :     0.024868
      px      :     0.009833
      py      :     0.009615
  6 H s       :     0.969655  s :     0.969655
      pz      :     0.012726  p :     0.025039
      px      :     0.006711
      py      :     0.005601
  7 H s       :     0.964374  s :     0.964374
      pz      :     0.005264  p :     0.024878
      px      :     0.005946
      py      :     0.013667


                     *******************************
                     * LOEWDIN POPULATION ANALYSIS *
                     *******************************

----------------------
LOEWDIN ATOMIC CHARGES
----------------------
   0 C :   -0.215366
   1 S :    1.099063
   2 O :   -0.618432
   3 O :   -0.617799
   4 O :   -0.666152
   5 H :    0.007738
   6 H :    0.003888
   7 H :    0.007061

-------------------------------
LOEWDIN REDUCED ORBITAL CHARGES
-------------------------------
  0 C s       :     2.891479  s :     2.891479
      pz      :     1.083489  p :     3.256723
      px      :     1.085648
      py      :     1.087586
      dz2     :     0.019081  d :     0.067164
      dxz     :     0.016572
      dyz     :     0.003026
      dx2y2   :     0.010443
      dxy     :     0.018041
  1 S s       :     4.994796  s :     4.994796
      pz      :     2.928252  p :     8.767728
      px      :     2.929177
      py      :     2.910299
      dz2     :     0.203280  d :     1.138414
      dxz     :     0.251372
      dyz     :     0.200520
      dx2y2   :     0.243555
      dxy     :     0.239687
  2 O s       :     3.666116  s :     3.666116
      pz      :     1.732163  p :     4.925157
      px      :     1.721090
      py      :     1.471903
      dz2     :     0.003933  d :     0.027159
      dxz     :     0.000532
      dyz     :     0.005515
      dx2y2   :     0.010425
      dxy     :     0.006754
  3 O s       :     3.665973  s :     3.665973
      pz      :     1.726587  p :     4.924634
      px      :     1.598110
      py      :     1.599937
      dz2     :     0.003770  d :     0.027193
      dxz     :     0.003462
      dyz     :     0.003303
      dx2y2   :     0.005328
      dxy     :     0.011330
  4 O s       :     3.693955  s :     3.693955
      pz      :     1.500089  p :     4.947860
      px      :     1.684450
      py      :     1.763321
      dz2     :     0.008743  d :     0.024337
      dxz     :     0.008496
      dyz     :     0.004471
      dx2y2   :     0.001348
      dxy     :     0.001280
  5 H s       :     0.918792  s :     0.918792
      pz      :     0.015807  p :     0.073471
      px      :     0.032088
      py      :     0.025575
  6 H s       :     0.922373  s :     0.922373
      pz      :     0.040235  p :     0.073739
      px      :     0.019056
      py      :     0.014447
  7 H s       :     0.919416  s :     0.919416
      pz      :     0.015547  p :     0.073523
      px      :     0.019643
      py      :     0.038333


                      *****************************
                      * MAYER POPULATION ANALYSIS *
                      *****************************

  NA   - Mulliken gross atomic population
  ZA   - Total nuclear charge
  QA   - Mulliken gross atomic charge
  VA   - Mayer's total valence
  BVA  - Mayer's bonded valence
  FA   - Mayer's free valence

  ATOM       NA         ZA         QA         VA         BVA        FA
  0 C      6.0761     6.0000    -0.0761     3.9307     3.9307     0.0000
  1 S     15.1349    16.0000     0.8651     5.8224     5.8224    -0.0000
  2 O      8.5909     8.0000    -0.5909     1.7931     1.7931    -0.0000
  3 O      8.5893     8.0000    -0.5893     1.7944     1.7944    -0.0000
  4 O      8.6368     8.0000    -0.6368     1.7469     1.7469    -0.0000
  5 H      0.9881     1.0000     0.0119     1.0070     1.0070    -0.0000
  6 H      0.9947     1.0000     0.0053     1.0033     1.0033     0.0000
  7 H      0.9893     1.0000     0.0107     1.0066     1.0066     0.0000

  Mayer bond orders larger than 0.100000
B(  0-C ,  1-S ) :   0.9122 B(  0-C ,  5-H ) :   0.9670 B(  0-C ,  6-H ) :   0.9640 
B(  0-C ,  7-H ) :   0.9667 B(  1-S ,  2-O ) :   1.6381 B(  1-S ,  3-O ) :   1.6402 
B(  1-S ,  4-O ) :   1.5915 

-------
TIMINGS
-------

Total SCF time: 0 days 0 hours 0 min 4 sec 

Total time                  ....       4.454 sec
Sum of individual times     ....       4.330 sec  ( 97.2%)

Fock matrix formation       ....       3.812 sec  ( 85.6%)
  Split-RI-J                ....       0.306 sec  (  8.0% of F)
  Chain of spheres X        ....       2.971 sec  ( 77.9% of F)
  XC integration            ....       0.513 sec  ( 13.5% of F)
    Basis function eval.    ....       0.172 sec  ( 33.6% of XC)
    Density eval.           ....       0.081 sec  ( 15.9% of XC)
    XC-Functional eval.     ....       0.099 sec  ( 19.3% of XC)
    XC-Potential eval.      ....       0.074 sec  ( 14.4% of XC)
Diagonalization             ....       0.016 sec  (  0.4%)
Density matrix formation    ....       0.002 sec  (  0.0%)
Population analysis         ....       0.004 sec  (  0.1%)
Initial guess               ....       0.026 sec  (  0.6%)
Orbital Transformation      ....       0.000 sec  (  0.0%)
Orbital Orthonormalization  ....       0.000 sec  (  0.0%)
DIIS solution               ....       0.015 sec  (  0.3%)
SOSCF solution              ....       0.013 sec  (  0.3%)
Grid generation             ....       0.441 sec  (  9.9%)

Maximum memory used throughout the entire SCF-calculation: 46.3 MB


-------------------------------------------------------------------------------
                          DFT DISPERSION CORRECTION                            
                                                                               
                              DFTD3 V3.1  Rev 1                                
                              USING zero damping                               
-------------------------------------------------------------------------------
The omegaB97X-D3 functional is recognized. Fit by Chai et al.
Active option DFTDOPT                   ...         3   

molecular C6(AA) [au] = 976.252849 


            DFT-D V3
 parameters
 s6 scaling factor         :     1.0000 
 rs6 scaling factor        :     1.2810 
 s8 scaling factor         :     1.0000 
 rs8 scaling factor        :     1.0940 
 Damping factor alpha6     :    14.0000 
 Damping factor alpha8     :    16.0000 
 ad hoc parameters k1-k3   :    16.0000     1.3333    -4.0000 

 Edisp/kcal,au: -0.957048155519  -0.001525153154 
 E6   /kcal   :  -0.303500652 
 E8   /kcal   :  -0.653547503 
 % E8         :  68.287838956 

-------------------------   ----------------
Dispersion correction           -0.001525153
-------------------------   ----------------


-------------------------   --------------------
FINAL SINGLE POINT ENERGY      -663.357519983804
-------------------------   --------------------


                            ***************************************
                            *     ORCA property calculations      *
                            ***************************************

                                    ---------------------
                                    Active property flags
                                    ---------------------
   (+) Dipole Moment


------------------------------------------------------------------------------
                       ORCA ELECTRIC PROPERTIES CALCULATION
------------------------------------------------------------------------------

Dipole Moment Calculation                       ... on
Quadrupole Moment Calculation                   ... off
Polarizability Calculation                      ... off
GBWName                                         ... A_neg.gbw
Electron density file                           ... A_neg.scfp
The origin for moment calculation is the CENTER OF MASS  = ( 1.273525,  0.308381 -6.121454)

-------------
DIPOLE MOMENT
-------------
                                X             Y             Z
Electronic contribution:     -3.27615      -0.73950      -2.90845
Nuclear contribution   :      4.08143       0.90272       3.93680
                        -----------------------------------------
Total Dipole Moment    :      0.80528       0.16322       1.02835
                        -----------------------------------------
Magnitude (a.u.)       :      1.31629
Magnitude (Debye)      :      3.34574



--------------------
Rotational spectrum 
--------------------
 
Rotational constants in cm-1:     0.171796     0.158241     0.155560 
Rotational constants in MHz :  5150.307583  4743.954688  4663.569252 

 Dipole components along the rotational axes: 
x,y,z [a.u.] :     1.310008     0.065673     0.110383 
x,y,z [Debye]:     3.329776     0.166926     0.280571 

 

Timings for individual modules:

Sum of individual times         ...        5.341 sec (=   0.089 min)
GTO integral calculation        ...        0.513 sec (=   0.009 min)   9.6 %
SCF iterations                  ...        4.828 sec (=   0.080 min)  90.4 %
                             ****ORCA TERMINATED NORMALLY****
TOTAL RUN TIME: 0 days 0 hours 0 minutes 5 seconds 880 msec
