
                                        *****************
                                        * O   R   C   A *
                                        *****************

                                            #,                                       
                                            ###                                      
                                            ####                                     
                                            #####                                    
                                            ######                                   
                                           ########,                                 
                                     ,,################,,,,,                         
                               ,,#################################,,                 
                          ,,##########################################,,             
                       ,#########################################, ''#####,          
                    ,#############################################,,   '####,        
                  ,##################################################,,,,####,       
                ,###########''''           ''''###############################       
              ,#####''   ,,,,##########,,,,          '''####'''          '####       
            ,##' ,,,,###########################,,,                        '##       
           ' ,,###''''                  '''############,,,                           
         ,,##''                                '''############,,,,        ,,,,,,###''
      ,#''                                            '''#######################'''  
     '                                                          ''''####''''         
             ,#######,   #######,   ,#######,      ##                                
            ,#'     '#,  ##    ##  ,#'     '#,    #''#        ######   ,####,        
            ##       ##  ##   ,#'  ##            #'  '#       #        #'  '#        
            ##       ##  #######   ##           ,######,      #####,   #    #        
            '#,     ,#'  ##    ##  '#,     ,#' ,#      #,         ##   #,  ,#        
             '#######'   ##     ##  '#######'  #'      '#     #####' # '####'        



                  #######################################################
                  #                        -***-                        #
                  #          Department of theory and spectroscopy      #
                  #    Directorship and core code : Frank Neese         #
                  #        Max Planck Institute fuer Kohlenforschung    #
                  #                Kaiser Wilhelm Platz 1               #
                  #                 D-45470 Muelheim/Ruhr               #
                  #                      Germany                        #
                  #                                                     #
                  #                  All rights reserved                #
                  #                        -***-                        #
                  #######################################################


                         Program Version 5.0.0 -  RELEASE  -
                                (SVN: $Rev: 19529$)
                ($Date: 2021-06-28 11:36:33 +0200 (Mo, 28 Jun 2021) $)


 With contributions from (in alphabetic order):
   Daniel Aravena         : Magnetic Suceptibility
   Michael Atanasov       : Ab Initio Ligand Field Theory (pilot matlab implementation)
   Alexander A. Auer      : GIAO ZORA, VPT2 properties, NMR spectrum
   Ute Becker             : Parallelization
   Giovanni Bistoni       : ED, misc. LED, open-shell LED, HFLD
   Martin Brehm           : Molecular dynamics
   Dmytro Bykov           : SCF Hessian
   Vijay G. Chilkuri      : MRCI spin determinant printing, contributions to CSF-ICE
   Dipayan Datta          : RHF DLPNO-CCSD density
   Achintya Kumar Dutta   : EOM-CC, STEOM-CC
   Dmitry Ganyushin       : Spin-Orbit,Spin-Spin,Magnetic field MRCI
   Miquel Garcia          : C-PCM Hessian, Gaussian charge scheme
   Yang Guo               : DLPNO-NEVPT2, F12-NEVPT2, CIM, IAO-localization
   Andreas Hansen         : Spin unrestricted coupled pair/coupled cluster methods
   Benjamin Helmich-Paris : MC-RPA, TRAH-SCF, COSX integrals
   Lee Huntington         : MR-EOM, pCC
   Robert Izsak           : Overlap fitted RIJCOSX, COSX-SCS-MP3, EOM
   Marcus Kettner         : VPT2
   Christian Kollmar      : KDIIS, OOCD, Brueckner-CCSD(T), CCSD density, CASPT2, CASPT2-K
   Simone Kossmann        : Meta GGA functionals, TD-DFT gradient, OOMP2, MP2 Hessian
   Martin Krupicka        : Initial AUTO-CI
   Lucas Lang             : DCDCAS
   Marvin Lechner         : AUTO-CI (C++ implementation), FIC-MRCC
   Dagmar Lenk            : GEPOL surface, SMD
   Dimitrios Liakos       : Extrapolation schemes; Compound Job, initial MDCI parallelization
   Dimitrios Manganas     : Further ROCIS development; embedding schemes
   Dimitrios Pantazis     : SARC Basis sets
   Anastasios Papadopoulos: AUTO-CI, single reference methods and gradients
   Taras Petrenko         : DFT Hessian,TD-DFT gradient, ASA, ECA, R-Raman, ABS, FL, XAS/XES, NRVS
   Peter Pinski           : DLPNO-MP2, DLPNO-MP2 Gradient
   Christoph Reimann      : Effective Core Potentials
   Marius Retegan         : Local ZFS, SOC
   Christoph Riplinger    : Optimizer, TS searches, QM/MM, DLPNO-CCSD(T), (RO)-DLPNO pert. Triples
   Tobias Risthaus        : Range-separated hybrids, TD-DFT gradient, RPA, STAB
   Michael Roemelt        : Original ROCIS implementation
   Masaaki Saitow         : Open-shell DLPNO-CCSD energy and density
   Barbara Sandhoefer     : DKH picture change effects
   Avijit Sen             : IP-ROCIS
   Kantharuban Sivalingam : CASSCF convergence, NEVPT2, FIC-MRCI
   Bernardo de Souza      : ESD, SOC TD-DFT
   Georgi Stoychev        : AutoAux, RI-MP2 NMR
   Willem Van den Heuvel  : Paramagnetic NMR
   Boris Wezisla          : Elementary symmetry handling
   Frank Wennmohs         : Technical directorship


 We gratefully acknowledge several colleagues who have allowed us to
 interface, adapt or use parts of their codes:
   Stefan Grimme, W. Hujo, H. Kruse, P. Pracht,  : VdW corrections, initial TS optimization,
                  C. Bannwarth, S. Ehlert          DFT functionals, gCP, sTDA/sTD-DF
   Ed Valeev, F. Pavosevic, A. Kumar             : LibInt (2-el integral package), F12 methods
   Garnet Chan, S. Sharma, J. Yang, R. Olivares  : DMRG
   Ulf Ekstrom                                   : XCFun DFT Library
   Mihaly Kallay                                 : mrcc  (arbitrary order and MRCC methods)
   Jiri Pittner, Ondrej Demel                    : Mk-CCSD
   Frank Weinhold                                : gennbo (NPA and NBO analysis)
   Christopher J. Cramer and Donald G. Truhlar   : smd solvation model
   Lars Goerigk                                  : TD-DFT with DH, B97 family of functionals
   V. Asgeirsson, H. Jonsson                     : NEB implementation
   FAccTs GmbH                                   : IRC, NEB, NEB-TS, DLPNO-Multilevel, CI-OPT
                                                   MM, QMMM, 2- and 3-layer-ONIOM, Crystal-QMMM,
                                                   LR-CPCM, SF, NACMEs, symmetry and pop. for TD-DFT,
                                                   nearIR, NL-DFT gradient (VV10), updates on ESD,
                                                   ML-optimized integration grids
   S Lehtola, MJT Oliveira, MAL Marques          : LibXC Library
   Liviu Ungur et al                             : ANISO software


 Your calculation uses the libint2 library for the computation of 2-el integrals
 For citations please refer to: http://libint.valeyev.net

 Your ORCA version has been built with support for libXC version: 5.1.0
 For citations please refer to: https://tddft.org/programs/libxc/

 This ORCA versions uses:
   CBLAS   interface :  Fast vector & matrix operations
   LAPACKE interface :  Fast linear algebra routines
   SCALAPACK package :  Parallel linear algebra routines
   Shared memory     :  Shared parallel matrices
   BLAS/LAPACK       :  OpenBLAS 0.3.15  USE64BITINT DYNAMIC_ARCH NO_AFFINITY Haswell SINGLE_THREADED
        Core in use  :  Haswell
   Copyright (c) 2011-2014, The OpenBLAS Project




***************************************
The coordinates will be read from file: D1.xyz
***************************************


Your calculation utilizes the atom-pairwise dispersion correction
with the Becke-Johnson damping scheme (D3BJ)
Cite in your paper:
S.Grimme, S.Ehrlich, L.Goerigk, J Comput Chem, (2011), 32, 1456–1465 
S.Grimme, J.Antony, S.Ehrlich and H.Krieg, J.Chem.Phys., 132, (2010), 154104 
   

================================================================================

----- Orbital basis set information -----
Your calculation utilizes the basis: def2-TZVP
   F. Weigend and R. Ahlrichs, Phys. Chem. Chem. Phys. 7, 3297 (2005).

----- AuxJ basis set information -----
Your calculation utilizes the auxiliary basis: def2/J
   F. Weigend, Phys. Chem. Chem. Phys. 8, 1057 (2006).

================================================================================
                                        WARNINGS
                       Please study these warnings very carefully!
================================================================================



WARNING: Found flag for RIJCOSX approximation but no HF exchange needed!
  ===> : RIJCOSX  will be disabled and Split-RI-J is turned on

INFO   : the flag for use of the SHARK integral package has been found!

================================================================================
                                       INPUT FILE
================================================================================
NAME = TPSS_D1_wb97.com
|  1> !TPSS D3BJ RIJCOSX def2-TZVP def2/J TightSCF xyzfile                                                                                         
|  2> 
|  3> *xyzfile 0 1 D1.xyz
|  4> 
|  5> %MaxCore 64000
|  6> 
|  7> %pal nprocs 18                                                                                                                                                  
|  8> end  
|  9> 
| 10> %scf
| 11>   MaxIter 150
| 12> end
| 13> 
| 14> 
| 15>                          ****END OF INPUT****
================================================================================

                       ****************************
                       * Single Point Calculation *
                       ****************************

---------------------------------
CARTESIAN COORDINATES (ANGSTROEM)
---------------------------------
  C     -0.461293    2.234686   -4.989619
  C      0.848883    2.667967   -4.302351
  C      2.093434    1.861037   -4.656845
  H      2.444814    2.041567   -5.674990
  H      2.901748    2.137864   -3.980338
  S      1.879644    0.078594   -4.462965
  C     -0.423841    2.398772   -6.474317
  C     -0.959467    3.492647   -7.007401
  N      0.145585    1.486891   -7.203987
  H      0.565371    0.696807   -6.723858
  H      0.220682    1.581768   -8.207520
  H     -1.406243    4.181507   -6.403261
  H     -0.934215    3.681601   -7.999468
  F      3.207574   -0.466111   -4.420259
  O      1.075064   -0.056160   -3.268758
  O      1.131661   -0.319960   -5.679031
  H      0.668432    2.559427   -3.232850
  H      1.034074    3.729426   -4.497081
  H     -1.288884    2.826737   -4.594997
  H     -0.651696    1.186343   -4.756552

----------------------------
CARTESIAN COORDINATES (A.U.)
----------------------------
  NO LB      ZA    FRAG     MASS         X           Y           Z
   0 C     6.0000    0    12.011   -0.871717    4.222944   -9.429013
   1 C     6.0000    0    12.011    1.604156    5.041727   -8.130266
   2 C     6.0000    0    12.011    3.956017    3.516850   -8.800161
   3 H     1.0000    0     1.008    4.620028    3.858002  -10.724178
   4 H     1.0000    0     1.008    5.483509    4.039977   -7.521748
   5 S    16.0000    0    32.060    3.552012    0.148521   -8.433782
   6 C     6.0000    0    12.011   -0.800943    4.533022  -12.234685
   7 C     6.0000    0    12.011   -1.813129    6.600147  -13.242068
   8 N     7.0000    0    14.007    0.275115    2.809816  -13.613563
   9 H     1.0000    0     1.008    1.068396    1.316775  -12.706251
  10 H     1.0000    0     1.008    0.417028    2.989109  -15.509964
  11 H     1.0000    0     1.008   -2.657413    7.901902  -12.100409
  12 H     1.0000    0     1.008   -1.765410    6.957218  -15.116805
  13 F     9.0000    0    18.998    6.061437   -0.880823   -8.353079
  14 O     8.0000    0    15.999    2.031576   -0.106127   -6.177057
  15 O     8.0000    0    15.999    2.138530   -0.604636  -10.731813
  16 H     1.0000    0     1.008    1.263154    4.836616   -6.109201
  17 H     1.0000    0     1.008    1.954117    7.047595   -8.498252
  18 H     1.0000    0     1.008   -2.435638    5.341759   -8.683286
  19 H     1.0000    0     1.008   -1.231526    2.241864   -8.988580

--------------------------------
INTERNAL COORDINATES (ANGSTROEM)
--------------------------------
 C      0   0   0     0.000000000000     0.00000000     0.00000000
 C      1   0   0     1.541631965111     0.00000000     0.00000000
 C      2   1   0     1.525027590294   116.18172614     0.00000000
 H      3   2   1     1.092098690696   113.06752036    71.01548842
 H      3   2   1     1.089800875004   109.06216866   190.35286741
 S      3   2   1     1.805657593026   113.62435890   308.07249457
 C      1   2   3     1.494206744861   113.00444366   296.28133312
 C      7   1   2     1.329525396380   118.59788130   262.68978212
 N      7   1   2     1.299304241243   119.46724797    81.59831966
 H      9   7   1     1.015370050484   117.49951858   358.73951065
 H      9   7   1     1.010801007465   121.61653338   182.37307597
 H      8   7   1     1.019372588134   119.66533631   358.25279225
 H      8   7   1     1.010217642510   122.51868751   177.49247968
 F      6   3   2     1.435941290310   105.55473738   197.66009361
 O      6   3   2     1.446249762107   104.27088318   321.55561304
 O      6   3   2     1.482274821591   103.71425996    78.73693654
 H      2   1   3     1.090034998608   105.58874260   240.24018957
 H      2   1   3     1.094948251900   109.68893549   124.80108786
 H      1   2   3     1.091402020806   109.31625547   175.23624021
 H      1   2   3     1.090685786809   108.85901801    57.27750679

---------------------------
INTERNAL COORDINATES (A.U.)
---------------------------
 C      0   0   0     0.000000000000     0.00000000     0.00000000
 C      1   0   0     2.913262213359     0.00000000     0.00000000
 C      2   1   0     2.881884492329   116.18172614     0.00000000
 H      3   2   1     2.063767436629   113.06752036    71.01548842
 H      3   2   1     2.059425194266   109.06216866   190.35286741
 S      3   2   1     3.412198342455   113.62435890   308.07249457
 C      1   2   3     2.823641535245   113.00444366   296.28133312
 C      7   1   2     2.512438887251   118.59788130   262.68978212
 N      7   1   2     2.455329180592   119.46724797    81.59831966
 H      9   7   1     1.918771320000   117.49951858   358.73951065
 H      9   7   1     1.910137080000   121.61653338   182.37307597
 H      8   7   1     1.926335020000   119.66533631   358.25279225
 H      8   7   1     1.909034680000   122.51868751   177.49247968
 F      6   3   2     2.713535783076   105.55473738   197.66009361
 O      6   3   2     2.733015971631   104.27088318   321.55561304
 O      6   3   2     2.801093468014   103.71425996    78.73693654
 H      2   1   3     2.059867623758   105.58874260   240.24018957
 H      2   1   3     2.069152326907   109.68893549   124.80108786
 H      1   2   3     2.062450921331   109.31625547   175.23624021
 H      1   2   3     2.061097435229   108.85901801    57.27750679

---------------------
BASIS SET INFORMATION
---------------------
There are 6 groups of distinct atoms

 Group   1 Type C   : 11s6p2d1f contracted to 5s3p2d1f pattern {62111/411/11/1}
 Group   2 Type H   : 5s1p contracted to 3s1p pattern {311/1}
 Group   3 Type S   : 14s9p3d1f contracted to 5s5p2d1f pattern {73211/51111/21/1}
 Group   4 Type N   : 11s6p2d1f contracted to 5s3p2d1f pattern {62111/411/11/1}
 Group   5 Type F   : 11s6p2d1f contracted to 5s3p2d1f pattern {62111/411/11/1}
 Group   6 Type O   : 11s6p2d1f contracted to 5s3p2d1f pattern {62111/411/11/1}

Atom   0C    basis set group =>   1
Atom   1C    basis set group =>   1
Atom   2C    basis set group =>   1
Atom   3H    basis set group =>   2
Atom   4H    basis set group =>   2
Atom   5S    basis set group =>   3
Atom   6C    basis set group =>   1
Atom   7C    basis set group =>   1
Atom   8N    basis set group =>   4
Atom   9H    basis set group =>   2
Atom  10H    basis set group =>   2
Atom  11H    basis set group =>   2
Atom  12H    basis set group =>   2
Atom  13F    basis set group =>   5
Atom  14O    basis set group =>   6
Atom  15O    basis set group =>   6
Atom  16H    basis set group =>   2
Atom  17H    basis set group =>   2
Atom  18H    basis set group =>   2
Atom  19H    basis set group =>   2
---------------------------------
AUXILIARY/J BASIS SET INFORMATION
---------------------------------
There are 6 groups of distinct atoms

 Group   1 Type C   : 12s5p4d2f1g contracted to 6s4p3d1f1g pattern {711111/2111/211/2/1}
 Group   2 Type H   : 5s2p1d contracted to 3s1p1d pattern {311/2/1}
 Group   3 Type S   : 14s5p5d2f1g contracted to 8s4p3d1f1g pattern {71111111/2111/311/2/1}
 Group   4 Type N   : 12s5p4d2f1g contracted to 6s4p3d1f1g pattern {711111/2111/211/2/1}
 Group   5 Type F   : 12s5p4d2f1g contracted to 6s4p3d1f1g pattern {711111/2111/211/2/1}
 Group   6 Type O   : 12s5p4d2f1g contracted to 6s4p3d1f1g pattern {711111/2111/211/2/1}

Atom   0C    basis set group =>   1
Atom   1C    basis set group =>   1
Atom   2C    basis set group =>   1
Atom   3H    basis set group =>   2
Atom   4H    basis set group =>   2
Atom   5S    basis set group =>   3
Atom   6C    basis set group =>   1
Atom   7C    basis set group =>   1
Atom   8N    basis set group =>   4
Atom   9H    basis set group =>   2
Atom  10H    basis set group =>   2
Atom  11H    basis set group =>   2
Atom  12H    basis set group =>   2
Atom  13F    basis set group =>   5
Atom  14O    basis set group =>   6
Atom  15O    basis set group =>   6
Atom  16H    basis set group =>   2
Atom  17H    basis set group =>   2
Atom  18H    basis set group =>   2
Atom  19H    basis set group =>   2


           ************************************************************
           *        Program running with 18 parallel MPI-processes    *
           *              working on a common directory               *
           ************************************************************
------------------------------------------------------------------------------
                           ORCA GTO INTEGRAL CALCULATION
                           -- RI-GTO INTEGRALS CHOSEN --
------------------------------------------------------------------------------
------------------------------------------------------------------------------
                   ___                                                        
                  /   \      - P O W E R E D   B Y -                         
                 /     \                                                     
                 |  |  |   _    _      __       _____    __    __             
                 |  |  |  | |  | |    /  \     |  _  \  |  |  /  |          
                  \  \/   | |  | |   /    \    | | | |  |  | /  /          
                 / \  \   | |__| |  /  /\  \   | |_| |  |  |/  /          
                |  |  |   |  __  | /  /__\  \  |    /   |      \           
                |  |  |   | |  | | |   __   |  |    \   |  |\   \          
                \     /   | |  | | |  |  |  |  | |\  \  |  | \   \       
                 \___/    |_|  |_| |__|  |__|  |_| \__\ |__|  \__/        
                                                                              
                      - O R C A' S   B I G   F R I E N D -                    
                                      &                                       
                       - I N T E G R A L  F E E D E R -                       
                                                                              
 v1 FN, 2020, v2 2021                                                         
------------------------------------------------------------------------------


Reading SHARK input file TPSS_D1_wb97.SHARKINP.tmp ... ok
----------------------
SHARK INTEGRAL PACKAGE
----------------------

Number of atoms                             ...     20
Number of basis functions                   ...    376
Number of shells                            ...    152
Maximum angular momentum                    ...      3
Integral batch strategy                     ... SHARK/LIBINT Hybrid
RI-J (if used) integral strategy            ... SPLIT-RIJ (Revised 2003 algorithm where possible)
Printlevel                                  ...      1
Contraction scheme used                     ... SEGMENTED contraction
Coulomb Range Separation                    ... NOT USED
Exchange Range Separation                   ... NOT USED
Finite Nucleus Model                        ... NOT USED
Auxiliary Coulomb fitting basis             ... AVAILABLE
   # of basis functions in Aux-J            ...    602
   # of shells in Aux-J                     ...    202
   Maximum angular momentum in Aux-J        ...      4
Auxiliary J/K fitting basis                 ... NOT available
Auxiliary Correlation fitting basis         ... NOT available
Auxiliary 'external' fitting basis          ... NOT available
Integral threshold                          ...     2.500000e-11
Primitive cut-off                           ...     2.500000e-12
Primitive pair pre-selection threshold      ...     2.500000e-12

Calculating pre-screening integrals         ... done (  0.2 sec) Dimension = 152
Organizing shell pair data                  ... done (  0.2 sec)
Shell pair information
Total number of shell pairs                 ...     11628
Shell pairs after pre-screening             ...     10180
Total number of primitive shell pairs       ...     36042
Primitive shell pairs kept                  ...     22700
          la=0 lb=0:   2742 shell pairs
          la=1 lb=0:   2971 shell pairs
          la=1 lb=1:    841 shell pairs
          la=2 lb=0:   1374 shell pairs
          la=2 lb=1:    770 shell pairs
          la=2 lb=2:    192 shell pairs
          la=3 lb=0:    687 shell pairs
          la=3 lb=1:    379 shell pairs
          la=3 lb=2:    176 shell pairs
          la=3 lb=3:     48 shell pairs

Calculating one electron integrals          ... done (  0.0 sec)
Calculating RI/J V-Matrix + Cholesky decomp.... done (  0.1 sec)
Calculating Nuclear repulsion               ... done (  0.0 sec) ENN=    726.699594297407 Eh

SHARK setup successfully completed in   0.6 seconds

Maximum memory used throughout the entire GTOINT-calculation: 18.0 MB


           ************************************************************
           *        Program running with 18 parallel MPI-processes    *
           *              working on a common directory               *
           ************************************************************
-------------------------------------------------------------------------------
                                 ORCA SCF
-------------------------------------------------------------------------------

------------
SCF SETTINGS
------------
Hamiltonian:
 Density Functional     Method          .... DFT(GTOs)
 Exchange Functional    Exchange        .... TPSS
 Correlation Functional Correlation     .... TPSS
 LDA part of GGA corr.  LDAOpt          .... PW91-LDA
 Gradients option       PostSCFGGA      .... off
   Density functional embedding theory  .... OFF
   NL short-range parameter             ....  5.000000
 RI-approximation to the Coulomb term is turned on
   Number of AuxJ basis functions       .... 602


General Settings:
 Integral files         IntName         .... TPSS_D1_wb97
 Hartree-Fock type      HFTyp           .... RHF
 Total Charge           Charge          ....    0
 Multiplicity           Mult            ....    1
 Number of Electrons    NEL             ....   88
 Basis Dimension        Dim             ....  376
 Nuclear Repulsion      ENuc            ....    726.6995942974 Eh

Convergence Acceleration:
 DIIS                   CNVDIIS         .... on
   Start iteration      DIISMaxIt       ....    12
   Startup error        DIISStart       ....  0.200000
   # of expansion vecs  DIISMaxEq       ....     5
   Bias factor          DIISBfac        ....   1.050
   Max. coefficient     DIISMaxC        ....  10.000
 Trust-Rad. Augm. Hess. CNVTRAH         .... auto
   Auto Start mean grad. ratio tolernc. ....  1.125000
   Auto Start start iteration           ....    20
   Auto Start num. interpolation iter.  ....    10
   Max. Number of Micro iterations      ....    16
   Max. Number of Macro iterations      .... Maxiter - #DIIS iter
   Number of Davidson start vectors     ....     2
   Converg. threshold I  (grad. norm)   ....   1.000e-05
   Converg. threshold II (energy diff.) ....   1.000e-08
   Grad. Scal. Fac. for Micro threshold ....   0.100
   Minimum threshold for Micro iter.    ....   0.010
   NR start threshold (gradient norm)   ....   0.001
   Initial trust radius                 ....   0.400
   Minimum AH scaling param. (alpha)    ....   1.000
   Maximum AH scaling param. (alpha)    .... 1000.000
   Orbital update algorithm             .... Taylor
   White noise on init. David. guess    .... on
   Maximum white noise                  ....   0.010
   Quad. conv. algorithm                .... NR
 SOSCF                  CNVSOSCF        .... on
   Start iteration      SOSCFMaxIt      ....   150
   Startup grad/error   SOSCFStart      ....  0.003300
 Level Shifting         CNVShift        .... on
   Level shift para.    LevelShift      ....    0.2500
   Turn off err/grad.   ShiftErr        ....    0.0010
 Zerner damping         CNVZerner       .... off
 Static damping         CNVDamp         .... on
   Fraction old density DampFac         ....    0.7000
   Max. Damping (<1)    DampMax         ....    0.9800
   Min. Damping (>=0)   DampMin         ....    0.0000
   Turn off err/grad.   DampErr         ....    0.1000
 Fernandez-Rico         CNVRico         .... off

SCF Procedure:
 Maximum # iterations   MaxIter         ....   150
 SCF integral mode      SCFMode         .... Direct
   Integral package                     .... SHARK and LIBINT hybrid scheme
 Reset frequency        DirectResetFreq ....    20
 Integral Threshold     Thresh          ....  2.500e-11 Eh
 Primitive CutOff       TCut            ....  2.500e-12 Eh

Convergence Tolerance:
 Convergence Check Mode ConvCheckMode   .... Total+1el-Energy
 Convergence forced     ConvForced      .... 0
 Energy Change          TolE            ....  1.000e-08 Eh
 1-El. energy change                    ....  1.000e-05 Eh
 Orbital Gradient       TolG            ....  1.000e-05
 Orbital Rotation angle TolX            ....  1.000e-05
 DIIS Error             TolErr          ....  5.000e-07


Diagonalization of the overlap matrix:
Smallest eigenvalue                        ... 9.650e-05
Time for diagonalization                   ...    0.035 sec
Threshold for overlap eigenvalues          ... 1.000e-08
Number of eigenvalues below threshold      ... 0
Time for construction of square roots      ...    0.057 sec
Total time needed                          ...    0.094 sec

Time for model grid setup =    0.134 sec

------------------------------
INITIAL GUESS: MODEL POTENTIAL
------------------------------
Loading Hartree-Fock densities                     ... done
Calculating cut-offs                               ... done
Initializing the effective Hamiltonian             ... done
Setting up the integral package (SHARK)            ... done
Starting the Coulomb interaction                   ... done (   0.1 sec)
Reading the grid                                   ... done
Mapping shells                                     ... done
Starting the XC term evaluation                    ... done (   0.1 sec)
  promolecular density results
     # of electrons  =     87.997185365
     EX              =    -86.509702691
     EC              =     -3.083140230
     EX+EC           =    -89.592842921
Transforming the Hamiltonian                       ... done (   0.0 sec)
Diagonalizing the Hamiltonian                      ... done (   0.0 sec)
Back transforming the eigenvectors                 ... done (   0.0 sec)
Now organizing SCF variables                       ... done
                      ------------------
                      INITIAL GUESS DONE (   0.4 sec)
                      ------------------
-------------------
DFT GRID GENERATION
-------------------

General Integration Accuracy     IntAcc      ... 4.388
Radial Grid Type                 RadialGrid  ... OptM3 with GC (2021)
Angular Grid (max. ang.)         AngularGrid ... 4 (Lebedev-302)
Angular grid pruning method      GridPruning ... 4 (adaptive)
Weight generation scheme         WeightScheme... Becke
Basis function cutoff            BFCut       ... 1.0000e-11
Integration weight cutoff        WCut        ... 1.0000e-14
Angular grids for H and He will be reduced by one unit
Partially contracted basis set               ... off
Rotationally invariant grid construction     ... off

Total number of grid points                  ...    93324
Total number of batches                      ...     1469
Average number of points per batch           ...       63
Average number of grid points per atom       ...     4666
Time for grid setup =    0.606 sec

--------------
SCF ITERATIONS
--------------
ITER       Energy         Delta-E        Max-DP      RMS-DP      [F,P]     Damp
               ***  Starting incremental Fock matrix formation  ***
  0   -899.5175938254   0.000000000000 0.17816134  0.00150352  0.2864471 0.7000
  1   -899.7716473125  -0.254053487038 0.06814087  0.00098862  0.1088174 0.7000
                               ***Turning on DIIS***
  2   -899.8413583217  -0.069711009215 0.07424778  0.00145486  0.0340791 0.0000
  3   -899.9874574761  -0.146099154380 0.06572256  0.00075525  0.0759472 0.0000
  4   -900.0097197151  -0.022262239000 0.02707502  0.00030847  0.0325236 0.0000
                      *** Initiating the SOSCF procedure ***
                           *** Shutting down DIIS ***
                      *** Re-Reading the Fockian *** 
                      *** Removing any level shift *** 
ITER      Energy       Delta-E        Grad      Rot      Max-DP    RMS-DP
  5   -900.01461149  -0.0048917750  0.000983  0.000983  0.009184  0.000117
               *** Restarting incremental Fock matrix formation ***
  6   -900.01476081  -0.0001493172  0.000696  0.002082  0.008019  0.000112
  7   -900.01465509   0.0001057193  0.002032  0.001745  0.003093  0.000042
  8   -900.01479280  -0.0001377151  0.000121  0.000277  0.001274  0.000017
  9   -900.01479164   0.0000011673  0.000192  0.000222  0.000483  0.000007
 10   -900.01479369  -0.0000020535  0.000051  0.000159  0.000362  0.000005
 11   -900.01479334   0.0000003542  0.000097  0.000112  0.000210  0.000003
 12   -900.01479382  -0.0000004866  0.000017  0.000054  0.000102  0.000002
 13   -900.01479378   0.0000000412  0.000030  0.000045  0.000070  0.000001
 14   -900.01479384  -0.0000000597  0.000005  0.000026  0.000018  0.000000
 15   -900.01479385  -0.0000000089  0.000011  0.000020  0.000012  0.000000
                  ***Gradient check signals convergence***
              ***Rediagonalizing the Fockian in SOSCF/NRSCF***

               *****************************************************
               *                     SUCCESS                       *
               *           SCF CONVERGED AFTER  16 CYCLES          *
               *****************************************************


----------------
TOTAL SCF ENERGY
----------------

Total Energy       :         -900.01479384 Eh          -24490.64762 eV

Components:
Nuclear Repulsion  :          726.69959430 Eh           19774.50128 eV
Electronic Energy  :        -1626.71438814 Eh          -44265.14890 eV
One Electron Energy:        -2678.00185570 Eh          -72872.13524 eV
Two Electron Energy:         1051.28746756 Eh           28606.98634 eV

Virial components:
Potential Energy   :        -1798.04720376 Eh          -48927.35183 eV
Kinetic Energy     :          898.03240991 Eh           24436.70421 eV
Virial Ratio       :            2.00220747


DFT components:
N(Alpha)           :       44.000063996867 electrons
N(Beta)            :       44.000063996867 electrons
N(Total)           :       88.000127993734 electrons
E(X)               :      -88.557034553929 Eh       
E(C)               :       -3.086206360138 Eh       
E(XC)              :      -91.643240914067 Eh       
DFET-embed. en.    :        0.000000000000 Eh       

---------------
SCF CONVERGENCE
---------------

  Last Energy change         ...    6.4024e-09  Tolerance :   1.0000e-08
  Last MAX-Density change    ...    4.9670e-06  Tolerance :   1.0000e-07
  Last RMS-Density change    ...    1.1734e-07  Tolerance :   5.0000e-09
  Last Orbital Gradient      ...    9.5017e-07  Tolerance :   1.0000e-05
  Last Orbital Rotation      ...    3.1840e-06  Tolerance :   1.0000e-05

             **** THE GBW FILE WAS UPDATED (TPSS_D1_wb97.gbw) ****
             **** DENSITY TPSS_D1_wb97.scfp WAS UPDATED ****
             **** ENERGY FILE WAS UPDATED (TPSS_D1_wb97.en.tmp) ****
             **** THE GBW FILE WAS UPDATED (TPSS_D1_wb97.gbw) ****
             **** DENSITY TPSS_D1_wb97.scfp WAS UPDATED ****
----------------
ORBITAL ENERGIES
----------------

  NO   OCC          E(Eh)            E(eV) 
   0   2.0000     -88.601471     -2410.9686 
   1   2.0000     -24.543665      -667.8671 
   2   2.0000     -18.909531      -514.5545 
   3   2.0000     -18.906754      -514.4789 
   4   2.0000     -14.075309      -383.0086 
   5   2.0000     -10.046515      -273.3796 
   6   2.0000     -10.011284      -272.4209 
   7   2.0000      -9.988987      -271.8141 
   8   2.0000      -9.985286      -271.7134 
   9   2.0000      -9.906352      -269.5655 
  10   2.0000      -7.951146      -216.3617 
  11   2.0000      -5.934234      -161.4787 
  12   2.0000      -5.927923      -161.3070 
  13   2.0000      -5.927090      -161.2843 
  14   2.0000      -1.320146       -35.9230 
  15   2.0000      -1.050028       -28.5727 
  16   2.0000      -0.961081       -26.1523 
  17   2.0000      -0.855915       -23.2906 
  18   2.0000      -0.773577       -21.0501 
  19   2.0000      -0.710314       -19.3286 
  20   2.0000      -0.678498       -18.4629 
  21   2.0000      -0.637601       -17.3500 
  22   2.0000      -0.591351       -16.0915 
  23   2.0000      -0.547847       -14.9077 
  24   2.0000      -0.541763       -14.7421 
  25   2.0000      -0.526621       -14.3301 
  26   2.0000      -0.508194       -13.8287 
  27   2.0000      -0.478751       -13.0275 
  28   2.0000      -0.455968       -12.4075 
  29   2.0000      -0.443593       -12.0708 
  30   2.0000      -0.426226       -11.5982 
  31   2.0000      -0.410725       -11.1764 
  32   2.0000      -0.402468       -10.9517 
  33   2.0000      -0.369411       -10.0522 
  34   2.0000      -0.357347        -9.7239 
  35   2.0000      -0.351100        -9.5539 
  36   2.0000      -0.338965        -9.2237 
  37   2.0000      -0.327973        -8.9246 
  38   2.0000      -0.307455        -8.3663 
  39   2.0000      -0.303085        -8.2474 
  40   2.0000      -0.289474        -7.8770 
  41   2.0000      -0.285501        -7.7689 
  42   2.0000      -0.279258        -7.5990 
  43   2.0000      -0.145713        -3.9650 
  44   0.0000      -0.022337        -0.6078 
  45   0.0000       0.008149         0.2217 
  46   0.0000       0.024995         0.6801 
  47   0.0000       0.028112         0.7650 
  48   0.0000       0.035477         0.9654 
  49   0.0000       0.048986         1.3330 
  50   0.0000       0.063244         1.7209 
  51   0.0000       0.064661         1.7595 
  52   0.0000       0.074488         2.0269 
  53   0.0000       0.094166         2.5624 
  54   0.0000       0.101081         2.7506 
  55   0.0000       0.113696         3.0938 
  56   0.0000       0.126857         3.4520 
  57   0.0000       0.133788         3.6405 
  58   0.0000       0.144313         3.9270 
  59   0.0000       0.157903         4.2968 
  60   0.0000       0.167664         4.5624 
  61   0.0000       0.177710         4.8357 
  62   0.0000       0.184638         5.0242 
  63   0.0000       0.195705         5.3254 
  64   0.0000       0.215461         5.8630 
  65   0.0000       0.238578         6.4920 
  66   0.0000       0.241374         6.5681 
  67   0.0000       0.250638         6.8202 
  68   0.0000       0.256300         6.9743 
  69   0.0000       0.264187         7.1889 
  70   0.0000       0.271348         7.3838 
  71   0.0000       0.279665         7.6101 
  72   0.0000       0.292219         7.9517 
  73   0.0000       0.307112         8.3569 
  74   0.0000       0.325323         8.8525 
  75   0.0000       0.337256         9.1772 
  76   0.0000       0.348129         9.4731 
  77   0.0000       0.355550         9.6750 
  78   0.0000       0.361473         9.8362 
  79   0.0000       0.371836        10.1182 
  80   0.0000       0.380649        10.3580 
  81   0.0000       0.388290        10.5659 
  82   0.0000       0.393002        10.6941 
  83   0.0000       0.398755        10.8507 
  84   0.0000       0.409584        11.1453 
  85   0.0000       0.418213        11.3802 
  86   0.0000       0.420543        11.4435 
  87   0.0000       0.426414        11.6033 
  88   0.0000       0.435641        11.8544 
  89   0.0000       0.436289        11.8720 
  90   0.0000       0.449248        12.2247 
  91   0.0000       0.466697        12.6995 
  92   0.0000       0.473013        12.8713 
  93   0.0000       0.480483        13.0746 
  94   0.0000       0.490318        13.3422 
  95   0.0000       0.504217        13.7205 
  96   0.0000       0.513897        13.9838 
  97   0.0000       0.531400        14.4601 
  98   0.0000       0.543462        14.7883 
  99   0.0000       0.552284        15.0284 
 100   0.0000       0.575375        15.6567 
 101   0.0000       0.589507        16.0413 
 102   0.0000       0.596861        16.2414 
 103   0.0000       0.601095        16.3566 
 104   0.0000       0.614338        16.7170 
 105   0.0000       0.619681        16.8624 
 106   0.0000       0.626080        17.0365 
 107   0.0000       0.646551        17.5936 
 108   0.0000       0.668599        18.1935 
 109   0.0000       0.681718        18.5505 
 110   0.0000       0.695936        18.9374 
 111   0.0000       0.711054        19.3488 
 112   0.0000       0.729981        19.8638 
 113   0.0000       0.754277        20.5249 
 114   0.0000       0.770517        20.9668 
 115   0.0000       0.777743        21.1635 
 116   0.0000       0.788568        21.4580 
 117   0.0000       0.821968        22.3669 
 118   0.0000       0.829660        22.5762 
 119   0.0000       0.842605        22.9284 
 120   0.0000       0.851836        23.1796 
 121   0.0000       0.865716        23.5573 
 122   0.0000       0.876159        23.8415 
 123   0.0000       0.896407        24.3925 
 124   0.0000       0.909392        24.7458 
 125   0.0000       0.934473        25.4283 
 126   0.0000       0.945903        25.7393 
 127   0.0000       0.975567        26.5465 
 128   0.0000       0.987625        26.8746 
 129   0.0000       1.022207        27.8157 
 130   0.0000       1.034692        28.1554 
 131   0.0000       1.061789        28.8928 
 132   0.0000       1.079113        29.3642 
 133   0.0000       1.089271        29.6406 
 134   0.0000       1.103691        30.0329 
 135   0.0000       1.132836        30.8260 
 136   0.0000       1.146084        31.1865 
 137   0.0000       1.151083        31.3226 
 138   0.0000       1.174825        31.9686 
 139   0.0000       1.202358        32.7178 
 140   0.0000       1.226918        33.3861 
 141   0.0000       1.239112        33.7180 
 142   0.0000       1.279698        34.8223 
 143   0.0000       1.310902        35.6715 
 144   0.0000       1.328975        36.1632 
 145   0.0000       1.337199        36.3870 
 146   0.0000       1.352234        36.7962 
 147   0.0000       1.352466        36.8025 
 148   0.0000       1.369344        37.2618 
 149   0.0000       1.382553        37.6212 
 150   0.0000       1.393445        37.9176 
 151   0.0000       1.413416        38.4610 
 152   0.0000       1.466730        39.9117 
 153   0.0000       1.470674        40.0191 
 154   0.0000       1.484903        40.4063 
 155   0.0000       1.500183        40.8220 
 156   0.0000       1.505691        40.9719 
 157   0.0000       1.512554        41.1587 
 158   0.0000       1.522846        41.4387 
 159   0.0000       1.536111        41.7997 
 160   0.0000       1.551354        42.2145 
 161   0.0000       1.564126        42.5620 
 162   0.0000       1.570420        42.7333 
 163   0.0000       1.579107        42.9697 
 164   0.0000       1.598497        43.4973 
 165   0.0000       1.601308        43.5738 
 166   0.0000       1.609972        43.8096 
 167   0.0000       1.624643        44.2088 
 168   0.0000       1.655916        45.0598 
 169   0.0000       1.665760        45.3276 
 170   0.0000       1.673918        45.5496 
 171   0.0000       1.699869        46.2558 
 172   0.0000       1.719173        46.7811 
 173   0.0000       1.735436        47.2236 
 174   0.0000       1.748858        47.5889 
 175   0.0000       1.774047        48.2743 
 176   0.0000       1.795574        48.8601 
 177   0.0000       1.809531        49.2398 
 178   0.0000       1.822593        49.5953 
 179   0.0000       1.855059        50.4787 
 180   0.0000       1.874100        50.9969 
 181   0.0000       1.900385        51.7121 
 182   0.0000       1.907586        51.9080 
 183   0.0000       1.913034        52.0563 
 184   0.0000       1.921835        52.2958 
 185   0.0000       1.940901        52.8146 
 186   0.0000       1.969676        53.5976 
 187   0.0000       1.985966        54.0409 
 188   0.0000       2.019823        54.9622 
 189   0.0000       2.034694        55.3668 
 190   0.0000       2.046594        55.6906 
 191   0.0000       2.067587        56.2619 
 192   0.0000       2.090832        56.8944 
 193   0.0000       2.101707        57.1904 
 194   0.0000       2.117250        57.6133 
 195   0.0000       2.125580        57.8400 
 196   0.0000       2.143506        58.3278 
 197   0.0000       2.165076        58.9147 
 198   0.0000       2.193081        59.6768 
 199   0.0000       2.200966        59.8913 
 200   0.0000       2.236231        60.8509 
 201   0.0000       2.251673        61.2711 
 202   0.0000       2.261088        61.5273 
 203   0.0000       2.291397        62.3521 
 204   0.0000       2.329465        63.3880 
 205   0.0000       2.350193        63.9520 
 206   0.0000       2.361262        64.2532 
 207   0.0000       2.378776        64.7298 
 208   0.0000       2.384360        64.8817 
 209   0.0000       2.399071        65.2820 
 210   0.0000       2.414807        65.7102 
 211   0.0000       2.420469        65.8643 
 212   0.0000       2.431169        66.1555 
 213   0.0000       2.458813        66.9077 
 214   0.0000       2.504922        68.1624 
 215   0.0000       2.510146        68.3045 
 216   0.0000       2.518067        68.5201 
 217   0.0000       2.527836        68.7859 
 218   0.0000       2.556158        69.5566 
 219   0.0000       2.556583        69.5682 
 220   0.0000       2.578056        70.1525 
 221   0.0000       2.578623        70.1679 
 222   0.0000       2.598621        70.7121 
 223   0.0000       2.606812        70.9350 
 224   0.0000       2.619846        71.2896 
 225   0.0000       2.627831        71.5069 
 226   0.0000       2.648470        72.0685 
 227   0.0000       2.666940        72.5711 
 228   0.0000       2.678802        72.8939 
 229   0.0000       2.687406        73.1280 
 230   0.0000       2.698173        73.4210 
 231   0.0000       2.714570        73.8672 
 232   0.0000       2.747222        74.7557 
 233   0.0000       2.750461        74.8438 
 234   0.0000       2.781198        75.6802 
 235   0.0000       2.804882        76.3247 
 236   0.0000       2.823712        76.8371 
 237   0.0000       2.840713        77.2997 
 238   0.0000       2.863633        77.9234 
 239   0.0000       2.873826        78.2008 
 240   0.0000       2.919991        79.4570 
 241   0.0000       2.926961        79.6467 
 242   0.0000       2.940369        80.0115 
 243   0.0000       2.959100        80.5212 
 244   0.0000       2.970951        80.8437 
 245   0.0000       2.988842        81.3305 
 246   0.0000       2.995037        81.4991 
 247   0.0000       3.030093        82.4530 
 248   0.0000       3.054986        83.1304 
 249   0.0000       3.061011        83.2943 
 250   0.0000       3.087640        84.0190 
 251   0.0000       3.107629        84.5629 
 252   0.0000       3.133806        85.2752 
 253   0.0000       3.149482        85.7018 
 254   0.0000       3.159421        85.9722 
 255   0.0000       3.185597        86.6845 
 256   0.0000       3.220899        87.6451 
 257   0.0000       3.221891        87.6721 
 258   0.0000       3.235039        88.0299 
 259   0.0000       3.242378        88.2296 
 260   0.0000       3.275445        89.1294 
 261   0.0000       3.280504        89.2670 
 262   0.0000       3.302371        89.8621 
 263   0.0000       3.320151        90.3459 
 264   0.0000       3.330350        90.6234 
 265   0.0000       3.341424        90.9248 
 266   0.0000       3.359250        91.4098 
 267   0.0000       3.374544        91.8260 
 268   0.0000       3.384130        92.0868 
 269   0.0000       3.391146        92.2778 
 270   0.0000       3.406644        92.6995 
 271   0.0000       3.442167        93.6661 
 272   0.0000       3.449628        93.8692 
 273   0.0000       3.472786        94.4993 
 274   0.0000       3.481640        94.7402 
 275   0.0000       3.501668        95.2852 
 276   0.0000       3.544690        96.4559 
 277   0.0000       3.547685        96.5374 
 278   0.0000       3.577478        97.3481 
 279   0.0000       3.624776        98.6352 
 280   0.0000       3.651902        99.3733 
 281   0.0000       3.664097        99.7051 
 282   0.0000       3.717681       101.1632 
 283   0.0000       3.724685       101.3538 
 284   0.0000       3.768919       102.5575 
 285   0.0000       3.781736       102.9063 
 286   0.0000       3.796369       103.3045 
 287   0.0000       3.836005       104.3830 
 288   0.0000       3.871462       105.3478 
 289   0.0000       3.883356       105.6715 
 290   0.0000       3.904348       106.2427 
 291   0.0000       3.963323       107.8475 
 292   0.0000       3.987261       108.4989 
 293   0.0000       4.020879       109.4137 
 294   0.0000       4.046939       110.1228 
 295   0.0000       4.086293       111.1937 
 296   0.0000       4.136500       112.5599 
 297   0.0000       4.152126       112.9851 
 298   0.0000       4.173832       113.5757 
 299   0.0000       4.214540       114.6835 
 300   0.0000       4.334440       117.9461 
 301   0.0000       4.375122       119.0531 
 302   0.0000       4.415839       120.1611 
 303   0.0000       4.437152       120.7411 
 304   0.0000       4.474297       121.7518 
 305   0.0000       4.509297       122.7042 
 306   0.0000       4.524044       123.1055 
 307   0.0000       4.547426       123.7418 
 308   0.0000       4.592118       124.9579 
 309   0.0000       4.638045       126.2076 
 310   0.0000       4.657043       126.7246 
 311   0.0000       4.679656       127.3399 
 312   0.0000       4.733645       128.8090 
 313   0.0000       4.813219       130.9743 
 314   0.0000       4.826671       131.3404 
 315   0.0000       4.888488       133.0225 
 316   0.0000       4.913711       133.7089 
 317   0.0000       4.926786       134.0647 
 318   0.0000       5.029827       136.8686 
 319   0.0000       5.111724       139.0971 
 320   0.0000       5.113751       139.1522 
 321   0.0000       5.117019       139.2412 
 322   0.0000       5.133153       139.6802 
 323   0.0000       5.150389       140.1492 
 324   0.0000       5.158141       140.3601 
 325   0.0000       5.162143       140.4691 
 326   0.0000       5.197408       141.4287 
 327   0.0000       5.278698       143.6407 
 328   0.0000       5.296399       144.1223 
 329   0.0000       5.321068       144.7936 
 330   0.0000       5.348126       145.5299 
 331   0.0000       5.397801       146.8816 
 332   0.0000       5.416693       147.3957 
 333   0.0000       5.428620       147.7203 
 334   0.0000       5.493384       149.4826 
 335   0.0000       5.549852       151.0192 
 336   0.0000       5.578303       151.7933 
 337   0.0000       5.631316       153.2359 
 338   0.0000       5.691106       154.8629 
 339   0.0000       5.813131       158.1833 
 340   0.0000       6.227576       169.4610 
 341   0.0000       6.235156       169.6672 
 342   0.0000       6.304096       171.5432 
 343   0.0000       6.373836       173.4409 
 344   0.0000       6.450321       175.5221 
 345   0.0000       6.529659       177.6811 
 346   0.0000       6.631096       180.4413 
 347   0.0000       6.717780       182.8001 
 348   0.0000       6.732397       183.1978 
 349   0.0000       6.753271       183.7659 
 350   0.0000       6.798898       185.0074 
 351   0.0000       6.803863       185.1425 
 352   0.0000       6.816198       185.4782 
 353   0.0000       6.846833       186.3118 
 354   0.0000       6.868117       186.8910 
 355   0.0000       6.893448       187.5803 
 356   0.0000       6.960875       189.4150 
 357   0.0000       7.057870       192.0544 
 358   0.0000       8.163480       222.1396 
 359   0.0000       8.169343       222.2991 
 360   0.0000       8.537460       232.3161 
 361   0.0000       8.571936       233.2542 
 362   0.0000       8.629762       234.8277 
 363   0.0000       9.246266       251.6037 
 364   0.0000       9.451806       257.1967 
 365   0.0000       9.664058       262.9724 
 366   0.0000      22.089629       601.0894 
 367   0.0000      22.442967       610.7042 
 368   0.0000      22.460996       611.1948 
 369   0.0000      22.531433       613.1115 
 370   0.0000      22.602894       615.0560 
 371   0.0000      23.249923       632.6626 
 372   0.0000      32.143247       874.6622 
 373   0.0000      43.447148      1182.2570 
 374   0.0000      43.694832      1188.9968 
 375   0.0000      56.982371      1550.5691 

                    ********************************
                    * MULLIKEN POPULATION ANALYSIS *
                    ********************************

-----------------------
MULLIKEN ATOMIC CHARGES
-----------------------
   0 C :   -0.289224
   1 C :   -0.110074
   2 C :   -0.303972
   3 H :    0.158800
   4 H :    0.134851
   5 S :    0.784062
   6 C :    0.182130
   7 C :   -0.423428
   8 N :   -0.440213
   9 H :    0.260506
  10 H :    0.214076
  11 H :    0.092897
  12 H :    0.083355
  13 F :   -0.063671
  14 O :   -0.359003
  15 O :   -0.420242
  16 H :    0.112711
  17 H :    0.110849
  18 H :    0.113956
  19 H :    0.161634
Sum of atomic charges:   -0.0000000

--------------------------------
MULLIKEN REDUCED ORBITAL CHARGES
--------------------------------
  0 C s       :     3.211713  s :     3.211713
      pz      :     0.917174  p :     2.974007
      px      :     0.968404
      py      :     1.088429
      dz2     :     0.024282  d :     0.097039
      dxz     :     0.025727
      dyz     :     0.015769
      dx2y2   :     0.016607
      dxy     :     0.014655
      f0      :     0.001250  f :     0.006465
      f+1     :     0.001509
      f-1     :     0.001009
      f+2     :     0.000486
      f-2     :     0.000602
      f+3     :     0.000586
      f-3     :     0.001023
  1 C s       :     3.111682  s :     3.111682
      pz      :     1.016763  p :     2.888439
      px      :     0.889742
      py      :     0.981934
      dz2     :     0.029575  d :     0.103303
      dxz     :     0.019335
      dyz     :     0.004640
      dx2y2   :     0.028855
      dxy     :     0.020898
      f0      :     0.001068  f :     0.006650
      f+1     :     0.001173
      f-1     :     0.000456
      f+2     :     0.000557
      f-2     :     0.000819
      f+3     :     0.001307
      f-3     :     0.001270
  2 C s       :     3.206837  s :     3.206837
      pz      :     1.085107  p :     2.995438
      px      :     1.052726
      py      :     0.857605
      dz2     :     0.017017  d :     0.095988
      dxz     :     0.026887
      dyz     :     0.009305
      dx2y2   :     0.031769
      dxy     :     0.011010
      f0      :     0.000797  f :     0.005708
      f+1     :     0.000915
      f-1     :     0.000611
      f+2     :     0.000605
      f-2     :     0.000608
      f+3     :     0.001120
      f-3     :     0.001053
  3 H s       :     0.820443  s :     0.820443
      pz      :     0.011036  p :     0.020757
      px      :     0.005253
      py      :     0.004468
  4 H s       :     0.844268  s :     0.844268
      pz      :     0.006868  p :     0.020881
      px      :     0.008811
      py      :     0.005203
  5 S s       :     5.399008  s :     5.399008
      pz      :     2.816098  p :     8.570780
      px      :     2.746729
      py      :     3.007952
      dz2     :     0.277767  d :     1.125148
      dxz     :     0.242848
      dyz     :     0.210024
      dx2y2   :     0.218055
      dxy     :     0.176454
      f0      :     0.028451  f :     0.121003
      f+1     :     0.015642
      f-1     :     0.012119
      f+2     :     0.020003
      f-2     :     0.018627
      f+3     :     0.016314
      f-3     :     0.009847
  6 C s       :     3.088079  s :     3.088079
      pz      :     0.838289  p :     2.555579
      px      :     0.881015
      py      :     0.836275
      dz2     :     0.032847  d :     0.159689
      dxz     :     0.022000
      dyz     :     0.033930
      dx2y2   :     0.046965
      dxy     :     0.023947
      f0      :     0.001468  f :     0.014523
      f+1     :     0.001962
      f-1     :     0.003667
      f+2     :     0.002441
      f-2     :     0.001690
      f+3     :     0.001188
      f-3     :     0.002108
  7 C s       :     3.205441  s :     3.205441
      pz      :     0.991732  p :     3.165822
      px      :     1.172888
      py      :     1.001203
      dz2     :     0.011623  d :     0.046249
      dxz     :     0.004565
      dyz     :     0.012530
      dx2y2   :     0.008643
      dxy     :     0.008889
      f0      :     0.000973  f :     0.005915
      f+1     :     0.000336
      f-1     :     0.001034
      f+2     :     0.000437
      f-2     :     0.000921
      f+3     :     0.000822
      f-3     :     0.001391
  8 N s       :     3.454109  s :     3.454109
      pz      :     1.102523  p :     3.940946
      px      :     1.549232
      py      :     1.289191
      dz2     :     0.014060  d :     0.041371
      dxz     :     0.004184
      dyz     :     0.006980
      dx2y2   :     0.008182
      dxy     :     0.007965
      f0      :     0.000887  f :     0.003788
      f+1     :     0.000305
      f-1     :     0.000495
      f+2     :     0.000396
      f-2     :     0.000516
      f+3     :     0.000637
      f-3     :     0.000553
  9 H s       :     0.685475  s :     0.685475
      pz      :     0.015015  p :     0.054019
      px      :     0.016100
      py      :     0.022904
 10 H s       :     0.751710  s :     0.751710
      pz      :     0.016374  p :     0.034214
      px      :     0.010696
      py      :     0.007144
 11 H s       :     0.883666  s :     0.883666
      pz      :     0.006481  p :     0.023437
      px      :     0.008732
      py      :     0.008224
 12 H s       :     0.893598  s :     0.893598
      pz      :     0.010304  p :     0.023047
      px      :     0.007233
      py      :     0.005510
 13 F s       :     3.901421  s :     3.901421
      pz      :     1.829423  p :     5.140214
      px      :     1.528927
      py      :     1.781864
      dz2     :     0.002482  d :     0.021103
      dxz     :     0.005015
      dyz     :     0.001016
      dx2y2   :     0.006460
      dxy     :     0.006130
      f0      :     0.000097  f :     0.000933
      f+1     :     0.000142
      f-1     :     0.000036
      f+2     :     0.000087
      f-2     :     0.000082
      f+3     :     0.000240
      f-3     :     0.000248
 14 O s       :     3.848996  s :     3.848996
      pz      :     1.404949  p :     4.474521
      px      :     1.448215
      py      :     1.621357
      dz2     :     0.009638  d :     0.033449
      dxz     :     0.009502
      dyz     :     0.006950
      dx2y2   :     0.003650
      dxy     :     0.003709
      f0      :     0.000452  f :     0.002037
      f+1     :     0.000505
      f-1     :     0.000233
      f+2     :     0.000349
      f-2     :     0.000353
      f+3     :     0.000073
      f-3     :     0.000071
 15 O s       :     3.850156  s :     3.850156
      pz      :     1.373917  p :     4.537461
      px      :     1.519926
      py      :     1.643618
      dz2     :     0.007702  d :     0.030731
      dxz     :     0.007984
      dyz     :     0.007546
      dx2y2   :     0.003579
      dxy     :     0.003921
      f0      :     0.000394  f :     0.001894
      f+1     :     0.000483
      f-1     :     0.000249
      f+2     :     0.000331
      f-2     :     0.000327
      f+3     :     0.000061
      f-3     :     0.000048
 16 H s       :     0.867045  s :     0.867045
      pz      :     0.011231  p :     0.020244
      px      :     0.004604
      py      :     0.004409
 17 H s       :     0.869113  s :     0.869113
      pz      :     0.004646  p :     0.020038
      px      :     0.004173
      py      :     0.011219
 18 H s       :     0.865806  s :     0.865806
      pz      :     0.005208  p :     0.020238
      px      :     0.008911
      py      :     0.006119
 19 H s       :     0.817672  s :     0.817672
      pz      :     0.004850  p :     0.020695
      px      :     0.004739
      py      :     0.011105


                     *******************************
                     * LOEWDIN POPULATION ANALYSIS *
                     *******************************

----------------------
LOEWDIN ATOMIC CHARGES
----------------------
   0 C :   -0.212168
   1 C :   -0.259369
   2 C :   -0.368721
   3 H :    0.140312
   4 H :    0.135130
   5 S :    0.506403
   6 C :   -0.383151
   7 C :   -0.288491
   8 N :    0.022836
   9 H :    0.135648
  10 H :    0.166824
  11 H :    0.101057
  12 H :    0.091235
  13 F :    0.121630
  14 O :   -0.227363
  15 O :   -0.266537
  16 H :    0.143326
  17 H :    0.147436
  18 H :    0.150602
  19 H :    0.143360

-------------------------------
LOEWDIN REDUCED ORBITAL CHARGES
-------------------------------
  0 C s       :     2.765910  s :     2.765910
      pz      :     0.997660  p :     3.022816
      px      :     0.997118
      py      :     1.028038
      dz2     :     0.096893  d :     0.384086
      dxz     :     0.097958
      dyz     :     0.063560
      dx2y2   :     0.066215
      dxy     :     0.059460
      f0      :     0.006132  f :     0.039356
      f+1     :     0.008808
      f-1     :     0.007138
      f+2     :     0.004134
      f-2     :     0.005411
      f+3     :     0.002862
      f-3     :     0.004870
  1 C s       :     2.784434  s :     2.784434
      pz      :     1.023950  p :     3.038339
      px      :     1.001809
      py      :     1.012580
      dz2     :     0.106964  d :     0.397815
      dxz     :     0.071249
      dyz     :     0.021271
      dx2y2   :     0.110553
      dxy     :     0.087778
      f0      :     0.004752  f :     0.038781
      f+1     :     0.005928
      f-1     :     0.002914
      f+2     :     0.004712
      f-2     :     0.006705
      f+3     :     0.007173
      f-3     :     0.006596
  2 C s       :     2.850929  s :     2.850929
      pz      :     1.069141  p :     3.115806
      px      :     1.064631
      py      :     0.982034
      dz2     :     0.066674  d :     0.369825
      dxz     :     0.083761
      dyz     :     0.039463
      dx2y2   :     0.121327
      dxy     :     0.058600
      f0      :     0.003313  f :     0.032161
      f+1     :     0.003533
      f-1     :     0.004095
      f+2     :     0.004315
      f-2     :     0.004745
      f+3     :     0.006361
      f-3     :     0.005798
  3 H s       :     0.795661  s :     0.795661
      pz      :     0.035597  p :     0.064027
      px      :     0.015342
      py      :     0.013087
  4 H s       :     0.801759  s :     0.801759
      pz      :     0.022649  p :     0.063111
      px      :     0.025532
      py      :     0.014930
  5 S s       :     4.764040  s :     4.764040
      pz      :     2.864982  p :     8.573577
      px      :     2.792232
      py      :     2.916363
      dz2     :     0.431181  d :     1.779378
      dxz     :     0.411909
      dyz     :     0.289244
      dx2y2   :     0.367426
      dxy     :     0.279618
      f0      :     0.077909  f :     0.376603
      f+1     :     0.063869
      f-1     :     0.035734
      f+2     :     0.060458
      f-2     :     0.052495
      f+3     :     0.047507
      f-3     :     0.038631
  6 C s       :     2.708760  s :     2.708760
      pz      :     0.981937  p :     2.854747
      px      :     0.875071
      py      :     0.997739
      dz2     :     0.160338  d :     0.726525
      dxz     :     0.103659
      dyz     :     0.173074
      dx2y2   :     0.168611
      dxy     :     0.120843
      f0      :     0.008980  f :     0.093119
      f+1     :     0.012002
      f-1     :     0.024420
      f+2     :     0.018178
      f-2     :     0.012929
      f+3     :     0.008972
      f-3     :     0.007637
  7 C s       :     2.805352  s :     2.805352
      pz      :     1.026252  p :     3.216620
      px      :     1.114560
      py      :     1.075808
      dz2     :     0.066835  d :     0.236765
      dxz     :     0.021578
      dyz     :     0.076502
      dx2y2   :     0.031158
      dxy     :     0.040692
      f0      :     0.004435  f :     0.029754
      f+1     :     0.001865
      f-1     :     0.006067
      f+2     :     0.003382
      f-2     :     0.004879
      f+3     :     0.004939
      f-3     :     0.004187
  8 N s       :     2.959210  s :     2.959210
      pz      :     1.134139  p :     3.838114
      px      :     1.436310
      py      :     1.267666
      dz2     :     0.060934  d :     0.166870
      dxz     :     0.018361
      dyz     :     0.033575
      dx2y2   :     0.026760
      dxy     :     0.027240
      f0      :     0.001759  f :     0.012971
      f+1     :     0.001011
      f-1     :     0.002907
      f+2     :     0.001832
      f-2     :     0.002072
      f+3     :     0.001772
      f-3     :     0.001618
  9 H s       :     0.698570  s :     0.698570
      pz      :     0.049019  p :     0.165782
      px      :     0.045876
      py      :     0.070888
 10 H s       :     0.727073  s :     0.727073
      pz      :     0.054026  p :     0.106103
      px      :     0.030071
      py      :     0.022005
 11 H s       :     0.824252  s :     0.824252
      pz      :     0.023235  p :     0.074691
      px      :     0.026272
      py      :     0.025184
 12 H s       :     0.832607  s :     0.832607
      pz      :     0.035494  p :     0.076158
      px      :     0.022673
      py      :     0.017991
 13 F s       :     3.657950  s :     3.657950
      pz      :     1.780276  p :     5.177277
      px      :     1.643721
      py      :     1.753280
      dz2     :     0.006262  d :     0.041306
      dxz     :     0.007579
      dyz     :     0.001422
      dx2y2   :     0.013194
      dxy     :     0.012849
      f0      :     0.000163  f :     0.001836
      f+1     :     0.000332
      f-1     :     0.000082
      f+2     :     0.000161
      f-2     :     0.000144
      f+3     :     0.000419
      f-3     :     0.000534
 14 O s       :     3.569254  s :     3.569254
      pz      :     1.529505  p :     4.584465
      px      :     1.491130
      py      :     1.563831
      dz2     :     0.018962  d :     0.068923
      dxz     :     0.027953
      dyz     :     0.010275
      dx2y2   :     0.006293
      dxy     :     0.005440
      f0      :     0.000812  f :     0.004721
      f+1     :     0.001701
      f-1     :     0.000440
      f+2     :     0.000871
      f-2     :     0.000623
      f+3     :     0.000148
      f-3     :     0.000127
 15 O s       :     3.567577  s :     3.567577
      pz      :     1.497752  p :     4.625729
      px      :     1.534370
      py      :     1.593607
      dz2     :     0.017120  d :     0.068782
      dxz     :     0.024095
      dyz     :     0.015537
      dx2y2   :     0.005041
      dxy     :     0.006988
      f0      :     0.000726  f :     0.004450
      f+1     :     0.001372
      f-1     :     0.000606
      f+2     :     0.000683
      f-2     :     0.000795
      f+3     :     0.000149
      f-3     :     0.000118
 16 H s       :     0.796924  s :     0.796924
      pz      :     0.033363  p :     0.059750
      px      :     0.013306
      py      :     0.013081
 17 H s       :     0.793547  s :     0.793547
      pz      :     0.013847  p :     0.059017
      px      :     0.012480
      py      :     0.032690
 18 H s       :     0.791711  s :     0.791711
      pz      :     0.013985  p :     0.057687
      px      :     0.024307
      py      :     0.019396
 19 H s       :     0.795608  s :     0.795608
      pz      :     0.013765  p :     0.061031
      px      :     0.013631
      py      :     0.033635


                      *****************************
                      * MAYER POPULATION ANALYSIS *
                      *****************************

  NA   - Mulliken gross atomic population
  ZA   - Total nuclear charge
  QA   - Mulliken gross atomic charge
  VA   - Mayer's total valence
  BVA  - Mayer's bonded valence
  FA   - Mayer's free valence

  ATOM       NA         ZA         QA         VA         BVA        FA
  0 C      6.2892     6.0000    -0.2892     3.9722     3.9722    -0.0000
  1 C      6.1101     6.0000    -0.1101     3.9069     3.9069    -0.0000
  2 C      6.3040     6.0000    -0.3040     3.9720     3.9720     0.0000
  3 H      0.8412     1.0000     0.1588     0.9761     0.9761     0.0000
  4 H      0.8651     1.0000     0.1349     0.9664     0.9664    -0.0000
  5 S     15.2159    16.0000     0.7841     5.8980     5.8980     0.0000
  6 C      5.8179     6.0000     0.1821     3.9936     3.9936    -0.0000
  7 C      6.4234     6.0000    -0.4234     3.8751     3.8751    -0.0000
  8 N      7.4402     7.0000    -0.4402     3.1073     3.1073    -0.0000
  9 H      0.7395     1.0000     0.2605     0.9857     0.9857     0.0000
 10 H      0.7859     1.0000     0.2141     0.9634     0.9634    -0.0000
 11 H      0.9071     1.0000     0.0929     0.9862     0.9862    -0.0000
 12 H      0.9166     1.0000     0.0834     0.9889     0.9889    -0.0000
 13 F      9.0637     9.0000    -0.0637     1.2814     1.2814     0.0000
 14 O      8.3590     8.0000    -0.3590     2.0985     2.0985     0.0000
 15 O      8.4202     8.0000    -0.4202     2.0001     2.0001    -0.0000
 16 H      0.8873     1.0000     0.1127     0.9781     0.9781    -0.0000
 17 H      0.8892     1.0000     0.1108     0.9841     0.9841     0.0000
 18 H      0.8860     1.0000     0.1140     0.9861     0.9861    -0.0000
 19 H      0.8384     1.0000     0.1616     0.9721     0.9721     0.0000

  Mayer bond orders larger than 0.100000
B(  0-C ,  1-C ) :   0.9978 B(  0-C ,  6-C ) :   0.9646 B(  0-C , 18-H ) :   0.9457 
B(  0-C , 19-H ) :   0.9658 B(  1-C ,  2-C ) :   1.0315 B(  1-C , 16-H ) :   0.9367 
B(  1-C , 17-H ) :   0.9201 B(  2-C ,  3-H ) :   0.9174 B(  2-C ,  4-H ) :   0.9230 
B(  2-C ,  5-S ) :   0.9341 B(  5-S , 13-F ) :   1.1779 B(  5-S , 14-O ) :   1.9373 
B(  5-S , 15-O ) :   1.7620 B(  6-C ,  7-C ) :   1.7522 B(  6-C ,  8-N ) :   1.2414 
B(  7-C , 11-H ) :   0.9740 B(  7-C , 12-H ) :   0.9745 B(  8-N ,  9-H ) :   0.8375 
B(  8-N , 10-H ) :   0.9150 B(  9-H , 15-O ) :   0.1146 

-------
TIMINGS
-------

Total SCF time: 0 days 0 hours 0 min 13 sec 

Total time                  ....      13.314 sec
Sum of individual times     ....      12.733 sec  ( 95.6%)

Fock matrix formation       ....      10.822 sec  ( 81.3%)
  Split-RI-J                ....       3.176 sec  ( 29.3% of F)
  XC integration            ....       7.038 sec  ( 65.0% of F)
    Basis function eval.    ....       0.778 sec  ( 11.0% of XC)
    Density eval.           ....       1.830 sec  ( 26.0% of XC)
    XC-Functional eval.     ....       0.207 sec  (  2.9% of XC)
    XC-Potential eval.      ....       2.023 sec  ( 28.7% of XC)
Diagonalization             ....       0.252 sec  (  1.9%)
Density matrix formation    ....       0.036 sec  (  0.3%)
Population analysis         ....       0.042 sec  (  0.3%)
Initial guess               ....       0.258 sec  (  1.9%)
Orbital Transformation      ....       0.000 sec  (  0.0%)
Orbital Orthonormalization  ....       0.000 sec  (  0.0%)
DIIS solution               ....       0.139 sec  (  1.0%)
SOSCF solution              ....       0.444 sec  (  3.3%)
Grid generation             ....       0.740 sec  (  5.6%)

Maximum memory used throughout the entire SCF-calculation: 43.4 MB


-------------------------------------------------------------------------------
                          DFT DISPERSION CORRECTION                            
                                                                               
                              DFTD3 V3.1  Rev 1                                
                          USING Becke-Johnson damping                          
-------------------------------------------------------------------------------
The TPSS functional is recognized
Active option DFTDOPT                   ...         4   

molecular C6(AA) [au] = 4228.766350 


            DFT-D V3
 parameters
 s6 scaling factor         :     1.0000 
 a1 scaling factor         :     0.4535 
 s8 scaling factor         :     1.9435 
 a2 scaling factor         :     4.4752 
 ad hoc parameters k1-k3   :    16.0000     1.3333    -4.0000 

 Edisp/kcal,au: -18.016875134833  -0.028711715054 
 E6   /kcal   :  -9.040219583 
 E8   /kcal   :  -8.976655552 
 % E8         :  49.823598623 

-------------------------   ----------------
Dispersion correction           -0.028711715
-------------------------   ----------------


-------------------------   --------------------
FINAL SINGLE POINT ENERGY      -900.043505557680
-------------------------   --------------------


                            ***************************************
                            *     ORCA property calculations      *
                            ***************************************

                                    ---------------------
                                    Active property flags
                                    ---------------------
   (+) Dipole Moment


------------------------------------------------------------------------------
                       ORCA ELECTRIC PROPERTIES CALCULATION
------------------------------------------------------------------------------

Dipole Moment Calculation                       ... on
Quadrupole Moment Calculation                   ... off
Polarizability Calculation                      ... off
GBWName                                         ... TPSS_D1_wb97.gbw
Electron density file                           ... TPSS_D1_wb97.scfp
The origin for moment calculation is the CENTER OF MASS  = ( 1.981418,  2.094258 -9.687316)

-------------
DIPOLE MOMENT
-------------
                                X             Y             Z
Electronic contribution:     10.13291     -14.01317       5.44149
Nuclear contribution   :     -8.53047      14.15581      -5.17613
                        -----------------------------------------
Total Dipole Moment    :      1.60244       0.14264       0.26536
                        -----------------------------------------
Magnitude (a.u.)       :      1.63051
Magnitude (Debye)      :      4.14443



--------------------
Rotational spectrum 
--------------------
 
Rotational constants in cm-1:     0.081196     0.024861     0.022477 
Rotational constants in MHz :  2434.181666   745.320670   673.846846 

 Dipole components along the rotational axes: 
x,y,z [a.u.] :     0.999280     0.164913     1.277812 
x,y,z [Debye]:     2.539969     0.419177     3.247941 

 

Timings for individual modules:

Sum of individual times         ...       14.734 sec (=   0.246 min)
GTO integral calculation        ...        0.973 sec (=   0.016 min)   6.6 %
SCF iterations                  ...       13.761 sec (=   0.229 min)  93.4 %
                             ****ORCA TERMINATED NORMALLY****
TOTAL RUN TIME: 0 days 0 hours 0 minutes 15 seconds 387 msec
