
                                        *****************
                                        * O   R   C   A *
                                        *****************

                                            #,                                       
                                            ###                                      
                                            ####                                     
                                            #####                                    
                                            ######                                   
                                           ########,                                 
                                     ,,################,,,,,                         
                               ,,#################################,,                 
                          ,,##########################################,,             
                       ,#########################################, ''#####,          
                    ,#############################################,,   '####,        
                  ,##################################################,,,,####,       
                ,###########''''           ''''###############################       
              ,#####''   ,,,,##########,,,,          '''####'''          '####       
            ,##' ,,,,###########################,,,                        '##       
           ' ,,###''''                  '''############,,,                           
         ,,##''                                '''############,,,,        ,,,,,,###''
      ,#''                                            '''#######################'''  
     '                                                          ''''####''''         
             ,#######,   #######,   ,#######,      ##                                
            ,#'     '#,  ##    ##  ,#'     '#,    #''#        ######   ,####,        
            ##       ##  ##   ,#'  ##            #'  '#       #        #'  '#        
            ##       ##  #######   ##           ,######,      #####,   #    #        
            '#,     ,#'  ##    ##  '#,     ,#' ,#      #,         ##   #,  ,#        
             '#######'   ##     ##  '#######'  #'      '#     #####' # '####'        



                  #######################################################
                  #                        -***-                        #
                  #          Department of theory and spectroscopy      #
                  #    Directorship and core code : Frank Neese         #
                  #        Max Planck Institute fuer Kohlenforschung    #
                  #                Kaiser Wilhelm Platz 1               #
                  #                 D-45470 Muelheim/Ruhr               #
                  #                      Germany                        #
                  #                                                     #
                  #                  All rights reserved                #
                  #                        -***-                        #
                  #######################################################


                         Program Version 5.0.0 -  RELEASE  -
                                (SVN: $Rev: 19529$)
                ($Date: 2021-06-28 11:36:33 +0200 (Mo, 28 Jun 2021) $)


 With contributions from (in alphabetic order):
   Daniel Aravena         : Magnetic Suceptibility
   Michael Atanasov       : Ab Initio Ligand Field Theory (pilot matlab implementation)
   Alexander A. Auer      : GIAO ZORA, VPT2 properties, NMR spectrum
   Ute Becker             : Parallelization
   Giovanni Bistoni       : ED, misc. LED, open-shell LED, HFLD
   Martin Brehm           : Molecular dynamics
   Dmytro Bykov           : SCF Hessian
   Vijay G. Chilkuri      : MRCI spin determinant printing, contributions to CSF-ICE
   Dipayan Datta          : RHF DLPNO-CCSD density
   Achintya Kumar Dutta   : EOM-CC, STEOM-CC
   Dmitry Ganyushin       : Spin-Orbit,Spin-Spin,Magnetic field MRCI
   Miquel Garcia          : C-PCM Hessian, Gaussian charge scheme
   Yang Guo               : DLPNO-NEVPT2, F12-NEVPT2, CIM, IAO-localization
   Andreas Hansen         : Spin unrestricted coupled pair/coupled cluster methods
   Benjamin Helmich-Paris : MC-RPA, TRAH-SCF, COSX integrals
   Lee Huntington         : MR-EOM, pCC
   Robert Izsak           : Overlap fitted RIJCOSX, COSX-SCS-MP3, EOM
   Marcus Kettner         : VPT2
   Christian Kollmar      : KDIIS, OOCD, Brueckner-CCSD(T), CCSD density, CASPT2, CASPT2-K
   Simone Kossmann        : Meta GGA functionals, TD-DFT gradient, OOMP2, MP2 Hessian
   Martin Krupicka        : Initial AUTO-CI
   Lucas Lang             : DCDCAS
   Marvin Lechner         : AUTO-CI (C++ implementation), FIC-MRCC
   Dagmar Lenk            : GEPOL surface, SMD
   Dimitrios Liakos       : Extrapolation schemes; Compound Job, initial MDCI parallelization
   Dimitrios Manganas     : Further ROCIS development; embedding schemes
   Dimitrios Pantazis     : SARC Basis sets
   Anastasios Papadopoulos: AUTO-CI, single reference methods and gradients
   Taras Petrenko         : DFT Hessian,TD-DFT gradient, ASA, ECA, R-Raman, ABS, FL, XAS/XES, NRVS
   Peter Pinski           : DLPNO-MP2, DLPNO-MP2 Gradient
   Christoph Reimann      : Effective Core Potentials
   Marius Retegan         : Local ZFS, SOC
   Christoph Riplinger    : Optimizer, TS searches, QM/MM, DLPNO-CCSD(T), (RO)-DLPNO pert. Triples
   Tobias Risthaus        : Range-separated hybrids, TD-DFT gradient, RPA, STAB
   Michael Roemelt        : Original ROCIS implementation
   Masaaki Saitow         : Open-shell DLPNO-CCSD energy and density
   Barbara Sandhoefer     : DKH picture change effects
   Avijit Sen             : IP-ROCIS
   Kantharuban Sivalingam : CASSCF convergence, NEVPT2, FIC-MRCI
   Bernardo de Souza      : ESD, SOC TD-DFT
   Georgi Stoychev        : AutoAux, RI-MP2 NMR
   Willem Van den Heuvel  : Paramagnetic NMR
   Boris Wezisla          : Elementary symmetry handling
   Frank Wennmohs         : Technical directorship


 We gratefully acknowledge several colleagues who have allowed us to
 interface, adapt or use parts of their codes:
   Stefan Grimme, W. Hujo, H. Kruse, P. Pracht,  : VdW corrections, initial TS optimization,
                  C. Bannwarth, S. Ehlert          DFT functionals, gCP, sTDA/sTD-DF
   Ed Valeev, F. Pavosevic, A. Kumar             : LibInt (2-el integral package), F12 methods
   Garnet Chan, S. Sharma, J. Yang, R. Olivares  : DMRG
   Ulf Ekstrom                                   : XCFun DFT Library
   Mihaly Kallay                                 : mrcc  (arbitrary order and MRCC methods)
   Jiri Pittner, Ondrej Demel                    : Mk-CCSD
   Frank Weinhold                                : gennbo (NPA and NBO analysis)
   Christopher J. Cramer and Donald G. Truhlar   : smd solvation model
   Lars Goerigk                                  : TD-DFT with DH, B97 family of functionals
   V. Asgeirsson, H. Jonsson                     : NEB implementation
   FAccTs GmbH                                   : IRC, NEB, NEB-TS, DLPNO-Multilevel, CI-OPT
                                                   MM, QMMM, 2- and 3-layer-ONIOM, Crystal-QMMM,
                                                   LR-CPCM, SF, NACMEs, symmetry and pop. for TD-DFT,
                                                   nearIR, NL-DFT gradient (VV10), updates on ESD,
                                                   ML-optimized integration grids
   S Lehtola, MJT Oliveira, MAL Marques          : LibXC Library
   Liviu Ungur et al                             : ANISO software


 Your calculation uses the libint2 library for the computation of 2-el integrals
 For citations please refer to: http://libint.valeyev.net

 Your ORCA version has been built with support for libXC version: 5.1.0
 For citations please refer to: https://tddft.org/programs/libxc/

 This ORCA versions uses:
   CBLAS   interface :  Fast vector & matrix operations
   LAPACKE interface :  Fast linear algebra routines
   SCALAPACK package :  Parallel linear algebra routines
   Shared memory     :  Shared parallel matrices
   BLAS/LAPACK       :  OpenBLAS 0.3.15  USE64BITINT DYNAMIC_ARCH NO_AFFINITY Haswell SINGLE_THREADED
        Core in use  :  Haswell
   Copyright (c) 2011-2014, The OpenBLAS Project




***************************************
The coordinates will be read from file: B.xyz
***************************************


Your calculation utilizes the atom-pairwise dispersion correction
with the zero-damping scheme (D30)
Cite in your paper:
S.Grimme, J.Antony, S.Ehrlich and H.Krieg, J.Chem.Phys., 132, (2010), 154104 
   

XCFun DFT library Copyright 2009-2010 Ulf Ekstrom and contributors.
See http://admol.org/xcfun for more information.
This is free software; see the source code for copying conditions.
There is ABSOLUTELY NO WARRANTY; not even for MERCHANTABILITY or FITNESS FOR A PARTICULAR PURPOSE.
For details see the documentation.
Scientific users of this library should cite U. Ekstrom, L. Visscher, R. Bast, A. J. Thorvaldsen and K. Ruud;
J.Chem.Theor.Comp. 2010, DOI: 10.1021/ct100117s
XCFun Version 0.99 

================================================================================

----- Orbital basis set information -----
Your calculation utilizes the basis: def2-SVPD
   F. Weigend and R. Ahlrichs, Phys. Chem. Chem. Phys. 7, 3297 (2005).
   D. Rappoport and F. Furche, J. Chem. Phys. 133 134105 (2010).

----- AuxJ basis set information -----
Your calculation utilizes the auxiliary basis: def2/J
   F. Weigend, Phys. Chem. Chem. Phys. 8, 1057 (2006).

================================================================================
                                        WARNINGS
                       Please study these warnings very carefully!
================================================================================


INFO   : the flag for use of the SHARK integral package has been found!

================================================================================
                                       INPUT FILE
================================================================================
NAME = B_wt_wb97.com
|  1> !wB97X-D3 RIJCOSX def2-SVPD def2/J TightSCF CPCM(Water) xyzfile                                                                 
|  2> 
|  3> *xyzfile 0 1 B.xyz
|  4> 
|  5> %MaxCore 64000
|  6> 
|  7> %pal nprocs 18                                                                                                                                                  
|  8> end  
|  9> 
| 10> %scf
| 11>   MaxIter 150
| 12> end
| 13> 
| 14> 
| 15>                          ****END OF INPUT****
================================================================================

                       ****************************
                       * Single Point Calculation *
                       ****************************

---------------------------------
CARTESIAN COORDINATES (ANGSTROEM)
---------------------------------
  C      3.380928    2.083045   -3.350127
  N      4.535924    1.182447   -3.428518
  C      2.495557    1.816150   -2.136364
  C      1.872181    0.427903   -2.077497
  H      2.614270   -0.365825   -2.198894
  H      1.389953    0.273087   -1.112360
  S      0.579024    0.140472   -3.297943
  C      4.671956    0.122273   -4.220598
  N      5.866023   -0.507849   -4.224284
  N      3.698881   -0.312844   -4.986988
  H      2.731405   -0.050091   -4.849000
  H      3.890046   -1.055172   -5.643730
  H      5.251933    1.303459   -2.721014
  H      6.695165   -0.062322   -3.851596
  H      5.975383   -1.396884   -4.691414
  O      0.228860   -1.246868   -3.127871
  O     -0.439269    1.118966   -3.014550
  O      1.247881    0.403474   -4.595647
  H      1.697003    2.561969   -2.141109
  H      3.080787    1.987436   -1.225838
  H      2.806463    1.986511   -4.268484
  H      3.778714    3.098282   -3.307383

----------------------------
CARTESIAN COORDINATES (A.U.)
----------------------------
  NO LB      ZA    FRAG     MASS         X           Y           Z
   0 C     6.0000    0    12.011    6.389028    3.936384   -6.330822
   1 N     7.0000    0    14.007    8.571653    2.234501   -6.478960
   2 C     6.0000    0    12.011    4.715920    3.432025   -4.037143
   3 C     6.0000    0    12.011    3.537909    0.808619   -3.925901
   4 H     1.0000    0     1.008    4.940255   -0.691309   -4.155307
   5 H     1.0000    0     1.008    2.626630    0.516060   -2.102056
   6 S    16.0000    0    32.060    1.094197    0.265454   -6.232209
   7 C     6.0000    0    12.011    8.828718    0.231062   -7.975775
   8 N     7.0000    0    14.007   11.085178   -0.959696   -7.982739
   9 N     7.0000    0    14.007    6.989872   -0.591189   -9.424042
  10 H     1.0000    0     1.008    5.161608   -0.094658   -9.163282
  11 H     1.0000    0     1.008    7.351122   -1.993986  -10.665104
  12 H     1.0000    0     1.008    9.924714    2.463181   -5.141971
  13 H     1.0000    0     1.008   12.652028   -0.117771   -7.278462
  14 H     1.0000    0     1.008   11.291838   -2.639728   -8.865488
  15 O     8.0000    0    15.999    0.432483   -2.356238   -5.910819
  16 O     8.0000    0    15.999   -0.830098    2.114540   -5.696673
  17 O     8.0000    0    15.999    2.358154    0.762455   -8.684514
  18 H     1.0000    0     1.008    3.206871    4.841420   -4.046109
  19 H     1.0000    0     1.008    5.821845    3.755709   -2.316498
  20 H     1.0000    0     1.008    5.303447    3.753961   -8.066266
  21 H     1.0000    0     1.008    7.140735    5.854904   -6.250048

--------------------------------
INTERNAL COORDINATES (ANGSTROEM)
--------------------------------
 C      0   0   0     0.000000000000     0.00000000     0.00000000
 N      1   0   0     1.466709159152     0.00000000     0.00000000
 C      1   2   0     1.525887598611   113.08106121     0.00000000
 C      3   1   2     1.522922426714   115.32150160   298.98779578
 H      4   3   1     1.093360976858   112.31147686    51.76616417
 H      4   3   1     1.089954594431   110.16986842   171.17309744
 S      4   3   1     1.801210303623   114.40266140   289.23510751
 C      2   1   3     1.330363150639   126.98915710   102.39030975
 N      8   2   1     1.350134350047   117.64436639   174.24681917
 N      8   2   1     1.312842464079   122.40463695   354.61440396
 H     10   8   2     1.011972738098   122.88487069   342.67118838
 H     10   8   2     1.009408202469   118.89300887   173.11229738
 H      2   1   3     1.013841643828   116.45871694   291.29563037
 H      9   8   2     1.012356698497   121.19473046   343.47581302
 H      9   8   2     1.010224236058   120.51235872   170.23230527
 O      7   4   3     1.440920179428   104.36732947   175.27794104
 O      7   4   3     1.440376003423   105.41678409   299.48536641
 O      7   4   3     1.483433803163   103.93008595    57.15043279
 H      3   1   2     1.092683852872   107.52997589   177.35677273
 H      3   1   2     1.095851861430   108.88782929    62.11677368
 H      1   2   3     1.087524204377   108.44120771   237.12593655
 H      1   2   3     1.091223184114   106.63672387   121.10258644

---------------------------
INTERNAL COORDINATES (A.U.)
---------------------------
 C      0   0   0     0.000000000000     0.00000000     0.00000000
 N      1   0   0     2.771678628911     0.00000000     0.00000000
 C      1   2   0     2.883509672521   113.08106121     0.00000000
 C      3   1   2     2.877906309695   115.32150160   298.98779578
 H      4   3   1     2.066152811778   112.31147686    51.76616417
 H      4   3   1     2.059715681884   110.16986842   171.17309744
 S      4   3   1     3.403794183444   114.40266140   289.23510751
 C      2   1   3     2.514022013368   126.98915710   102.39030975
 N      8   2   1     2.551384165588   117.64436639   174.24681917
 N      8   2   1     2.480912714091   122.40463695   354.61440396
 H     10   8   2     1.912351330000   122.88487069   342.67118838
 H     10   8   2     1.907505060000   118.89300887   173.11229738
 H      2   1   3     1.915883050000   116.45871694   291.29563037
 H      9   8   2     1.913076910000   121.19473046   343.47581302
 H      9   8   2     1.909047140000   120.51235872   170.23230527
 O      7   4   3     2.722944519960   104.36732947   175.27794104
 O      7   4   3     2.721916176342   105.41678409   299.48536641
 O      7   4   3     2.803283625779   103.93008595    57.15043279
 H      3   1   2     2.064873232886   107.52997589   177.35677273
 H      3   1   2     2.070859901451   108.88782929    62.11677368
 H      1   2   3     2.055122910283   108.44120771   237.12593655
 H      1   2   3     2.062112968961   106.63672387   121.10258644

---------------------
BASIS SET INFORMATION
---------------------
There are 5 groups of distinct atoms

 Group   1 Type C   : 8s4p2d contracted to 4s2p2d pattern {5111/31/11}
 Group   2 Type N   : 8s4p2d contracted to 4s2p2d pattern {5111/31/11}
 Group   3 Type H   : 4s2p contracted to 2s2p pattern {31/11}
 Group   4 Type S   : 11s8p2d contracted to 5s4p2d pattern {53111/5111/11}
 Group   5 Type O   : 8s5p2d contracted to 4s3p2d pattern {5111/311/11}

Atom   0C    basis set group =>   1
Atom   1N    basis set group =>   2
Atom   2C    basis set group =>   1
Atom   3C    basis set group =>   1
Atom   4H    basis set group =>   3
Atom   5H    basis set group =>   3
Atom   6S    basis set group =>   4
Atom   7C    basis set group =>   1
Atom   8N    basis set group =>   2
Atom   9N    basis set group =>   2
Atom  10H    basis set group =>   3
Atom  11H    basis set group =>   3
Atom  12H    basis set group =>   3
Atom  13H    basis set group =>   3
Atom  14H    basis set group =>   3
Atom  15O    basis set group =>   5
Atom  16O    basis set group =>   5
Atom  17O    basis set group =>   5
Atom  18H    basis set group =>   3
Atom  19H    basis set group =>   3
Atom  20H    basis set group =>   3
Atom  21H    basis set group =>   3
---------------------------------
AUXILIARY/J BASIS SET INFORMATION
---------------------------------
There are 5 groups of distinct atoms

 Group   1 Type C   : 12s5p4d2f1g contracted to 6s4p3d1f1g pattern {711111/2111/211/2/1}
 Group   2 Type N   : 12s5p4d2f1g contracted to 6s4p3d1f1g pattern {711111/2111/211/2/1}
 Group   3 Type H   : 5s2p1d contracted to 3s1p1d pattern {311/2/1}
 Group   4 Type S   : 14s5p5d2f1g contracted to 8s4p3d1f1g pattern {71111111/2111/311/2/1}
 Group   5 Type O   : 12s5p4d2f1g contracted to 6s4p3d1f1g pattern {711111/2111/211/2/1}

Atom   0C    basis set group =>   1
Atom   1N    basis set group =>   2
Atom   2C    basis set group =>   1
Atom   3C    basis set group =>   1
Atom   4H    basis set group =>   3
Atom   5H    basis set group =>   3
Atom   6S    basis set group =>   4
Atom   7C    basis set group =>   1
Atom   8N    basis set group =>   2
Atom   9N    basis set group =>   2
Atom  10H    basis set group =>   3
Atom  11H    basis set group =>   3
Atom  12H    basis set group =>   3
Atom  13H    basis set group =>   3
Atom  14H    basis set group =>   3
Atom  15O    basis set group =>   5
Atom  16O    basis set group =>   5
Atom  17O    basis set group =>   5
Atom  18H    basis set group =>   3
Atom  19H    basis set group =>   3
Atom  20H    basis set group =>   3
Atom  21H    basis set group =>   3


           ************************************************************
           *        Program running with 18 parallel MPI-processes    *
           *              working on a common directory               *
           ************************************************************
------------------------------------------------------------------------------
                           ORCA GTO INTEGRAL CALCULATION
                           -- RI-GTO INTEGRALS CHOSEN --
------------------------------------------------------------------------------
------------------------------------------------------------------------------
                   ___                                                        
                  /   \      - P O W E R E D   B Y -                         
                 /     \                                                     
                 |  |  |   _    _      __       _____    __    __             
                 |  |  |  | |  | |    /  \     |  _  \  |  |  /  |          
                  \  \/   | |  | |   /    \    | | | |  |  | /  /          
                 / \  \   | |__| |  /  /\  \   | |_| |  |  |/  /          
                |  |  |   |  __  | /  /__\  \  |    /   |      \           
                |  |  |   | |  | | |   __   |  |    \   |  |\   \          
                \     /   | |  | | |  |  |  |  | |\  \  |  | \   \       
                 \___/    |_|  |_| |__|  |__|  |_| \__\ |__|  \__/        
                                                                              
                      - O R C A' S   B I G   F R I E N D -                    
                                      &                                       
                       - I N T E G R A L  F E E D E R -                       
                                                                              
 v1 FN, 2020, v2 2021                                                         
------------------------------------------------------------------------------


Reading SHARK input file B_wt_wb97.SHARKINP.tmp ... ok
----------------------
SHARK INTEGRAL PACKAGE
----------------------

Number of atoms                             ...     22
Number of basis functions                   ...    324
Number of shells                            ...    138
Maximum angular momentum                    ...      2
Integral batch strategy                     ... SHARK/LIBINT Hybrid
RI-J (if used) integral strategy            ... SPLIT-RIJ (Revised 2003 algorithm where possible)
Printlevel                                  ...      1
Contraction scheme used                     ... SEGMENTED contraction
Coulomb Range Separation                    ... NOT USED
Exchange Range Separation                   ... Long Range
   Mu parameter                             ...  0.250000
   Scaling (regular/separated)              ...  0.195728  0.804272
Finite Nucleus Model                        ... NOT USED
Auxiliary Coulomb fitting basis             ... AVAILABLE
   # of basis functions in Aux-J            ...    662
   # of shells in Aux-J                     ...    222
   Maximum angular momentum in Aux-J        ...      4
Auxiliary J/K fitting basis                 ... NOT available
Auxiliary Correlation fitting basis         ... NOT available
Auxiliary 'external' fitting basis          ... NOT available
Integral threshold                          ...     2.500000e-11
Primitive cut-off                           ...     2.500000e-12
Primitive pair pre-selection threshold      ...     2.500000e-12

Calculating pre-screening integrals         ... done (  0.1 sec) Dimension = 138
Organizing shell pair data                  ... done (  0.1 sec)
Shell pair information
Total number of shell pairs                 ...      9591
Shell pairs after pre-screening             ...      9042
Total number of primitive shell pairs       ...     26751
Primitive shell pairs kept                  ...     19633
          la=0 lb=0:   2118 shell pairs
          la=1 lb=0:   3092 shell pairs
          la=1 lb=1:   1171 shell pairs
          la=2 lb=0:   1391 shell pairs
          la=2 lb=1:   1029 shell pairs
          la=2 lb=2:    241 shell pairs

Calculating one electron integrals          ... done (  0.0 sec)
Calculating RI/J V-Matrix + Cholesky decomp.... done (  0.1 sec)
Calculating Nuclear repulsion               ... done (  0.0 sec) ENN=    832.304811973162 Eh

SHARK setup successfully completed in   0.4 seconds

Maximum memory used throughout the entire GTOINT-calculation: 15.7 MB


           ************************************************************
           *        Program running with 18 parallel MPI-processes    *
           *              working on a common directory               *
           ************************************************************
-------------------------------------------------------------------------------
                                 ORCA SCF
-------------------------------------------------------------------------------

------------
SCF SETTINGS
------------
Hamiltonian:
 Density Functional     Method          .... DFT(GTOs)
 Exchange Functional    Exchange        .... WB97X-D3
 Correlation Functional Correlation     .... WB97X-D3
 Gradients option       PostSCFGGA      .... off
 Hybrid DFT is turned on
   Fraction HF Exchange ScalHFX         ....  0.195728
   Scaling of DF-GGA-X  ScalDFX         ....  0.000000
   Scaling of DF-GGA-C  ScalDFC         ....  1.000000
   Scaling of DF-LDA-C  ScalLDAC        ....  1.000000
   Perturbative correction              ....  0.000000
   Density functional embedding theory  .... OFF
 Long-range corrected/Screened/Range-Separated Hybrid DFT is turned on
   Amount of maximum screened exact exchange              ....  0.804272
   Range separation parameter mu (erf(mu*r12)/r12)        ....  0.250000
 RI-approximation to the Coulomb term is turned on
   Number of AuxJ basis functions       .... 662
   RIJ-COSX (HFX calculated with COS-X)).... on


General Settings:
 Integral files         IntName         .... B_wt_wb97
 Hartree-Fock type      HFTyp           .... RHF
 Total Charge           Charge          ....    0
 Multiplicity           Mult            ....    1
 Number of Electrons    NEL             ....   96
 Basis Dimension        Dim             ....  324
 Nuclear Repulsion      ENuc            ....    832.3048119732 Eh

Convergence Acceleration:
 DIIS                   CNVDIIS         .... on
   Start iteration      DIISMaxIt       ....    12
   Startup error        DIISStart       ....  0.200000
   # of expansion vecs  DIISMaxEq       ....     5
   Bias factor          DIISBfac        ....   1.050
   Max. coefficient     DIISMaxC        ....  10.000
 Trust-Rad. Augm. Hess. CNVTRAH         .... auto
   Auto Start mean grad. ratio tolernc. ....  1.125000
   Auto Start start iteration           ....    20
   Auto Start num. interpolation iter.  ....    10
   Max. Number of Micro iterations      ....    16
   Max. Number of Macro iterations      .... Maxiter - #DIIS iter
   Number of Davidson start vectors     ....     2
   Converg. threshold I  (grad. norm)   ....   1.000e-05
   Converg. threshold II (energy diff.) ....   1.000e-08
   Grad. Scal. Fac. for Micro threshold ....   0.100
   Minimum threshold for Micro iter.    ....   0.010
   NR start threshold (gradient norm)   ....   0.001
   Initial trust radius                 ....   0.400
   Minimum AH scaling param. (alpha)    ....   1.000
   Maximum AH scaling param. (alpha)    .... 1000.000
   Orbital update algorithm             .... Taylor
   White noise on init. David. guess    .... on
   Maximum white noise                  ....   0.010
   Quad. conv. algorithm                .... NR
 SOSCF                  CNVSOSCF        .... on
   Start iteration      SOSCFMaxIt      ....   150
   Startup grad/error   SOSCFStart      ....  0.003300
 Level Shifting         CNVShift        .... on
   Level shift para.    LevelShift      ....    0.2500
   Turn off err/grad.   ShiftErr        ....    0.0010
 Zerner damping         CNVZerner       .... off
 Static damping         CNVDamp         .... on
   Fraction old density DampFac         ....    0.7000
   Max. Damping (<1)    DampMax         ....    0.9800
   Min. Damping (>=0)   DampMin         ....    0.0000
   Turn off err/grad.   DampErr         ....    0.1000
 Fernandez-Rico         CNVRico         .... off

SCF Procedure:
 Maximum # iterations   MaxIter         ....   150
 SCF integral mode      SCFMode         .... Direct
   Integral package                     .... SHARK and LIBINT hybrid scheme
 Reset frequency        DirectResetFreq ....    20
 Integral Threshold     Thresh          ....  2.500e-11 Eh
 Primitive CutOff       TCut            ....  2.500e-12 Eh

Convergence Tolerance:
 Convergence Check Mode ConvCheckMode   .... Total+1el-Energy
 Convergence forced     ConvForced      .... 0
 Energy Change          TolE            ....  1.000e-08 Eh
 1-El. energy change                    ....  1.000e-05 Eh
 Orbital Gradient       TolG            ....  1.000e-05
 Orbital Rotation angle TolX            ....  1.000e-05
 DIIS Error             TolErr          ....  5.000e-07


Diagonalization of the overlap matrix:
Smallest eigenvalue                        ... 3.976e-05
Time for diagonalization                   ...    0.025 sec
Threshold for overlap eigenvalues          ... 1.000e-08
Number of eigenvalues below threshold      ... 0
Time for construction of square roots      ...    0.042 sec
Total time needed                          ...    0.069 sec

Time for model grid setup =    0.117 sec

------------------------------
INITIAL GUESS: MODEL POTENTIAL
------------------------------
Loading Hartree-Fock densities                     ... done
Calculating cut-offs                               ... done
Initializing the effective Hamiltonian             ... done
Setting up the integral package (SHARK)            ... done
Starting the Coulomb interaction                   ... done (   0.0 sec)
Reading the grid                                   ... done
Mapping shells                                     ... done
Starting the XC term evaluation                    ... done (   0.1 sec)
  promolecular density results
     # of electrons  =     95.994788205
     EX              =    -92.916756552
     EC              =     -3.354314918
     EX+EC           =    -96.271071470
Transforming the Hamiltonian                       ... done (   0.0 sec)
Diagonalizing the Hamiltonian                      ... done (   0.0 sec)
Back transforming the eigenvectors                 ... done (   0.0 sec)
Now organizing SCF variables                       ... done
                      ------------------
                      INITIAL GUESS DONE (   0.3 sec)
                      ------------------
-------------------
DFT GRID GENERATION
-------------------

General Integration Accuracy     IntAcc      ... 4.388
Radial Grid Type                 RadialGrid  ... OptM3 with GC (2021)
Angular Grid (max. ang.)         AngularGrid ... 4 (Lebedev-302)
Angular grid pruning method      GridPruning ... 4 (adaptive)
Weight generation scheme         WeightScheme... Becke
Basis function cutoff            BFCut       ... 1.0000e-11
Integration weight cutoff        WCut        ... 1.0000e-14
Angular grids for H and He will be reduced by one unit
Partially contracted basis set               ... off
Rotationally invariant grid construction     ... off

Total number of grid points                  ...   105605
Total number of batches                      ...     1659
Average number of points per batch           ...       63
Average number of grid points per atom       ...     4800
Time for grid setup =    0.576 sec

--------------------
COSX GRID GENERATION
--------------------

GRIDX 1
-------
General Integration Accuracy     IntAcc      ... 3.816
Radial Grid Type                 RadialGrid  ... OptM3 with GC (2021)
Angular Grid (max. ang.)         AngularGrid ... 1 (Lebedev-50)
Angular grid pruning method      GridPruning ... 4 (adaptive)
Weight generation scheme         WeightScheme... Becke
Basis function cutoff            BFCut       ... 1.0000e-11
Integration weight cutoff        WCut        ... 1.0000e-14
Angular grids for H and He will be reduced by one unit
Partially contracted basis set               ... on
Rotationally invariant grid construction     ... off

Total number of grid points                  ...    13133
Total number of batches                      ...      219
Average number of points per batch           ...       59
Average number of grid points per atom       ...      597
UseSFitting                                  ... on

GRIDX 2
-------
General Integration Accuracy     IntAcc      ... 4.020
Radial Grid Type                 RadialGrid  ... OptM3 with GC (2021)
Angular Grid (max. ang.)         AngularGrid ... 2 (Lebedev-110)
Angular grid pruning method      GridPruning ... 4 (adaptive)
Weight generation scheme         WeightScheme... Becke
Basis function cutoff            BFCut       ... 1.0000e-11
Integration weight cutoff        WCut        ... 1.0000e-14
Angular grids for H and He will be reduced by one unit
Partially contracted basis set               ... on
Rotationally invariant grid construction     ... off

Total number of grid points                  ...    30013
Total number of batches                      ...      481
Average number of points per batch           ...       62
Average number of grid points per atom       ...     1364
UseSFitting                                  ... on

GRIDX 3
-------
General Integration Accuracy     IntAcc      ... 4.338
Radial Grid Type                 RadialGrid  ... OptM3 with GC (2021)
Angular Grid (max. ang.)         AngularGrid ... 3 (Lebedev-194)
Angular grid pruning method      GridPruning ... 4 (adaptive)
Weight generation scheme         WeightScheme... Becke
Basis function cutoff            BFCut       ... 1.0000e-11
Integration weight cutoff        WCut        ... 1.0000e-14
Angular grids for H and He will be reduced by one unit
Partially contracted basis set               ... on
Rotationally invariant grid construction     ... off

Total number of grid points                  ...    67839
Total number of batches                      ...     1070
Average number of points per batch           ...       63
Average number of grid points per atom       ...     3084
UseSFitting                                  ... on

Time for X-Grid setup             =    0.504 sec


--------------------
CPCM SOLVATION MODEL
--------------------
CPCM parameters:
  Epsilon                                         ...      80.4000
  Refrac                                          ...       1.3300
  Rsolv                                           ...       1.3000
  Surface type                                    ... GAUSSIAN VDW
  Epsilon function type                           ...         CPCM
Radii:
 Radius for C  used is    3.8550 Bohr (=   2.0400 Ang.)
 Radius for N  used is    3.5149 Bohr (=   1.8600 Ang.)
 Radius for H  used is    2.4944 Bohr (=   1.3200 Ang.)
 Radius for S  used is    4.0818 Bohr (=   2.1600 Ang.)
 Radius for O  used is    3.4469 Bohr (=   1.8240 Ang.)
Calculating surface                               ...        done! (  0.0s)
GEPOL surface points                              ...         1217
GEPOL Volume                                      ...    1287.3170
GEPOL Surface-area                                ...     709.4822
Calculating surface distance matrix               ...        done! (  0.0s)
Performing Cholesky decomposition & store         ...        done! (  0.1s)
Overall time for CPCM initialization              ...                 0.2s
--------------
SCF ITERATIONS
--------------
ITER       Energy         Delta-E        Max-DP      RMS-DP      [F,P]     Damp
               ***  Starting incremental Fock matrix formation  ***
  0   -946.1319008378   0.000000000000 0.13655560  0.00222093  0.2683444 0.7000
  1   -946.3195844351  -0.187683597260 0.06976013  0.00144558  0.1324774 0.7000
                               ***Turning on DIIS***
  2   -946.4029898183  -0.083405383241 0.10701402  0.00281140  0.0511042 0.0000
  3   -946.5360739357  -0.133084117306 0.06776174  0.00104976  0.0634429 0.0000
  4   -946.5595358307  -0.023461895079 0.01323049  0.00020914  0.0076898 0.0000
                      *** Initiating the SOSCF procedure ***
                           *** Shutting down DIIS ***
                      *** Re-Reading the Fockian *** 
                      *** Removing any level shift *** 
ITER      Energy       Delta-E        Grad      Rot      Max-DP    RMS-DP
  5   -946.55996892  -0.0004330848  0.000615  0.000615  0.003194  0.000079
               *** Restarting incremental Fock matrix formation ***
  6   -946.55999510  -0.0000261866  0.000303  0.000490  0.003314  0.000072
  7   -946.56000203  -0.0000069280  0.000120  0.000311  0.001098  0.000032
  8   -946.56000366  -0.0000016252  0.000029  0.000032  0.000469  0.000013
  9   -946.56000379  -0.0000001366  0.000015  0.000014  0.000164  0.000004
 10   -946.56000382  -0.0000000297  0.000008  0.000013  0.000079  0.000003
                  ***Gradient check signals convergence***
              ***Rediagonalizing the Fockian in SOSCF/NRSCF***

               *****************************************************
               *                     SUCCESS                       *
               *           SCF CONVERGED AFTER  11 CYCLES          *
               *****************************************************

Old exchange energy                            =    -28.829141641 Eh
New exchange energy                            =    -28.829150101 Eh
Exchange energy change after final integration =     -0.000008460 Eh
Total energy after final integration           =   -946.560012285 Eh
Final COS-X integration done in                =     4.850 sec

----------------
TOTAL SCF ENERGY
----------------

Total Energy       :         -946.56001228 Eh          -25757.20741 eV

Components:
Nuclear Repulsion  :          832.30481197 Eh           22648.16534 eV
Electronic Energy  :        -1778.86482426 Eh          -48405.37275 eV
One Electron Energy:        -2951.28718058 Eh          -80308.60699 eV
Two Electron Energy:         1172.42235632 Eh           31903.23424 eV
Max COSX asymmetry :            0.00000724 Eh               0.00020 eV
CPCM Dielectric    :           -0.07824578 Eh              -2.12918 eV

Virial components:
Potential Energy   :        -1886.57145979 Eh          -51336.21930 eV
Kinetic Energy     :          940.01144750 Eh           25579.01190 eV
Virial Ratio       :            2.00696647


DFT components:
N(Alpha)           :       48.000174200925 electrons
N(Beta)            :       48.000174200925 electrons
N(Total)           :       96.000348401849 electrons
E(XC)              :      -69.250372675335 Eh       
DFET-embed. en.    :        0.000000000000 Eh       
CPCM Solvation Model Properties:
Surface-charge          :           -0.02471223
Charge-correction       :           -0.00011541 Eh              -0.00314 eV
Free-energy (cav+disp)  :  This term is not implemented in the current solvation scheme

---------------
SCF CONVERGENCE
---------------

  Last Energy change         ...   -3.3485e-09  Tolerance :   1.0000e-08
  Last MAX-Density change    ...    6.6613e-15  Tolerance :   1.0000e-07
  Last RMS-Density change    ...    4.6755e-17  Tolerance :   5.0000e-09
  Last Orbital Gradient      ...    1.1039e-06  Tolerance :   1.0000e-05
  Last Orbital Rotation      ...    1.9023e-06  Tolerance :   1.0000e-05

             **** THE GBW FILE WAS UPDATED (B_wt_wb97.gbw) ****
             **** DENSITY B_wt_wb97.scfp WAS UPDATED ****
             **** ENERGY FILE WAS UPDATED (B_wt_wb97.en.tmp) ****
             **** THE GBW FILE WAS UPDATED (B_wt_wb97.gbw) ****
             **** DENSITY B_wt_wb97.scfp WAS UPDATED ****
----------------
ORBITAL ENERGIES
----------------

  NO   OCC          E(Eh)            E(eV) 
   0   2.0000     -89.166983     -2426.3569 
   1   2.0000     -19.218927      -522.9736 
   2   2.0000     -19.218771      -522.9693 
   3   2.0000     -19.216719      -522.9135 
   4   2.0000     -14.482578      -394.0910 
   5   2.0000     -14.472887      -393.8273 
   6   2.0000     -14.459057      -393.4509 
   7   2.0000     -10.445904      -284.2475 
   8   2.0000     -10.331969      -281.1472 
   9   2.0000     -10.306430      -280.4522 
  10   2.0000     -10.298982      -280.2496 
  11   2.0000      -8.240642      -224.2393 
  12   2.0000      -6.200817      -168.7328 
  13   2.0000      -6.200255      -168.7175 
  14   2.0000      -6.198777      -168.6773 
  15   2.0000      -1.245807       -33.9001 
  16   2.0000      -1.141588       -31.0642 
  17   2.0000      -1.102358       -29.9967 
  18   2.0000      -1.091251       -29.6944 
  19   2.0000      -1.031949       -28.0808 
  20   2.0000      -1.009856       -27.4796 
  21   2.0000      -0.912600       -24.8331 
  22   2.0000      -0.837418       -22.7873 
  23   2.0000      -0.759951       -20.6793 
  24   2.0000      -0.736125       -20.0310 
  25   2.0000      -0.712345       -19.3839 
  26   2.0000      -0.671968       -18.2852 
  27   2.0000      -0.664298       -18.0765 
  28   2.0000      -0.620728       -16.8909 
  29   2.0000      -0.609009       -16.5720 
  30   2.0000      -0.600054       -16.3283 
  31   2.0000      -0.591395       -16.0927 
  32   2.0000      -0.569571       -15.4988 
  33   2.0000      -0.561291       -15.2735 
  34   2.0000      -0.551003       -14.9936 
  35   2.0000      -0.540136       -14.6978 
  36   2.0000      -0.527927       -14.3656 
  37   2.0000      -0.471436       -12.8284 
  38   2.0000      -0.470514       -12.8033 
  39   2.0000      -0.464220       -12.6321 
  40   2.0000      -0.448854       -12.2139 
  41   2.0000      -0.447698       -12.1825 
  42   2.0000      -0.405622       -11.0375 
  43   2.0000      -0.399982       -10.8841 
  44   2.0000      -0.387448       -10.5430 
  45   2.0000      -0.377147       -10.2627 
  46   2.0000      -0.367004        -9.9867 
  47   2.0000      -0.362378        -9.8608 
  48   0.0000       0.078384         2.1329 
  49   0.0000       0.090479         2.4621 
  50   0.0000       0.093189         2.5358 
  51   0.0000       0.098009         2.6670 
  52   0.0000       0.100092         2.7236 
  53   0.0000       0.121251         3.2994 
  54   0.0000       0.128214         3.4889 
  55   0.0000       0.137257         3.7350 
  56   0.0000       0.145349         3.9552 
  57   0.0000       0.157095         4.2748 
  58   0.0000       0.164653         4.4804 
  59   0.0000       0.169821         4.6211 
  60   0.0000       0.177873         4.8402 
  61   0.0000       0.180898         4.9225 
  62   0.0000       0.192397         5.2354 
  63   0.0000       0.198460         5.4004 
  64   0.0000       0.209829         5.7097 
  65   0.0000       0.216506         5.8914 
  66   0.0000       0.219230         5.9655 
  67   0.0000       0.225520         6.1367 
  68   0.0000       0.230932         6.2840 
  69   0.0000       0.241899         6.5824 
  70   0.0000       0.245181         6.6717 
  71   0.0000       0.247843         6.7442 
  72   0.0000       0.250210         6.8086 
  73   0.0000       0.257674         7.0117 
  74   0.0000       0.262343         7.1387 
  75   0.0000       0.266779         7.2594 
  76   0.0000       0.267451         7.2777 
  77   0.0000       0.280083         7.6215 
  78   0.0000       0.282598         7.6899 
  79   0.0000       0.288692         7.8557 
  80   0.0000       0.292597         7.9620 
  81   0.0000       0.297588         8.0978 
  82   0.0000       0.307944         8.3796 
  83   0.0000       0.317708         8.6453 
  84   0.0000       0.321434         8.7467 
  85   0.0000       0.323190         8.7945 
  86   0.0000       0.327766         8.9190 
  87   0.0000       0.337042         9.1714 
  88   0.0000       0.338190         9.2026 
  89   0.0000       0.351907         9.5759 
  90   0.0000       0.357972         9.7409 
  91   0.0000       0.361268         9.8306 
  92   0.0000       0.371896        10.1198 
  93   0.0000       0.380170        10.3450 
  94   0.0000       0.381113        10.3706 
  95   0.0000       0.384954        10.4751 
  96   0.0000       0.393765        10.7149 
  97   0.0000       0.398196        10.8355 
  98   0.0000       0.405709        11.0399 
  99   0.0000       0.407600        11.0914 
 100   0.0000       0.417263        11.3543 
 101   0.0000       0.420047        11.4301 
 102   0.0000       0.429700        11.6927 
 103   0.0000       0.432670        11.7736 
 104   0.0000       0.437027        11.8921 
 105   0.0000       0.439254        11.9527 
 106   0.0000       0.447676        12.1819 
 107   0.0000       0.453875        12.3506 
 108   0.0000       0.460072        12.5192 
 109   0.0000       0.468465        12.7476 
 110   0.0000       0.471119        12.8198 
 111   0.0000       0.481698        13.1077 
 112   0.0000       0.482879        13.1398 
 113   0.0000       0.489723        13.3260 
 114   0.0000       0.498284        13.5590 
 115   0.0000       0.507793        13.8178 
 116   0.0000       0.512590        13.9483 
 117   0.0000       0.520334        14.1590 
 118   0.0000       0.524889        14.2830 
 119   0.0000       0.532923        14.5016 
 120   0.0000       0.538375        14.6499 
 121   0.0000       0.544896        14.8274 
 122   0.0000       0.548323        14.9206 
 123   0.0000       0.556275        15.1370 
 124   0.0000       0.562299        15.3009 
 125   0.0000       0.567771        15.4498 
 126   0.0000       0.570948        15.5363 
 127   0.0000       0.573236        15.5986 
 128   0.0000       0.580361        15.7924 
 129   0.0000       0.588917        16.0252 
 130   0.0000       0.593196        16.1417 
 131   0.0000       0.599822        16.3220 
 132   0.0000       0.606408        16.5012 
 133   0.0000       0.608006        16.5447 
 134   0.0000       0.615060        16.7366 
 135   0.0000       0.624831        17.0025 
 136   0.0000       0.628593        17.1049 
 137   0.0000       0.633520        17.2389 
 138   0.0000       0.639363        17.3979 
 139   0.0000       0.643988        17.5238 
 140   0.0000       0.655731        17.8434 
 141   0.0000       0.656924        17.8758 
 142   0.0000       0.660901        17.9840 
 143   0.0000       0.669596        18.2206 
 144   0.0000       0.673006        18.3134 
 145   0.0000       0.678652        18.4671 
 146   0.0000       0.687355        18.7039 
 147   0.0000       0.692487        18.8435 
 148   0.0000       0.705031        19.1849 
 149   0.0000       0.712648        19.3921 
 150   0.0000       0.720326        19.6011 
 151   0.0000       0.732636        19.9360 
 152   0.0000       0.740088        20.1388 
 153   0.0000       0.748770        20.3751 
 154   0.0000       0.759813        20.6756 
 155   0.0000       0.763548        20.7772 
 156   0.0000       0.768966        20.9246 
 157   0.0000       0.773452        21.0467 
 158   0.0000       0.787994        21.4424 
 159   0.0000       0.791703        21.5433 
 160   0.0000       0.802847        21.8466 
 161   0.0000       0.808436        21.9987 
 162   0.0000       0.819676        22.3045 
 163   0.0000       0.829280        22.5658 
 164   0.0000       0.838123        22.8065 
 165   0.0000       0.844361        22.9762 
 166   0.0000       0.848655        23.0931 
 167   0.0000       0.853353        23.2209 
 168   0.0000       0.861639        23.4464 
 169   0.0000       0.865964        23.5641 
 170   0.0000       0.870638        23.6913 
 171   0.0000       0.895860        24.3776 
 172   0.0000       0.905403        24.6373 
 173   0.0000       0.908299        24.7161 
 174   0.0000       0.911660        24.8075 
 175   0.0000       0.920626        25.0515 
 176   0.0000       0.936803        25.4917 
 177   0.0000       0.949637        25.8409 
 178   0.0000       0.968552        26.3556 
 179   0.0000       0.974776        26.5250 
 180   0.0000       1.009562        27.4716 
 181   0.0000       1.042721        28.3739 
 182   0.0000       1.054882        28.7048 
 183   0.0000       1.067276        29.0420 
 184   0.0000       1.079307        29.3694 
 185   0.0000       1.093525        29.7563 
 186   0.0000       1.109862        30.2009 
 187   0.0000       1.113885        30.3104 
 188   0.0000       1.123142        30.5622 
 189   0.0000       1.137413        30.9506 
 190   0.0000       1.146742        31.2044 
 191   0.0000       1.154313        31.4105 
 192   0.0000       1.161129        31.5959 
 193   0.0000       1.177876        32.0516 
 194   0.0000       1.194388        32.5009 
 195   0.0000       1.200048        32.6550 
 196   0.0000       1.219179        33.1756 
 197   0.0000       1.226620        33.3780 
 198   0.0000       1.243186        33.8288 
 199   0.0000       1.253526        34.1102 
 200   0.0000       1.269886        34.5553 
 201   0.0000       1.275646        34.7121 
 202   0.0000       1.291523        35.1441 
 203   0.0000       1.307669        35.5835 
 204   0.0000       1.316165        35.8147 
 205   0.0000       1.324179        36.0328 
 206   0.0000       1.345232        36.6056 
 207   0.0000       1.357742        36.9460 
 208   0.0000       1.369231        37.2587 
 209   0.0000       1.390203        37.8293 
 210   0.0000       1.404615        38.2215 
 211   0.0000       1.423720        38.7414 
 212   0.0000       1.438941        39.1556 
 213   0.0000       1.456217        39.6257 
 214   0.0000       1.466939        39.9174 
 215   0.0000       1.499468        40.8026 
 216   0.0000       1.524521        41.4843 
 217   0.0000       1.554323        42.2953 
 218   0.0000       1.580090        42.9964 
 219   0.0000       1.603747        43.6402 
 220   0.0000       1.632917        44.4339 
 221   0.0000       1.648081        44.8466 
 222   0.0000       1.672708        45.5167 
 223   0.0000       1.675225        45.5852 
 224   0.0000       1.694716        46.1156 
 225   0.0000       1.709123        46.5076 
 226   0.0000       1.729386        47.0590 
 227   0.0000       1.736694        47.2578 
 228   0.0000       1.742060        47.4039 
 229   0.0000       1.759102        47.8676 
 230   0.0000       1.778559        48.3970 
 231   0.0000       1.789003        48.6813 
 232   0.0000       1.794680        48.8357 
 233   0.0000       1.825555        49.6759 
 234   0.0000       1.827482        49.7283 
 235   0.0000       1.841466        50.1088 
 236   0.0000       1.854266        50.4572 
 237   0.0000       1.869283        50.8658 
 238   0.0000       1.885917        51.3184 
 239   0.0000       1.896586        51.6087 
 240   0.0000       1.912996        52.0553 
 241   0.0000       1.930441        52.5300 
 242   0.0000       1.958028        53.2806 
 243   0.0000       1.968398        53.5628 
 244   0.0000       1.988683        54.1148 
 245   0.0000       1.999706        54.4148 
 246   0.0000       2.010301        54.7031 
 247   0.0000       2.018205        54.9182 
 248   0.0000       2.024935        55.1013 
 249   0.0000       2.046511        55.6884 
 250   0.0000       2.064532        56.1788 
 251   0.0000       2.084693        56.7274 
 252   0.0000       2.092424        56.9378 
 253   0.0000       2.110395        57.4268 
 254   0.0000       2.120509        57.7020 
 255   0.0000       2.131479        58.0005 
 256   0.0000       2.143234        58.3204 
 257   0.0000       2.156373        58.6779 
 258   0.0000       2.170030        59.0495 
 259   0.0000       2.177461        59.2517 
 260   0.0000       2.188933        59.5639 
 261   0.0000       2.220981        60.4360 
 262   0.0000       2.236090        60.8471 
 263   0.0000       2.245205        61.0951 
 264   0.0000       2.249049        61.1997 
 265   0.0000       2.265240        61.6403 
 266   0.0000       2.300791        62.6077 
 267   0.0000       2.304784        62.7164 
 268   0.0000       2.323270        63.2194 
 269   0.0000       2.343543        63.7710 
 270   0.0000       2.366684        64.4008 
 271   0.0000       2.382407        64.8286 
 272   0.0000       2.428711        66.0886 
 273   0.0000       2.468432        67.1694 
 274   0.0000       2.490560        67.7716 
 275   0.0000       2.525356        68.7184 
 276   0.0000       2.552030        69.4443 
 277   0.0000       2.563201        69.7483 
 278   0.0000       2.598598        70.7114 
 279   0.0000       2.620274        71.3013 
 280   0.0000       2.647991        72.0555 
 281   0.0000       2.656474        72.2863 
 282   0.0000       2.682537        72.9955 
 283   0.0000       2.700127        73.4742 
 284   0.0000       2.716725        73.9258 
 285   0.0000       2.719780        74.0090 
 286   0.0000       2.747212        74.7554 
 287   0.0000       2.760673        75.1217 
 288   0.0000       2.777186        75.5711 
 289   0.0000       2.828990        76.9807 
 290   0.0000       2.847271        77.4782 
 291   0.0000       2.891670        78.6863 
 292   0.0000       2.934825        79.8606 
 293   0.0000       2.941818        80.0509 
 294   0.0000       2.976392        80.9917 
 295   0.0000       2.993399        81.4545 
 296   0.0000       2.997832        81.5751 
 297   0.0000       3.008903        81.8764 
 298   0.0000       3.022347        82.2423 
 299   0.0000       3.035791        82.6081 
 300   0.0000       3.039561        82.7107 
 301   0.0000       3.043555        82.8193 
 302   0.0000       3.062207        83.3269 
 303   0.0000       3.111174        84.6594 
 304   0.0000       3.116821        84.8130 
 305   0.0000       3.156288        85.8870 
 306   0.0000       3.194289        86.9210 
 307   0.0000       3.208198        87.2995 
 308   0.0000       3.231897        87.9444 
 309   0.0000       3.240974        88.1914 
 310   0.0000       3.274958        89.1161 
 311   0.0000       3.316735        90.2530 
 312   0.0000       3.342880        90.9644 
 313   0.0000       3.353022        91.2404 
 314   0.0000       3.391837        92.2966 
 315   0.0000       3.406218        92.6879 
 316   0.0000       3.442082        93.6638 
 317   0.0000       3.459975        94.1507 
 318   0.0000       3.514369        95.6308 
 319   0.0000       3.649107        99.2972 
 320   0.0000       3.698634       100.6450 
 321   0.0000       3.734425       101.6189 
 322   0.0000       3.796423       103.3059 
 323   0.0000       3.945410       107.3601 

                    ********************************
                    * MULLIKEN POPULATION ANALYSIS *
                    ********************************

-----------------------
MULLIKEN ATOMIC CHARGES
-----------------------
   0 C :    0.871345
   1 N :   -0.608274
   2 C :    0.086608
   3 C :    0.034678
   4 H :    0.139273
   5 H :   -0.097521
   6 S :    1.402150
   7 C :    1.337386
   8 N :   -0.174585
   9 N :    0.265264
  10 H :   -0.320843
  11 H :   -0.061889
  12 H :   -0.131197
  13 H :   -0.016096
  14 H :    0.039757
  15 O :   -0.814011
  16 O :   -0.850775
  17 O :   -0.938447
  18 H :    0.037145
  19 H :    0.008777
  20 H :    0.013973
  21 H :   -0.222717
Sum of atomic charges:    0.0000000

--------------------------------
MULLIKEN REDUCED ORBITAL CHARGES
--------------------------------
  0 C s       :     2.600787  s :     2.600787
      pz      :     0.975921  p :     2.499473
      px      :     0.744583
      py      :     0.778969
      dz2     :     0.036394  d :     0.028394
      dxz     :     0.017843
      dyz     :     0.000645
      dx2y2   :    -0.042007
      dxy     :     0.015519
  1 N s       :     3.677645  s :     3.677645
      pz      :     1.278281  p :     3.794392
      px      :     1.267214
      py      :     1.248897
      dz2     :     0.032771  d :     0.136236
      dxz     :     0.005571
      dyz     :     0.016917
      dx2y2   :     0.063299
      dxy     :     0.017678
  2 C s       :     2.705458  s :     2.705458
      pz      :     1.005119  p :     2.853959
      px      :     0.867703
      py      :     0.981137
      dz2     :     0.086803  d :     0.353974
      dxz     :     0.010838
      dyz     :     0.099027
      dx2y2   :     0.048199
      dxy     :     0.109108
  3 C s       :     2.833935  s :     2.833935
      pz      :     0.904838  p :     2.881965
      px      :     0.915498
      py      :     1.061629
      dz2     :    -0.022602  d :     0.249423
      dxz     :     0.042821
      dyz     :     0.067732
      dx2y2   :     0.083223
      dxy     :     0.078249
  4 H s       :     0.810258  s :     0.810258
      pz      :    -0.007695  p :     0.050469
      px      :     0.027742
      py      :     0.030423
  5 H s       :     1.074845  s :     1.074845
      pz      :     0.042172  p :     0.022676
      px      :    -0.008642
      py      :    -0.010854
  6 S s       :     4.871845  s :     4.871845
      pz      :     2.956085  p :     8.751935
      px      :     2.957997
      py      :     2.837853
      dz2     :     0.170147  d :     0.974070
      dxz     :     0.196495
      dyz     :     0.204718
      dx2y2   :     0.205879
      dxy     :     0.196832
  7 C s       :     2.902130  s :     2.902130
      pz      :     0.661050  p :     1.968871
      px      :     0.644782
      py      :     0.663039
      dz2     :     0.020024  d :    -0.208387
      dxz     :    -0.016333
      dyz     :     0.003083
      dx2y2   :    -0.117655
      dxy     :    -0.097505
  8 N s       :     3.470684  s :     3.470684
      pz      :     1.522535  p :     3.725974
      px      :     1.027977
      py      :     1.175462
      dz2     :     0.006123  d :    -0.022073
      dxz     :    -0.001705
      dyz     :     0.001211
      dx2y2   :    -0.017036
      dxy     :    -0.010666
  9 N s       :     3.128912  s :     3.128912
      pz      :     1.262075  p :     3.646255
      px      :     1.065668
      py      :     1.318513
      dz2     :     0.002188  d :    -0.040432
      dxz     :     0.006504
      dyz     :    -0.023236
      dx2y2   :    -0.028421
      dxy     :     0.002533
 10 H s       :     1.243848  s :     1.243848
      pz      :    -0.038458  p :     0.076995
      px      :     0.096908
      py      :     0.018545
 11 H s       :     1.063088  s :     1.063088
      pz      :     0.029338  p :    -0.001199
      px      :    -0.029577
      py      :    -0.000961
 12 H s       :     1.092332  s :     1.092332
      pz      :     0.017187  p :     0.038865
      px      :     0.015838
      py      :     0.005841
 13 H s       :     0.982403  s :     0.982403
      pz      :     0.040800  p :     0.033693
      px      :     0.025522
      py      :    -0.032629
 14 H s       :     0.935466  s :     0.935466
      pz      :     0.032069  p :     0.024777
      px      :    -0.011108
      py      :     0.003815
 15 O s       :     3.946414  s :     3.946414
      pz      :     1.796049  p :     4.857973
      px      :     1.774885
      py      :     1.287039
      dz2     :     0.000252  d :     0.009624
      dxz     :     0.001448
      dyz     :     0.005244
      dx2y2   :     0.004812
      dxy     :    -0.002132
 16 O s       :     3.978620  s :     3.978620
      pz      :     1.773907  p :     4.864537
      px      :     1.540436
      py      :     1.550193
      dz2     :    -0.000430  d :     0.007617
      dxz     :    -0.000781
      dyz     :     0.005866
      dx2y2   :     0.001541
      dxy     :     0.001422
 17 O s       :     4.027716  s :     4.027716
      pz      :     1.422971  p :     4.932788
      px      :     1.691042
      py      :     1.818775
      dz2     :    -0.010583  d :    -0.022057
      dxz     :    -0.002107
      dyz     :    -0.001032
      dx2y2   :    -0.006365
      dxy     :    -0.001969
 18 H s       :     0.930748  s :     0.930748
      pz      :    -0.018820  p :     0.032108
      px      :     0.007353
      py      :     0.043575
 19 H s       :     0.988067  s :     0.988067
      pz      :     0.043865  p :     0.003156
      px      :    -0.021576
      py      :    -0.019133
 20 H s       :     0.926478  s :     0.926478
      pz      :     0.030903  p :     0.059549
      px      :     0.019442
      py      :     0.009204
 21 H s       :     1.203095  s :     1.203095
      pz      :    -0.027621  p :     0.019622
      px      :     0.018165
      py      :     0.029078


                     *******************************
                     * LOEWDIN POPULATION ANALYSIS *
                     *******************************

----------------------
LOEWDIN ATOMIC CHARGES
----------------------
   0 C :    0.093828
   1 N :    0.047090
   2 C :   -0.012394
   3 C :   -0.062245
   4 H :    0.017523
   5 H :    0.023570
   6 S :    0.912469
   7 C :   -0.031391
   8 N :    0.250503
   9 N :    0.295864
  10 H :   -0.138698
  11 H :    0.050915
  12 H :    0.069579
  13 H :    0.037948
  14 H :    0.036570
  15 O :   -0.575742
  16 O :   -0.571651
  17 O :   -0.556265
  18 H :    0.030743
  19 H :    0.038084
  20 H :    0.004132
  21 H :    0.039569

-------------------------------
LOEWDIN REDUCED ORBITAL CHARGES
-------------------------------
  0 C s       :     2.655714  s :     2.655714
      pz      :     0.918563  p :     2.587633
      px      :     0.816717
      py      :     0.852353
      dz2     :     0.148565  d :     0.662825
      dxz     :     0.159326
      dyz     :     0.075578
      dx2y2   :     0.140195
      dxy     :     0.139162
  1 N s       :     2.910835  s :     2.910835
      pz      :     1.183087  p :     3.477803
      px      :     1.135256
      py      :     1.159461
      dz2     :     0.077645  d :     0.564272
      dxz     :     0.118075
      dyz     :     0.097029
      dx2y2   :     0.147135
      dxy     :     0.124388
  2 C s       :     2.678353  s :     2.678353
      pz      :     0.903552  p :     2.703132
      px      :     0.899941
      py      :     0.899639
      dz2     :     0.138706  d :     0.630909
      dxz     :     0.118065
      dyz     :     0.108522
      dx2y2   :     0.105306
      dxy     :     0.160309
  3 C s       :     2.708956  s :     2.708956
      pz      :     0.906554  p :     2.737472
      px      :     0.897987
      py      :     0.932932
      dz2     :     0.114268  d :     0.615817
      dxz     :     0.115555
      dyz     :     0.094491
      dx2y2   :     0.123726
      dxy     :     0.167778
  4 H s       :     0.712984  s :     0.712984
      pz      :     0.072737  p :     0.269493
      px      :     0.103985
      py      :     0.092770
  5 H s       :     0.717718  s :     0.717718
      pz      :     0.114936  p :     0.258712
      px      :     0.079268
      py      :     0.064507
  6 S s       :     4.657811  s :     4.657811
      pz      :     2.806357  p :     8.443422
      px      :     2.816094
      py      :     2.820970
      dz2     :     0.378901  d :     1.986298
      dxz     :     0.408548
      dyz     :     0.355648
      dx2y2   :     0.419357
      dxy     :     0.423843
  7 C s       :     2.608805  s :     2.608805
      pz      :     0.748528  p :     2.379334
      px      :     0.845731
      py      :     0.785075
      dz2     :     0.194839  d :     1.043251
      dxz     :     0.226762
      dyz     :     0.158599
      dx2y2   :     0.226135
      dxy     :     0.236916
  8 N s       :     2.933876  s :     2.933876
      pz      :     1.320178  p :     3.529251
      px      :     1.066966
      py      :     1.142107
      dz2     :     0.024693  d :     0.286371
      dxz     :     0.057764
      dyz     :     0.031754
      dx2y2   :     0.092000
      dxy     :     0.080159
  9 N s       :     2.909800  s :     2.909800
      pz      :     1.189723  p :     3.477709
      px      :     1.086381
      py      :     1.201606
      dz2     :     0.056962  d :     0.316626
      dxz     :     0.065747
      dyz     :     0.050920
      dx2y2   :     0.087223
      dxy     :     0.055774
 10 H s       :     0.579368  s :     0.579368
      pz      :     0.108631  p :     0.559330
      px      :     0.315825
      py      :     0.134874
 11 H s       :     0.636772  s :     0.636772
      pz      :     0.115561  p :     0.312313
      px      :     0.067953
      py      :     0.128798
 12 H s       :     0.626564  s :     0.626564
      pz      :     0.114943  p :     0.303857
      px      :     0.113598
      py      :     0.075316
 13 H s       :     0.638504  s :     0.638504
      pz      :     0.111510  p :     0.323548
      px      :     0.120793
      py      :     0.091245
 14 H s       :     0.639045  s :     0.639045
      pz      :     0.118198  p :     0.324385
      px      :     0.067243
      py      :     0.138944
 15 O s       :     3.547803  s :     3.547803
      pz      :     1.662048  p :     4.780683
      px      :     1.659145
      py      :     1.459490
      dz2     :     0.031280  d :     0.247256
      dxz     :     0.017535
      dyz     :     0.061207
      dx2y2   :     0.064479
      dxy     :     0.072755
 16 O s       :     3.545897  s :     3.545897
      pz      :     1.656681  p :     4.777252
      px      :     1.561551
      py      :     1.559020
      dz2     :     0.033476  d :     0.248502
      dxz     :     0.050419
      dyz     :     0.029440
      dx2y2   :     0.068429
      dxy     :     0.066738
 17 O s       :     3.484903  s :     3.484903
      pz      :     1.487921  p :     4.754275
      px      :     1.585290
      py      :     1.681064
      dz2     :     0.090307  d :     0.317087
      dxz     :     0.079553
      dyz     :     0.051223
      dx2y2   :     0.046269
      dxy     :     0.049735
 18 H s       :     0.708569  s :     0.708569
      pz      :     0.063583  p :     0.260689
      px      :     0.108890
      py      :     0.088215
 19 H s       :     0.719563  s :     0.719563
      pz      :     0.099211  p :     0.242353
      px      :     0.081394
      py      :     0.061747
 20 H s       :     0.694501  s :     0.694501
      pz      :     0.110230  p :     0.301367
      px      :     0.099945
      py      :     0.091192
 21 H s       :     0.728648  s :     0.728648
      pz      :     0.061597  p :     0.231783
      px      :     0.062997
      py      :     0.107189


                      *****************************
                      * MAYER POPULATION ANALYSIS *
                      *****************************

  NA   - Mulliken gross atomic population
  ZA   - Total nuclear charge
  QA   - Mulliken gross atomic charge
  VA   - Mayer's total valence
  BVA  - Mayer's bonded valence
  FA   - Mayer's free valence

  ATOM       NA         ZA         QA         VA         BVA        FA
  0 C      5.1287     6.0000     0.8713     3.7389     3.7389    -0.0000
  1 N      7.6083     7.0000    -0.6083     3.9323     3.9323    -0.0000
  2 C      5.9134     6.0000     0.0866     4.5812     4.5812    -0.0000
  3 C      5.9653     6.0000     0.0347     4.4838     4.4838    -0.0000
  4 H      0.8607     1.0000     0.1393     1.0468     1.0468    -0.0000
  5 H      1.0975     1.0000    -0.0975     1.0576     1.0576    -0.0000
  6 S     14.5979    16.0000     1.4021     4.8868     4.8868     0.0000
  7 C      4.6626     6.0000     1.3374     1.9548     1.9548     0.0000
  8 N      7.1746     7.0000    -0.1746     3.6232     3.6232    -0.0000
  9 N      6.7347     7.0000     0.2653     3.7069     3.7069     0.0000
 10 H      1.3208     1.0000    -0.3208     0.9274     0.9274     0.0000
 11 H      1.0619     1.0000    -0.0619     0.8020     0.8020     0.0000
 12 H      1.1312     1.0000    -0.1312     0.9305     0.9305    -0.0000
 13 H      1.0161     1.0000    -0.0161     0.9556     0.9556    -0.0000
 14 H      0.9602     1.0000     0.0398     0.8709     0.8709    -0.0000
 15 O      8.8140     8.0000    -0.8140     1.4452     1.4452     0.0000
 16 O      8.8508     8.0000    -0.8508     1.5191     1.5191     0.0000
 17 O      8.9384     8.0000    -0.9384     1.6034     1.6034     0.0000
 18 H      0.9629     1.0000     0.0371     1.1268     1.1268    -0.0000
 19 H      0.9912     1.0000     0.0088     0.9944     0.9944    -0.0000
 20 H      0.9860     1.0000     0.0140     1.0828     1.0828     0.0000
 21 H      1.2227     1.0000    -0.2227     0.9965     0.9965    -0.0000

  Mayer bond orders larger than 0.100000
B(  0-C ,  1-N ) :   0.8287 B(  0-C ,  2-C ) :   1.1223 B(  0-C , 12-H ) :  -0.1787 
B(  0-C , 18-H ) :   0.1409 B(  0-C , 19-H ) :   0.1304 B(  0-C , 20-H ) :   0.7519 
B(  0-C , 21-H ) :   0.9077 B(  1-N ,  7-C ) :   0.9173 B(  1-N ,  8-N ) :   0.2523 
B(  1-N ,  9-N ) :   0.1662 B(  1-N , 12-H ) :   1.3491 B(  1-N , 20-H ) :   0.1929 
B(  1-N , 21-H ) :   0.1352 B(  2-C ,  3-C ) :   1.2410 B(  2-C ,  4-H ) :   0.1326 
B(  2-C ,  5-H ) :   0.1496 B(  2-C , 18-H ) :   0.8457 B(  2-C , 19-H ) :   0.8246 
B(  2-C , 20-H ) :   0.1381 B(  3-C ,  4-H ) :   0.9154 B(  3-C ,  5-H ) :   0.8647 
B(  3-C ,  6-S ) :   0.9329 B(  3-C , 17-O ) :   0.1455 B(  3-C , 18-H ) :   0.1433 
B(  3-C , 19-H ) :   0.1124 B(  5-H ,  6-S ) :   0.1046 B(  6-S , 15-O ) :   1.3247 
B(  6-S , 16-O ) :   1.3305 B(  6-S , 17-O ) :   1.1537 B(  7-C ,  8-N ) :   0.8446 
B(  7-C ,  9-N ) :   1.0687 B(  7-C , 10-H ) :  -0.2338 B(  7-C , 11-H ) :  -0.1638 
B(  7-C , 12-H ) :  -0.2123 B(  7-C , 13-H ) :  -0.1414 B(  8-N ,  9-N ) :   0.1534 
B(  8-N , 13-H ) :   1.1962 B(  8-N , 14-H ) :   1.1530 B(  9-N , 10-H ) :   1.1195 
B(  9-N , 11-H ) :   1.2451 B( 10-H , 11-H ) :  -0.2505 B( 10-H , 17-O ) :   0.1899 
B( 13-H , 14-H ) :  -0.1653 B( 20-H , 21-H ) :  -0.1211 

-------
TIMINGS
-------

Total SCF time: 0 days 0 hours 0 min 33 sec 

Total time                  ....      33.152 sec
Sum of individual times     ....      32.549 sec  ( 98.2%)

Fock matrix formation       ....      30.758 sec  ( 92.8%)
  Split-RI-J                ....       1.559 sec  (  5.1% of F)
  Chain of spheres X        ....      24.235 sec  ( 78.8% of F)
  XC integration            ....       2.446 sec  (  8.0% of F)
    Basis function eval.    ....       0.613 sec  ( 25.1% of XC)
    Density eval.           ....       0.618 sec  ( 25.2% of XC)
    XC-Functional eval.     ....       0.111 sec  (  4.5% of XC)
    XC-Potential eval.      ....       0.737 sec  ( 30.1% of XC)
Diagonalization             ....       0.172 sec  (  0.5%)
Density matrix formation    ....       0.018 sec  (  0.1%)
Population analysis         ....       0.024 sec  (  0.1%)
Initial guess               ....       0.160 sec  (  0.5%)
Orbital Transformation      ....       0.000 sec  (  0.0%)
Orbital Orthonormalization  ....       0.000 sec  (  0.0%)
DIIS solution               ....       0.094 sec  (  0.3%)
SOSCF solution              ....       0.127 sec  (  0.4%)
Grid generation             ....       1.196 sec  (  3.6%)

Maximum memory used throughout the entire SCF-calculation: 68.8 MB


-------------------------------------------------------------------------------
                          DFT DISPERSION CORRECTION                            
                                                                               
                              DFTD3 V3.1  Rev 1                                
                              USING zero damping                               
-------------------------------------------------------------------------------
The omegaB97X-D3 functional is recognized. Fit by Chai et al.
Active option DFTDOPT                   ...         3   

molecular C6(AA) [au] = 4988.327796 


            DFT-D V3
 parameters
 s6 scaling factor         :     1.0000 
 rs6 scaling factor        :     1.2810 
 s8 scaling factor         :     1.0000 
 rs8 scaling factor        :     1.0940 
 Damping factor alpha6     :    14.0000 
 Damping factor alpha8     :    16.0000 
 ad hoc parameters k1-k3   :    16.0000     1.3333    -4.0000 

 Edisp/kcal,au: -6.212172470471  -0.009899725924 
 E6   /kcal   :  -2.550814367 
 E8   /kcal   :  -3.661358103 
 % E8         :  58.938448995 

-------------------------   ----------------
Dispersion correction           -0.009899726
-------------------------   ----------------


-------------------------   --------------------
FINAL SINGLE POINT ENERGY      -946.569912010881
-------------------------   --------------------


                            ***************************************
                            *     ORCA property calculations      *
                            ***************************************

                                    ---------------------
                                    Active property flags
                                    ---------------------
   (+) Dipole Moment


------------------------------------------------------------------------------
                       ORCA ELECTRIC PROPERTIES CALCULATION
------------------------------------------------------------------------------

Dipole Moment Calculation                       ... on
Quadrupole Moment Calculation                   ... off
Polarizability Calculation                      ... off
GBWName                                         ... B_wt_wb97.gbw
Electron density file                           ... B_wt_wb97.scfp
The origin for moment calculation is the CENTER OF MASS  = ( 4.401680,  0.790133 -6.595109)

-------------
DIPOLE MOMENT
-------------
                                X             Y             Z
Electronic contribution:     -5.33993      -3.10829      -2.16811
Nuclear contribution   :     13.40759       3.44219       2.21042
                        -----------------------------------------
Total Dipole Moment    :      8.06766       0.33391       0.04232
                        -----------------------------------------
Magnitude (a.u.)       :      8.07468
Magnitude (Debye)      :     20.52421



--------------------
Rotational spectrum 
--------------------
 
Rotational constants in cm-1:     0.059860     0.020817     0.017914 
Rotational constants in MHz :  1794.564877   624.092098   537.039275 

 Dipole components along the rotational axes: 
x,y,z [a.u.] :    -7.899854    -1.167074    -1.196135 
x,y,z [Debye]:   -20.079834    -2.966466    -3.040333 

 

Timings for individual modules:

Sum of individual times         ...       34.457 sec (=   0.574 min)
GTO integral calculation        ...        0.921 sec (=   0.015 min)   2.7 %
SCF iterations                  ...       33.536 sec (=   0.559 min)  97.3 %
                             ****ORCA TERMINATED NORMALLY****
TOTAL RUN TIME: 0 days 0 hours 0 minutes 35 seconds 80 msec
