
                                        *****************
                                        * O   R   C   A *
                                        *****************

                                            #,                                       
                                            ###                                      
                                            ####                                     
                                            #####                                    
                                            ######                                   
                                           ########,                                 
                                     ,,################,,,,,                         
                               ,,#################################,,                 
                          ,,##########################################,,             
                       ,#########################################, ''#####,          
                    ,#############################################,,   '####,        
                  ,##################################################,,,,####,       
                ,###########''''           ''''###############################       
              ,#####''   ,,,,##########,,,,          '''####'''          '####       
            ,##' ,,,,###########################,,,                        '##       
           ' ,,###''''                  '''############,,,                           
         ,,##''                                '''############,,,,        ,,,,,,###''
      ,#''                                            '''#######################'''  
     '                                                          ''''####''''         
             ,#######,   #######,   ,#######,      ##                                
            ,#'     '#,  ##    ##  ,#'     '#,    #''#        ######   ,####,        
            ##       ##  ##   ,#'  ##            #'  '#       #        #'  '#        
            ##       ##  #######   ##           ,######,      #####,   #    #        
            '#,     ,#'  ##    ##  '#,     ,#' ,#      #,         ##   #,  ,#        
             '#######'   ##     ##  '#######'  #'      '#     #####' # '####'        



                  #######################################################
                  #                        -***-                        #
                  #          Department of theory and spectroscopy      #
                  #    Directorship and core code : Frank Neese         #
                  #        Max Planck Institute fuer Kohlenforschung    #
                  #                Kaiser Wilhelm Platz 1               #
                  #                 D-45470 Muelheim/Ruhr               #
                  #                      Germany                        #
                  #                                                     #
                  #                  All rights reserved                #
                  #                        -***-                        #
                  #######################################################


                         Program Version 5.0.0 -  RELEASE  -
                                (SVN: $Rev: 19529$)
                ($Date: 2021-06-28 11:36:33 +0200 (Mo, 28 Jun 2021) $)


 With contributions from (in alphabetic order):
   Daniel Aravena         : Magnetic Suceptibility
   Michael Atanasov       : Ab Initio Ligand Field Theory (pilot matlab implementation)
   Alexander A. Auer      : GIAO ZORA, VPT2 properties, NMR spectrum
   Ute Becker             : Parallelization
   Giovanni Bistoni       : ED, misc. LED, open-shell LED, HFLD
   Martin Brehm           : Molecular dynamics
   Dmytro Bykov           : SCF Hessian
   Vijay G. Chilkuri      : MRCI spin determinant printing, contributions to CSF-ICE
   Dipayan Datta          : RHF DLPNO-CCSD density
   Achintya Kumar Dutta   : EOM-CC, STEOM-CC
   Dmitry Ganyushin       : Spin-Orbit,Spin-Spin,Magnetic field MRCI
   Miquel Garcia          : C-PCM Hessian, Gaussian charge scheme
   Yang Guo               : DLPNO-NEVPT2, F12-NEVPT2, CIM, IAO-localization
   Andreas Hansen         : Spin unrestricted coupled pair/coupled cluster methods
   Benjamin Helmich-Paris : MC-RPA, TRAH-SCF, COSX integrals
   Lee Huntington         : MR-EOM, pCC
   Robert Izsak           : Overlap fitted RIJCOSX, COSX-SCS-MP3, EOM
   Marcus Kettner         : VPT2
   Christian Kollmar      : KDIIS, OOCD, Brueckner-CCSD(T), CCSD density, CASPT2, CASPT2-K
   Simone Kossmann        : Meta GGA functionals, TD-DFT gradient, OOMP2, MP2 Hessian
   Martin Krupicka        : Initial AUTO-CI
   Lucas Lang             : DCDCAS
   Marvin Lechner         : AUTO-CI (C++ implementation), FIC-MRCC
   Dagmar Lenk            : GEPOL surface, SMD
   Dimitrios Liakos       : Extrapolation schemes; Compound Job, initial MDCI parallelization
   Dimitrios Manganas     : Further ROCIS development; embedding schemes
   Dimitrios Pantazis     : SARC Basis sets
   Anastasios Papadopoulos: AUTO-CI, single reference methods and gradients
   Taras Petrenko         : DFT Hessian,TD-DFT gradient, ASA, ECA, R-Raman, ABS, FL, XAS/XES, NRVS
   Peter Pinski           : DLPNO-MP2, DLPNO-MP2 Gradient
   Christoph Reimann      : Effective Core Potentials
   Marius Retegan         : Local ZFS, SOC
   Christoph Riplinger    : Optimizer, TS searches, QM/MM, DLPNO-CCSD(T), (RO)-DLPNO pert. Triples
   Tobias Risthaus        : Range-separated hybrids, TD-DFT gradient, RPA, STAB
   Michael Roemelt        : Original ROCIS implementation
   Masaaki Saitow         : Open-shell DLPNO-CCSD energy and density
   Barbara Sandhoefer     : DKH picture change effects
   Avijit Sen             : IP-ROCIS
   Kantharuban Sivalingam : CASSCF convergence, NEVPT2, FIC-MRCI
   Bernardo de Souza      : ESD, SOC TD-DFT
   Georgi Stoychev        : AutoAux, RI-MP2 NMR
   Willem Van den Heuvel  : Paramagnetic NMR
   Boris Wezisla          : Elementary symmetry handling
   Frank Wennmohs         : Technical directorship


 We gratefully acknowledge several colleagues who have allowed us to
 interface, adapt or use parts of their codes:
   Stefan Grimme, W. Hujo, H. Kruse, P. Pracht,  : VdW corrections, initial TS optimization,
                  C. Bannwarth, S. Ehlert          DFT functionals, gCP, sTDA/sTD-DF
   Ed Valeev, F. Pavosevic, A. Kumar             : LibInt (2-el integral package), F12 methods
   Garnet Chan, S. Sharma, J. Yang, R. Olivares  : DMRG
   Ulf Ekstrom                                   : XCFun DFT Library
   Mihaly Kallay                                 : mrcc  (arbitrary order and MRCC methods)
   Jiri Pittner, Ondrej Demel                    : Mk-CCSD
   Frank Weinhold                                : gennbo (NPA and NBO analysis)
   Christopher J. Cramer and Donald G. Truhlar   : smd solvation model
   Lars Goerigk                                  : TD-DFT with DH, B97 family of functionals
   V. Asgeirsson, H. Jonsson                     : NEB implementation
   FAccTs GmbH                                   : IRC, NEB, NEB-TS, DLPNO-Multilevel, CI-OPT
                                                   MM, QMMM, 2- and 3-layer-ONIOM, Crystal-QMMM,
                                                   LR-CPCM, SF, NACMEs, symmetry and pop. for TD-DFT,
                                                   nearIR, NL-DFT gradient (VV10), updates on ESD,
                                                   ML-optimized integration grids
   S Lehtola, MJT Oliveira, MAL Marques          : LibXC Library
   Liviu Ungur et al                             : ANISO software


 Your calculation uses the libint2 library for the computation of 2-el integrals
 For citations please refer to: http://libint.valeyev.net

 Your ORCA version has been built with support for libXC version: 5.1.0
 For citations please refer to: https://tddft.org/programs/libxc/

 This ORCA versions uses:
   CBLAS   interface :  Fast vector & matrix operations
   LAPACKE interface :  Fast linear algebra routines
   SCALAPACK package :  Parallel linear algebra routines
   Shared memory     :  Shared parallel matrices
   BLAS/LAPACK       :  OpenBLAS 0.3.15  USE64BITINT DYNAMIC_ARCH NO_AFFINITY Haswell SINGLE_THREADED
        Core in use  :  Haswell
   Copyright (c) 2011-2014, The OpenBLAS Project


Your calculation utilizes the atom-pairwise dispersion correction
with the Becke-Johnson damping scheme (D3BJ)
Cite in your paper:
S.Grimme, S.Ehrlich, L.Goerigk, J Comput Chem, (2011), 32, 1456–1465 
S.Grimme, J.Antony, S.Ehrlich and H.Krieg, J.Chem.Phys., 132, (2010), 154104 
   

================================================================================

----- Orbital basis set information -----
Your calculation utilizes the basis: def2-TZVPD
   F. Weigend and R. Ahlrichs, Phys. Chem. Chem. Phys. 7, 3297 (2005).
   D. Rappoport and F. Furche, J. Chem. Phys. 133 134105 (2010).

----- AuxJ basis set information -----
Your calculation utilizes the auxiliary basis: def2/J
   F. Weigend, Phys. Chem. Chem. Phys. 8, 1057 (2006).

================================================================================
                                        WARNINGS
                       Please study these warnings very carefully!
================================================================================



WARNING: Found flag for RIJCOSX approximation but no HF exchange needed!
  ===> : RIJCOSX  will be disabled and Split-RI-J is turned on

INFO   : the flag for use of the SHARK integral package has been found!

================================================================================
                                       INPUT FILE
================================================================================
NAME = TZVPD_BLYP_C2_dlpno_new_neg.com
|  1> !BLYP D3BJ RIJCOSX def2-TZVPD def2/J TightSCF 
|  2> *xyz 0 1 
|  3> C          4.08422        1.74208       -2.11472
|  4> C          4.26524        2.50052       -0.79589
|  5> H          4.86853        3.39267       -0.98113
|  6> H          3.30764        2.82457       -0.38781
|  7> C          4.98224        1.65026        0.24742
|  8> O          4.36806        1.38927        1.31371
|  9> F          6.12892        1.23351       -0.04562
| 10> H          3.57911        2.36849       -2.81997
| 11> H          3.50424        0.85965       -1.94198
| 12> H          5.04288        1.46841       -2.50327
| 13> *
| 14> %MaxCore 64000
| 15> %pal nprocs 8
| 16> end  
| 17> %scf
| 18>   MaxIter 150
| 19> end
| 20> 
| 21> 
| 22>                          ****END OF INPUT****
================================================================================

                       ****************************
                       * Single Point Calculation *
                       ****************************

---------------------------------
CARTESIAN COORDINATES (ANGSTROEM)
---------------------------------
  C      4.084220    1.742080   -2.114720
  C      4.265240    2.500520   -0.795890
  H      4.868530    3.392670   -0.981130
  H      3.307640    2.824570   -0.387810
  C      4.982240    1.650260    0.247420
  O      4.368060    1.389270    1.313710
  F      6.128920    1.233510   -0.045620
  H      3.579110    2.368490   -2.819970
  H      3.504240    0.859650   -1.941980
  H      5.042880    1.468410   -2.503270

----------------------------
CARTESIAN COORDINATES (A.U.)
----------------------------
  NO LB      ZA    FRAG     MASS         X           Y           Z
   0 C     6.0000    0    12.011    7.718057    3.292054   -3.996242
   1 C     6.0000    0    12.011    8.060135    4.725298   -1.504014
   2 H     1.0000    0     1.008    9.200188    6.411217   -1.854067
   3 H     1.0000    0     1.008    6.250534    5.337664   -0.732855
   4 C     6.0000    0    12.011    9.415069    3.118539    0.467556
   5 O     8.0000    0    15.999    8.254437    2.625340    2.482552
   6 F     9.0000    0    18.998   11.581980    2.330996   -0.086209
   7 H     1.0000    0     1.008    6.763538    4.475797   -5.328971
   8 H     1.0000    0     1.008    6.622054    1.624503   -3.669810
   9 H     1.0000    0     1.008    9.529662    2.774893   -4.730495

--------------------------------
INTERNAL COORDINATES (ANGSTROEM)
--------------------------------
 C      0   0   0     0.000000000000     0.00000000     0.00000000
 C      1   0   0     1.532094005895     0.00000000     0.00000000
 H      2   1   0     1.092796552063   108.87198648     0.00000000
 H      2   1   3     1.090199728903   111.44297969   118.77367229
 C      2   1   3     1.524967810709   111.62069719   240.67919178
 O      5   2   1     1.257897935685   117.77857234   241.09553575
 F      5   2   1     1.254762139411   117.07011776    59.09626179
 H      1   2   3     1.070001477896   109.47114102   299.32086871
 H      1   2   3     1.069999351822   109.47110807   179.32095167
 H      1   2   3     1.069997835045   109.47163885    59.32110217

---------------------------
INTERNAL COORDINATES (A.U.)
---------------------------
 C      0   0   0     0.000000000000     0.00000000     0.00000000
 C      1   0   0     2.895238082564     0.00000000     0.00000000
 H      2   1   0     2.065086203492   108.87198648     0.00000000
 H      2   1   3     2.060178918902   111.44297969   118.77367229
 C      2   1   3     2.881771525286   111.62069719   240.67919178
 O      5   2   1     2.377082602869   117.77857234   241.09553575
 F      5   2   1     2.371156806700   117.07011776    59.09626179
 H      1   2   3     2.022009756115   109.47114102   299.32086871
 H      1   2   3     2.022005738417   109.47110807   179.32095167
 H      1   2   3     2.022002872123   109.47163885    59.32110217

---------------------
BASIS SET INFORMATION
---------------------
There are 4 groups of distinct atoms

 Group   1 Type C   : 12s6p3d1f contracted to 6s3p3d1f pattern {621111/411/111/1}
 Group   2 Type H   : 5s2p contracted to 3s2p pattern {311/11}
 Group   3 Type O   : 12s7p3d1f contracted to 6s4p3d1f pattern {621111/4111/111/1}
 Group   4 Type F   : 12s7p3d1f contracted to 6s4p3d1f pattern {621111/4111/111/1}

Atom   0C    basis set group =>   1
Atom   1C    basis set group =>   1
Atom   2H    basis set group =>   2
Atom   3H    basis set group =>   2
Atom   4C    basis set group =>   1
Atom   5O    basis set group =>   3
Atom   6F    basis set group =>   4
Atom   7H    basis set group =>   2
Atom   8H    basis set group =>   2
Atom   9H    basis set group =>   2
---------------------------------
AUXILIARY/J BASIS SET INFORMATION
---------------------------------
There are 4 groups of distinct atoms

 Group   1 Type C   : 12s5p4d2f1g contracted to 6s4p3d1f1g pattern {711111/2111/211/2/1}
 Group   2 Type H   : 5s2p1d contracted to 3s1p1d pattern {311/2/1}
 Group   3 Type O   : 12s5p4d2f1g contracted to 6s4p3d1f1g pattern {711111/2111/211/2/1}
 Group   4 Type F   : 12s5p4d2f1g contracted to 6s4p3d1f1g pattern {711111/2111/211/2/1}

Atom   0C    basis set group =>   1
Atom   1C    basis set group =>   1
Atom   2H    basis set group =>   2
Atom   3H    basis set group =>   2
Atom   4C    basis set group =>   1
Atom   5O    basis set group =>   3
Atom   6F    basis set group =>   4
Atom   7H    basis set group =>   2
Atom   8H    basis set group =>   2
Atom   9H    basis set group =>   2


           ************************************************************
           *        Program running with 8 parallel MPI-processes     *
           *              working on a common directory               *
           ************************************************************
------------------------------------------------------------------------------
                           ORCA GTO INTEGRAL CALCULATION
                           -- RI-GTO INTEGRALS CHOSEN --
------------------------------------------------------------------------------
------------------------------------------------------------------------------
                   ___                                                        
                  /   \      - P O W E R E D   B Y -                         
                 /     \                                                     
                 |  |  |   _    _      __       _____    __    __             
                 |  |  |  | |  | |    /  \     |  _  \  |  |  /  |          
                  \  \/   | |  | |   /    \    | | | |  |  | /  /          
                 / \  \   | |__| |  /  /\  \   | |_| |  |  |/  /          
                |  |  |   |  __  | /  /__\  \  |    /   |      \           
                |  |  |   | |  | | |   __   |  |    \   |  |\   \          
                \     /   | |  | | |  |  |  |  | |\  \  |  | \   \       
                 \___/    |_|  |_| |__|  |__|  |_| \__\ |__|  \__/        
                                                                              
                      - O R C A' S   B I G   F R I E N D -                    
                                      &                                       
                       - I N T E G R A L  F E E D E R -                       
                                                                              
 v1 FN, 2020, v2 2021                                                         
------------------------------------------------------------------------------


Reading SHARK input file TZVPD_BLYP_C2_dlpno_new_neg.SHARKINP.tmp ... ok
----------------------
SHARK INTEGRAL PACKAGE
----------------------

Number of atoms                             ...     10
Number of basis functions                   ...    236
Number of shells                            ...     92
Maximum angular momentum                    ...      3
Integral batch strategy                     ... SHARK/LIBINT Hybrid
RI-J (if used) integral strategy            ... SPLIT-RIJ (Revised 2003 algorithm where possible)
Printlevel                                  ...      1
Contraction scheme used                     ... SEGMENTED contraction
Coulomb Range Separation                    ... NOT USED
Exchange Range Separation                   ... NOT USED
Finite Nucleus Model                        ... NOT USED
Auxiliary Coulomb fitting basis             ... AVAILABLE
   # of basis functions in Aux-J            ...    300
   # of shells in Aux-J                     ...    100
   Maximum angular momentum in Aux-J        ...      4
Auxiliary J/K fitting basis                 ... NOT available
Auxiliary Correlation fitting basis         ... NOT available
Auxiliary 'external' fitting basis          ... NOT available
Integral threshold                          ...     2.500000e-11
Primitive cut-off                           ...     2.500000e-12
Primitive pair pre-selection threshold      ...     2.500000e-12

Calculating pre-screening integrals         ... done (  0.2 sec) Dimension = 92
Organizing shell pair data                  ... done (  0.0 sec)
Shell pair information
Total number of shell pairs                 ...      4278
Shell pairs after pre-screening             ...      4160
Total number of primitive shell pairs       ...     11003
Primitive shell pairs kept                  ...      8937
          la=0 lb=0:    977 shell pairs
          la=1 lb=0:   1190 shell pairs
          la=1 lb=1:    376 shell pairs
          la=2 lb=0:    656 shell pairs
          la=2 lb=1:    402 shell pairs
          la=2 lb=2:    120 shell pairs
          la=3 lb=0:    215 shell pairs
          la=3 lb=1:    134 shell pairs
          la=3 lb=2:     75 shell pairs
          la=3 lb=3:     15 shell pairs

Calculating one electron integrals          ... done (  0.0 sec)
Calculating RI/J V-Matrix + Cholesky decomp.... done (  0.0 sec)
Calculating Nuclear repulsion               ... done (  0.0 sec) ENN=    176.995579197389 Eh

SHARK setup successfully completed in   0.3 seconds

Maximum memory used throughout the entire GTOINT-calculation: 13.9 MB


           ************************************************************
           *        Program running with 8 parallel MPI-processes     *
           *              working on a common directory               *
           ************************************************************
-------------------------------------------------------------------------------
                                 ORCA SCF
-------------------------------------------------------------------------------

------------
SCF SETTINGS
------------
Hamiltonian:
 Density Functional     Method          .... DFT(GTOs)
 Exchange Functional    Exchange        .... B88
   X-Alpha parameter    XAlpha          ....  0.666667
   Becke's b parameter  XBeta           ....  0.004200
 Correlation Functional Correlation     .... LYP
 Gradients option       PostSCFGGA      .... off
   Density functional embedding theory  .... OFF
   NL short-range parameter             ....  4.000000
 RI-approximation to the Coulomb term is turned on
   Number of AuxJ basis functions       .... 300


General Settings:
 Integral files         IntName         .... TZVPD_BLYP_C2_dlpno_new_neg
 Hartree-Fock type      HFTyp           .... RHF
 Total Charge           Charge          ....    0
 Multiplicity           Mult            ....    1
 Number of Electrons    NEL             ....   40
 Basis Dimension        Dim             ....  236
 Nuclear Repulsion      ENuc            ....    176.9955791974 Eh

Convergence Acceleration:
 DIIS                   CNVDIIS         .... on
   Start iteration      DIISMaxIt       ....    12
   Startup error        DIISStart       ....  0.200000
   # of expansion vecs  DIISMaxEq       ....     5
   Bias factor          DIISBfac        ....   1.050
   Max. coefficient     DIISMaxC        ....  10.000
 Trust-Rad. Augm. Hess. CNVTRAH         .... auto
   Auto Start mean grad. ratio tolernc. ....  1.125000
   Auto Start start iteration           ....    20
   Auto Start num. interpolation iter.  ....    10
   Max. Number of Micro iterations      ....    16
   Max. Number of Macro iterations      .... Maxiter - #DIIS iter
   Number of Davidson start vectors     ....     2
   Converg. threshold I  (grad. norm)   ....   1.000e-05
   Converg. threshold II (energy diff.) ....   1.000e-08
   Grad. Scal. Fac. for Micro threshold ....   0.100
   Minimum threshold for Micro iter.    ....   0.010
   NR start threshold (gradient norm)   ....   0.001
   Initial trust radius                 ....   0.400
   Minimum AH scaling param. (alpha)    ....   1.000
   Maximum AH scaling param. (alpha)    .... 1000.000
   Orbital update algorithm             .... Taylor
   White noise on init. David. guess    .... on
   Maximum white noise                  ....   0.010
   Quad. conv. algorithm                .... NR
 SOSCF                  CNVSOSCF        .... on
   Start iteration      SOSCFMaxIt      ....   150
   Startup grad/error   SOSCFStart      ....  0.003300
 Level Shifting         CNVShift        .... on
   Level shift para.    LevelShift      ....    0.2500
   Turn off err/grad.   ShiftErr        ....    0.0010
 Zerner damping         CNVZerner       .... off
 Static damping         CNVDamp         .... on
   Fraction old density DampFac         ....    0.7000
   Max. Damping (<1)    DampMax         ....    0.9800
   Min. Damping (>=0)   DampMin         ....    0.0000
   Turn off err/grad.   DampErr         ....    0.1000
 Fernandez-Rico         CNVRico         .... off

SCF Procedure:
 Maximum # iterations   MaxIter         ....   150
 SCF integral mode      SCFMode         .... Direct
   Integral package                     .... SHARK and LIBINT hybrid scheme
 Reset frequency        DirectResetFreq ....    20
 Integral Threshold     Thresh          ....  2.500e-11 Eh
 Primitive CutOff       TCut            ....  2.500e-12 Eh

Convergence Tolerance:
 Convergence Check Mode ConvCheckMode   .... Total+1el-Energy
 Convergence forced     ConvForced      .... 0
 Energy Change          TolE            ....  1.000e-08 Eh
 1-El. energy change                    ....  1.000e-05 Eh
 Orbital Gradient       TolG            ....  1.000e-05
 Orbital Rotation angle TolX            ....  1.000e-05
 DIIS Error             TolErr          ....  5.000e-07


Diagonalization of the overlap matrix:
Smallest eigenvalue                        ... 1.075e-05
Time for diagonalization                   ...    0.014 sec
Threshold for overlap eigenvalues          ... 1.000e-08
Number of eigenvalues below threshold      ... 0
Time for construction of square roots      ...    0.013 sec
Total time needed                          ...    0.028 sec

Time for model grid setup =    0.055 sec

------------------------------
INITIAL GUESS: MODEL POTENTIAL
------------------------------
Loading Hartree-Fock densities                     ... done
Calculating cut-offs                               ... done
Initializing the effective Hamiltonian             ... done
Setting up the integral package (SHARK)            ... done
Starting the Coulomb interaction                   ... done (   0.1 sec)
Reading the grid                                   ... done
Mapping shells                                     ... done
Starting the XC term evaluation                    ... done (   0.1 sec)
  promolecular density results
     # of electrons  =     39.996721433
     EX              =    -35.155048847
     EC              =     -1.377026872
     EX+EC           =    -36.532075719
Transforming the Hamiltonian                       ... done (   0.0 sec)
Diagonalizing the Hamiltonian                      ... done (   0.0 sec)
Back transforming the eigenvectors                 ... done (   0.0 sec)
Now organizing SCF variables                       ... done
                      ------------------
                      INITIAL GUESS DONE (   0.2 sec)
                      ------------------
-------------------
DFT GRID GENERATION
-------------------

General Integration Accuracy     IntAcc      ... 4.388
Radial Grid Type                 RadialGrid  ... OptM3 with GC (2021)
Angular Grid (max. ang.)         AngularGrid ... 4 (Lebedev-302)
Angular grid pruning method      GridPruning ... 4 (adaptive)
Weight generation scheme         WeightScheme... Becke
Basis function cutoff            BFCut       ... 1.0000e-11
Integration weight cutoff        WCut        ... 1.0000e-14
Angular grids for H and He will be reduced by one unit
Partially contracted basis set               ... off
Rotationally invariant grid construction     ... off

Total number of grid points                  ...    49067
Total number of batches                      ...      772
Average number of points per batch           ...       63
Average number of grid points per atom       ...     4907
Time for grid setup =    0.283 sec

--------------
SCF ITERATIONS
--------------
ITER       Energy         Delta-E        Max-DP      RMS-DP      [F,P]     Damp
               ***  Starting incremental Fock matrix formation  ***
  0   -292.2082343662   0.000000000000 0.12732715  0.00198005  0.3150679 0.7000
  1   -292.3312899080  -0.123055541754 0.08753366  0.00117570  0.0917193 0.7000
                               ***Turning on DIIS***
  2   -292.3589215975  -0.027631689534 0.12983522  0.00187667  0.0379755 0.0000
  3   -292.4296287420  -0.070707144429 0.04436018  0.00068762  0.0607623 0.0000
  4   -292.4380145597  -0.008385817748 0.01147511  0.00025447  0.0459443 0.0000
  5   -292.4416267739  -0.003612214215 0.00437690  0.00012382  0.0086309 0.0000
  6   -292.4418383615  -0.000211587569 0.00134563  0.00004927  0.0033787 0.0000
                      *** Initiating the SOSCF procedure ***
                           *** Shutting down DIIS ***
                      *** Re-Reading the Fockian *** 
                      *** Removing any level shift *** 
ITER      Energy       Delta-E        Grad      Rot      Max-DP    RMS-DP
  7   -292.44185990  -0.0000215430  0.000301  0.000301  0.000706  0.000020
               *** Restarting incremental Fock matrix formation ***
  8   -292.44186248  -0.0000025797  0.000131  0.000540  0.000644  0.000020
  9   -292.44186034   0.0000021402  0.000649  0.000713  0.000411  0.000007
 10   -292.44186290  -0.0000025577  0.000101  0.000261  0.000210  0.000005
 11   -292.44186258   0.0000003223  0.000181  0.000138  0.000130  0.000003
 12   -292.44186300  -0.0000004210  0.000007  0.000016  0.000071  0.000001
 13   -292.44186300   0.0000000032  0.000008  0.000010  0.000043  0.000001
                  ***Gradient check signals convergence***
              ***Rediagonalizing the Fockian in SOSCF/NRSCF***

               *****************************************************
               *                     SUCCESS                       *
               *           SCF CONVERGED AFTER  14 CYCLES          *
               *****************************************************


----------------
TOTAL SCF ENERGY
----------------

Total Energy       :         -292.44186300 Eh           -7957.74766 eV

Components:
Nuclear Repulsion  :          176.99557920 Eh            4816.29457 eV
Electronic Energy  :         -469.43744220 Eh          -12774.04222 eV
One Electron Energy:         -750.40761615 Eh          -20419.62935 eV
Two Electron Energy:          280.97017395 Eh            7645.58713 eV

Virial components:
Potential Energy   :         -584.05056363 Eh          -15892.82381 eV
Kinetic Energy     :          291.60870063 Eh            7935.07616 eV
Virial Ratio       :            2.00285712


DFT components:
N(Alpha)           :       19.999959079327 electrons
N(Beta)            :       19.999959079327 electrons
N(Total)           :       39.999918158654 electrons
E(X)               :      -35.768530041789 Eh       
E(C)               :       -1.384957495635 Eh       
E(XC)              :      -37.153487537424 Eh       
DFET-embed. en.    :        0.000000000000 Eh       

---------------
SCF CONVERGENCE
---------------

  Last Energy change         ...   -7.3231e-09  Tolerance :   1.0000e-08
  Last MAX-Density change    ...    1.5186e-04  Tolerance :   1.0000e-07
  Last RMS-Density change    ...    1.6630e-06  Tolerance :   5.0000e-09
  Last Orbital Gradient      ...    6.5928e-07  Tolerance :   1.0000e-05
  Last Orbital Rotation      ...    2.5421e-06  Tolerance :   1.0000e-05

             **** THE GBW FILE WAS UPDATED (TZVPD_BLYP_C2_dlpno_new_neg.gbw) ****
             **** DENSITY TZVPD_BLYP_C2_dlpno_new_neg.scfp WAS UPDATED ****
             **** ENERGY FILE WAS UPDATED (TZVPD_BLYP_C2_dlpno_new_neg.en.tmp) ****
             **** THE GBW FILE WAS UPDATED (TZVPD_BLYP_C2_dlpno_new_neg.gbw) ****
             **** DENSITY TZVPD_BLYP_C2_dlpno_new_neg.scfp WAS UPDATED ****
----------------
ORBITAL ENERGIES
----------------

  NO   OCC          E(Eh)            E(eV) 
   0   2.0000     -24.353979      -662.7055 
   1   2.0000     -18.776399      -510.9318 
   2   2.0000     -10.074060      -274.1291 
   3   2.0000      -9.935248      -270.3518 
   4   2.0000      -9.913675      -269.7648 
   5   2.0000      -1.209751       -32.9190 
   6   2.0000      -0.936502       -25.4835 
   7   2.0000      -0.725726       -19.7480 
   8   2.0000      -0.616050       -16.7636 
   9   2.0000      -0.576256       -15.6807 
  10   2.0000      -0.487315       -13.2605 
  11   2.0000      -0.474701       -12.9173 
  12   2.0000      -0.442117       -12.0306 
  13   2.0000      -0.412681       -11.2296 
  14   2.0000      -0.383327       -10.4309 
  15   2.0000      -0.354662        -9.6508 
  16   2.0000      -0.334827        -9.1111 
  17   2.0000      -0.331104        -9.0098 
  18   2.0000      -0.306712        -8.3461 
  19   2.0000      -0.237626        -6.4661 
  20   0.0000      -0.063292        -1.7223 
  21   0.0000      -0.015848        -0.4313 
  22   0.0000       0.012732         0.3465 
  23   0.0000       0.023285         0.6336 
  24   0.0000       0.032841         0.8937 
  25   0.0000       0.058261         1.5854 
  26   0.0000       0.061520         1.6740 
  27   0.0000       0.067265         1.8304 
  28   0.0000       0.079871         2.1734 
  29   0.0000       0.081933         2.2295 
  30   0.0000       0.102207         2.7812 
  31   0.0000       0.110505         3.0070 
  32   0.0000       0.116579         3.1723 
  33   0.0000       0.124682         3.3928 
  34   0.0000       0.130272         3.5449 
  35   0.0000       0.142564         3.8794 
  36   0.0000       0.148962         4.0535 
  37   0.0000       0.166605         4.5336 
  38   0.0000       0.188126         5.1192 
  39   0.0000       0.193224         5.2579 
  40   0.0000       0.194361         5.2888 
  41   0.0000       0.208192         5.6652 
  42   0.0000       0.223063         6.0698 
  43   0.0000       0.230006         6.2588 
  44   0.0000       0.241378         6.5682 
  45   0.0000       0.246340         6.7033 
  46   0.0000       0.254627         6.9287 
  47   0.0000       0.258932         7.0459 
  48   0.0000       0.264458         7.1963 
  49   0.0000       0.269560         7.3351 
  50   0.0000       0.273727         7.4485 
  51   0.0000       0.286020         7.7830 
  52   0.0000       0.294387         8.0107 
  53   0.0000       0.298546         8.1238 
  54   0.0000       0.311458         8.4752 
  55   0.0000       0.325195         8.8490 
  56   0.0000       0.332674         9.0525 
  57   0.0000       0.347849         9.4654 
  58   0.0000       0.350003         9.5241 
  59   0.0000       0.361746         9.8436 
  60   0.0000       0.366119         9.9626 
  61   0.0000       0.370382        10.0786 
  62   0.0000       0.379224        10.3192 
  63   0.0000       0.388059        10.5596 
  64   0.0000       0.402116        10.9421 
  65   0.0000       0.411111        11.1869 
  66   0.0000       0.417499        11.3607 
  67   0.0000       0.419108        11.4045 
  68   0.0000       0.433909        11.8073 
  69   0.0000       0.438968        11.9449 
  70   0.0000       0.449749        12.2383 
  71   0.0000       0.457663        12.4536 
  72   0.0000       0.476243        12.9592 
  73   0.0000       0.507518        13.8103 
  74   0.0000       0.518308        14.1039 
  75   0.0000       0.532522        14.4907 
  76   0.0000       0.543432        14.7875 
  77   0.0000       0.564779        15.3684 
  78   0.0000       0.571308        15.5461 
  79   0.0000       0.595525        16.2051 
  80   0.0000       0.599700        16.3187 
  81   0.0000       0.602363        16.3911 
  82   0.0000       0.621655        16.9161 
  83   0.0000       0.634985        17.2788 
  84   0.0000       0.643279        17.5045 
  85   0.0000       0.646188        17.5837 
  86   0.0000       0.649070        17.6621 
  87   0.0000       0.658392        17.9158 
  88   0.0000       0.665655        18.1134 
  89   0.0000       0.670858        18.2550 
  90   0.0000       0.681117        18.5341 
  91   0.0000       0.696533        18.9536 
  92   0.0000       0.718471        19.5506 
  93   0.0000       0.721819        19.6417 
  94   0.0000       0.750879        20.4325 
  95   0.0000       0.789502        21.4834 
  96   0.0000       0.803244        21.8574 
  97   0.0000       0.813317        22.1315 
  98   0.0000       0.857124        23.3235 
  99   0.0000       0.869211        23.6524 
 100   0.0000       0.880081        23.9482 
 101   0.0000       0.911696        24.8085 
 102   0.0000       0.923751        25.1365 
 103   0.0000       0.951650        25.8957 
 104   0.0000       0.978860        26.6361 
 105   0.0000       1.021528        27.7972 
 106   0.0000       1.047095        28.4929 
 107   0.0000       1.067085        29.0369 
 108   0.0000       1.102752        30.0074 
 109   0.0000       1.110932        30.2300 
 110   0.0000       1.137415        30.9506 
 111   0.0000       1.161091        31.5949 
 112   0.0000       1.175138        31.9771 
 113   0.0000       1.202454        32.7204 
 114   0.0000       1.239833        33.7376 
 115   0.0000       1.263432        34.3797 
 116   0.0000       1.282994        34.9121 
 117   0.0000       1.331021        36.2189 
 118   0.0000       1.341420        36.5019 
 119   0.0000       1.424636        38.7663 
 120   0.0000       1.460388        39.7392 
 121   0.0000       1.573969        42.8299 
 122   0.0000       1.640392        44.6373 
 123   0.0000       1.664384        45.2902 
 124   0.0000       1.693839        46.0917 
 125   0.0000       1.710297        46.5395 
 126   0.0000       1.740792        47.3694 
 127   0.0000       1.750255        47.6269 
 128   0.0000       1.768988        48.1366 
 129   0.0000       1.786980        48.6262 
 130   0.0000       1.793758        48.8106 
 131   0.0000       1.817452        49.4554 
 132   0.0000       1.860622        50.6301 
 133   0.0000       1.887915        51.3728 
 134   0.0000       1.946182        52.9583 
 135   0.0000       1.959738        53.3272 
 136   0.0000       1.977878        53.8208 
 137   0.0000       2.038898        55.4812 
 138   0.0000       2.054016        55.8926 
 139   0.0000       2.087081        56.7923 
 140   0.0000       2.168480        59.0073 
 141   0.0000       2.227115        60.6029 
 142   0.0000       2.227837        60.6225 
 143   0.0000       2.258937        61.4688 
 144   0.0000       2.283885        62.1477 
 145   0.0000       2.328823        63.3705 
 146   0.0000       2.337888        63.6172 
 147   0.0000       2.389956        65.0340 
 148   0.0000       2.421625        65.8958 
 149   0.0000       2.431354        66.1605 
 150   0.0000       2.443469        66.4902 
 151   0.0000       2.450101        66.6706 
 152   0.0000       2.532798        68.9209 
 153   0.0000       2.566146        69.8284 
 154   0.0000       2.579165        70.1827 
 155   0.0000       2.603176        70.8360 
 156   0.0000       2.638970        71.8100 
 157   0.0000       2.663939        72.4895 
 158   0.0000       2.705655        73.6246 
 159   0.0000       2.722179        74.0742 
 160   0.0000       2.737293        74.4855 
 161   0.0000       2.794005        76.0287 
 162   0.0000       2.821217        76.7692 
 163   0.0000       2.872474        78.1640 
 164   0.0000       2.929387        79.7127 
 165   0.0000       3.001136        81.6651 
 166   0.0000       3.034414        82.5706 
 167   0.0000       3.060465        83.2795 
 168   0.0000       3.086617        83.9911 
 169   0.0000       3.119834        84.8950 
 170   0.0000       3.135618        85.3245 
 171   0.0000       3.154582        85.8405 
 172   0.0000       3.183537        86.6284 
 173   0.0000       3.197964        87.0210 
 174   0.0000       3.222752        87.6956 
 175   0.0000       3.263398        88.8016 
 176   0.0000       3.298631        89.7603 
 177   0.0000       3.324784        90.4720 
 178   0.0000       3.354722        91.2866 
 179   0.0000       3.373989        91.8109 
 180   0.0000       3.390538        92.2612 
 181   0.0000       3.409602        92.7800 
 182   0.0000       3.435731        93.4910 
 183   0.0000       3.460891        94.1756 
 184   0.0000       3.496979        95.1576 
 185   0.0000       3.518429        95.7413 
 186   0.0000       3.637182        98.9728 
 187   0.0000       3.653834        99.4259 
 188   0.0000       3.749698       102.0345 
 189   0.0000       3.791452       103.1707 
 190   0.0000       3.863632       105.1348 
 191   0.0000       3.877409       105.5097 
 192   0.0000       3.914243       106.5120 
 193   0.0000       3.947937       107.4288 
 194   0.0000       4.030663       109.6799 
 195   0.0000       4.073745       110.8522 
 196   0.0000       4.122238       112.1718 
 197   0.0000       4.234097       115.2156 
 198   0.0000       4.325226       117.6954 
 199   0.0000       4.416282       120.1732 
 200   0.0000       4.487942       122.1231 
 201   0.0000       4.534870       123.4001 
 202   0.0000       4.547392       123.7408 
 203   0.0000       4.659568       126.7933 
 204   0.0000       4.795019       130.4791 
 205   0.0000       4.854585       132.1000 
 206   0.0000       5.062636       137.7613 
 207   0.0000       5.082483       138.3014 
 208   0.0000       5.326695       144.9467 
 209   0.0000       5.393632       146.7682 
 210   0.0000       5.551045       151.0516 
 211   0.0000       5.877880       159.9453 
 212   0.0000       6.085065       165.5830 
 213   0.0000       6.150742       167.3702 
 214   0.0000       6.361704       173.1108 
 215   0.0000       6.436699       175.1515 
 216   0.0000       6.648250       180.9081 
 217   0.0000       6.690615       182.0609 
 218   0.0000       6.744713       183.5330 
 219   0.0000       6.748015       183.6228 
 220   0.0000       6.947739       189.0576 
 221   0.0000       6.997392       190.4087 
 222   0.0000       7.079498       192.6429 
 223   0.0000       7.255868       197.4422 
 224   0.0000       7.427267       202.1062 
 225   0.0000       7.705034       209.6646 
 226   0.0000       8.343371       227.0347 
 227   0.0000       8.389765       228.2971 
 228   0.0000       8.657196       235.5743 
 229   0.0000       8.852950       240.9010 
 230   0.0000       9.070931       246.8326 
 231   0.0000      22.261600       605.7689 
 232   0.0000      22.299873       606.8104 
 233   0.0000      23.081569       628.0814 
 234   0.0000      43.696268      1189.0359 
 235   0.0000      57.027122      1551.7869 

                    ********************************
                    * MULLIKEN POPULATION ANALYSIS *
                    ********************************

-----------------------
MULLIKEN ATOMIC CHARGES
-----------------------
   0 C :   -1.177068
   1 C :   -0.077660
   2 H :    0.249678
   3 H :    0.199437
   4 C :    0.537579
   5 O :   -0.486990
   6 F :   -0.221172
   7 H :    0.300506
   8 H :    0.362744
   9 H :    0.312946
Sum of atomic charges:    0.0000000

--------------------------------
MULLIKEN REDUCED ORBITAL CHARGES
--------------------------------
  0 C s       :     3.542520  s :     3.542520
      pz      :     1.054645  p :     3.581550
      px      :     1.308227
      py      :     1.218678
      dz2     :     0.005269  d :     0.049684
      dxz     :     0.002605
      dyz     :     0.010988
      dx2y2   :     0.011363
      dxy     :     0.019460
      f0      :     0.000743  f :     0.003313
      f+1     :     0.000326
      f-1     :     0.000699
      f+2     :     0.000342
      f-2     :     0.000815
      f+3     :     0.000344
      f-3     :     0.000044
  1 C s       :     3.201732  s :     3.201732
      pz      :     0.914179  p :     2.940242
      px      :     1.104790
      py      :     0.921273
      dz2     :    -0.007561  d :    -0.069770
      dxz     :    -0.049147
      dyz     :    -0.009212
      dx2y2   :    -0.005995
      dxy     :     0.002145
      f0      :     0.001188  f :     0.005456
      f+1     :     0.000554
      f-1     :     0.001117
      f+2     :     0.000820
      f-2     :     0.001174
      f+3     :     0.000391
      f-3     :     0.000211
  2 H s       :     0.705306  s :     0.705306
      pz      :     0.015792  p :     0.045016
      px      :     0.006564
      py      :     0.022660
  3 H s       :     0.735597  s :     0.735597
      pz      :     0.020376  p :     0.064966
      px      :     0.034055
      py      :     0.010534
  4 C s       :     3.183078  s :     3.183078
      pz      :     0.700513  p :     1.972977
      px      :     0.567052
      py      :     0.705412
      dz2     :     0.050417  d :     0.278930
      dxz     :     0.083658
      dyz     :     0.049631
      dx2y2   :     0.055407
      dxy     :     0.039817
      f0      :     0.004909  f :     0.027435
      f+1     :     0.004804
      f-1     :     0.002939
      f+2     :     0.004576
      f-2     :     0.003252
      f+3     :     0.003912
      f-3     :     0.003043
  5 O s       :     4.007165  s :     4.007165
      pz      :     1.339089  p :     4.446577
      px      :     1.602950
      py      :     1.504537
      dz2     :     0.011289  d :     0.031691
      dxz     :     0.006191
      dyz     :     0.008455
      dx2y2   :     0.001660
      dxy     :     0.004096
      f0      :     0.000397  f :     0.001558
      f+1     :     0.000370
      f-1     :     0.000196
      f+2     :     0.000225
      f-2     :     0.000268
      f+3     :     0.000049
      f-3     :     0.000052
  6 F s       :     4.013674  s :     4.013674
      pz      :     1.872162  p :     5.185471
      px      :     1.517498
      py      :     1.795811
      dz2     :     0.003165  d :     0.021154
      dxz     :     0.004597
      dyz     :     0.001512
      dx2y2   :     0.005537
      dxy     :     0.006343
      f0      :     0.000091  f :     0.000873
      f+1     :     0.000150
      f-1     :     0.000027
      f+2     :     0.000114
      f-2     :     0.000093
      f+3     :     0.000194
      f-3     :     0.000204
  7 H s       :     0.618361  s :     0.618361
      pz      :     0.033352  p :     0.081133
      px      :     0.028432
      py      :     0.019349
  8 H s       :     0.572222  s :     0.572222
      pz      :     0.007802  p :     0.065034
      px      :     0.024098
      py      :     0.033133
  9 H s       :     0.617302  s :     0.617302
      pz      :     0.019253  p :     0.069753
      px      :     0.028628
      py      :     0.021872


                     *******************************
                     * LOEWDIN POPULATION ANALYSIS *
                     *******************************

----------------------
LOEWDIN ATOMIC CHARGES
----------------------
   0 C :   -0.081622
   1 C :   -0.151066
   2 H :    0.114082
   3 H :    0.113447
   4 C :   -0.516773
   5 O :    0.092083
   6 F :    0.224639
   7 H :    0.066334
   8 H :    0.073010
   9 H :    0.065866

-------------------------------
LOEWDIN REDUCED ORBITAL CHARGES
-------------------------------
  0 C s       :     2.727540  s :     2.727540
      pz      :     0.936557  p :     2.878917
      px      :     0.974609
      py      :     0.967750
      dz2     :     0.103297  d :     0.447252
      dxz     :     0.108683
      dyz     :     0.108920
      dx2y2   :     0.044346
      dxy     :     0.082007
      f0      :     0.006057  f :     0.027914
      f+1     :     0.003662
      f-1     :     0.004812
      f+2     :     0.003844
      f-2     :     0.004531
      f+3     :     0.003348
      f-3     :     0.001660
  1 C s       :     2.683703  s :     2.683703
      pz      :     0.911194  p :     2.750957
      px      :     0.925098
      py      :     0.914664
      dz2     :     0.176466  d :     0.677718
      dxz     :     0.149231
      dyz     :     0.156471
      dx2y2   :     0.073685
      dxy     :     0.121865
      f0      :     0.008021  f :     0.038689
      f+1     :     0.005210
      f-1     :     0.006869
      f+2     :     0.005923
      f-2     :     0.006431
      f+3     :     0.003629
      f-3     :     0.002606
  2 H s       :     0.682058  s :     0.682058
      pz      :     0.052120  p :     0.203860
      px      :     0.069760
      py      :     0.081980
  3 H s       :     0.679520  s :     0.679520
      pz      :     0.061705  p :     0.207032
      px      :     0.089962
      py      :     0.055365
  4 C s       :     2.649642  s :     2.649642
      pz      :     0.867279  p :     2.357839
      px      :     0.771712
      py      :     0.718848
      dz2     :     0.293374  d :     1.332433
      dxz     :     0.363823
      dyz     :     0.218198
      dx2y2   :     0.234370
      dxy     :     0.222668
      f0      :     0.029742  f :     0.176858
      f+1     :     0.031206
      f-1     :     0.019812
      f+2     :     0.029322
      f-2     :     0.017782
      f+3     :     0.025323
      f-3     :     0.023671
  5 O s       :     3.388824  s :     3.388824
      pz      :     1.441137  p :     4.310462
      px      :     1.498977
      py      :     1.370348
      dz2     :     0.059898  d :     0.203366
      dxz     :     0.060095
      dyz     :     0.047939
      dx2y2   :     0.019695
      dxy     :     0.015740
      f0      :     0.000976  f :     0.005265
      f+1     :     0.001759
      f-1     :     0.000659
      f+2     :     0.000900
      f-2     :     0.000717
      f+3     :     0.000134
      f-3     :     0.000119
  6 F s       :     3.506991  s :     3.506991
      pz      :     1.745391  p :     5.043756
      px      :     1.604248
      py      :     1.694116
      dz2     :     0.029932  d :     0.222378
      dxz     :     0.064906
      dyz     :     0.012943
      dx2y2   :     0.052192
      dxy     :     0.062405
      f0      :     0.000233  f :     0.002236
      f+1     :     0.000398
      f-1     :     0.000070
      f+2     :     0.000342
      f-2     :     0.000233
      f+3     :     0.000428
      f-3     :     0.000531
  7 H s       :     0.708746  s :     0.708746
      pz      :     0.077257  p :     0.224920
      px      :     0.071794
      py      :     0.075869
  8 H s       :     0.704523  s :     0.704523
      pz      :     0.057625  p :     0.222467
      px      :     0.073132
      py      :     0.091710
  9 H s       :     0.703635  s :     0.703635
      pz      :     0.065519  p :     0.230499
      px      :     0.103470
      py      :     0.061511


                      *****************************
                      * MAYER POPULATION ANALYSIS *
                      *****************************

  NA   - Mulliken gross atomic population
  ZA   - Total nuclear charge
  QA   - Mulliken gross atomic charge
  VA   - Mayer's total valence
  BVA  - Mayer's bonded valence
  FA   - Mayer's free valence

  ATOM       NA         ZA         QA         VA         BVA        FA
  0 C      7.1771     6.0000    -1.1771     3.4915     3.4915     0.0000
  1 C      6.0777     6.0000    -0.0777     3.2318     3.2318    -0.0000
  2 H      0.7503     1.0000     0.2497     0.9498     0.9498     0.0000
  3 H      0.8006     1.0000     0.1994     1.0872     1.0872    -0.0000
  4 C      5.4624     6.0000     0.5376     3.7177     3.7177     0.0000
  5 O      8.4870     8.0000    -0.4870     1.8437     1.8437    -0.0000
  6 F      9.2212     9.0000    -0.2212     1.1373     1.1373    -0.0000
  7 H      0.6995     1.0000     0.3005     1.0519     1.0519     0.0000
  8 H      0.6373     1.0000     0.3627     0.9572     0.9572     0.0000
  9 H      0.6871     1.0000     0.3129     1.0286     1.0286     0.0000

  Mayer bond orders larger than 0.100000
B(  0-C ,  1-C ) :   0.5340 B(  0-C ,  7-H ) :   0.9545 B(  0-C ,  8-H ) :   0.9204 
B(  0-C ,  9-H ) :   0.9720 B(  1-C ,  2-H ) :   0.9306 B(  1-C ,  3-H ) :   1.0127 
B(  1-C ,  4-C ) :   0.8992 B(  4-C ,  5-O ) :   1.7050 B(  4-C ,  6-F ) :   0.9951 


-------
TIMINGS
-------

Total SCF time: 0 days 0 hours 0 min 4 sec 

Total time                  ....       4.291 sec
Sum of individual times     ....       4.067 sec  ( 94.8%)

Fock matrix formation       ....       3.207 sec  ( 74.8%)
  Split-RI-J                ....       0.895 sec  ( 27.9% of F)
  XC integration            ....       2.261 sec  ( 70.5% of F)
    Basis function eval.    ....       0.624 sec  ( 27.6% of XC)
    Density eval.           ....       0.586 sec  ( 25.9% of XC)
    XC-Functional eval.     ....       0.069 sec  (  3.0% of XC)
    XC-Potential eval.      ....       0.827 sec  ( 36.6% of XC)
Diagonalization             ....       0.121 sec  (  2.8%)
Density matrix formation    ....       0.008 sec  (  0.2%)
Population analysis         ....       0.011 sec  (  0.3%)
Initial guess               ....       0.179 sec  (  4.2%)
Orbital Transformation      ....       0.000 sec  (  0.0%)
Orbital Orthonormalization  ....       0.000 sec  (  0.0%)
DIIS solution               ....       0.135 sec  (  3.1%)
SOSCF solution              ....       0.068 sec  (  1.6%)
Grid generation             ....       0.338 sec  (  7.9%)

Maximum memory used throughout the entire SCF-calculation: 21.9 MB


-------------------------------------------------------------------------------
                          DFT DISPERSION CORRECTION                            
                                                                               
                              DFTD3 V3.1  Rev 1                                
                          USING Becke-Johnson damping                          
-------------------------------------------------------------------------------
The BLYP functional is recognized
Active option DFTDOPT                   ...         4   

molecular C6(AA) [au] = 808.351869 


            DFT-D V3
 parameters
 s6 scaling factor         :     1.0000 
 a1 scaling factor         :     0.4298 
 s8 scaling factor         :     2.6996 
 a2 scaling factor         :     4.2359 
 ad hoc parameters k1-k3   :    16.0000     1.3333    -4.0000 

 Edisp/kcal,au: -8.028265264975  -0.012793853703 
 E6   /kcal   :  -3.294814147 
 E8   /kcal   :  -4.733451118 
 % E8         :  58.959824593 

-------------------------   ----------------
Dispersion correction           -0.012793854
-------------------------   ----------------


-------------------------   --------------------
FINAL SINGLE POINT ENERGY      -292.454656858163
-------------------------   --------------------


                            ***************************************
                            *     ORCA property calculations      *
                            ***************************************

                                    ---------------------
                                    Active property flags
                                    ---------------------
   (+) Dipole Moment


------------------------------------------------------------------------------
                       ORCA ELECTRIC PROPERTIES CALCULATION
------------------------------------------------------------------------------

Dipole Moment Calculation                       ... on
Quadrupole Moment Calculation                   ... off
Polarizability Calculation                      ... off
GBWName                                         ... TZVPD_BLYP_C2_dlpno_new_neg.gbw
Electron density file                           ... TZVPD_BLYP_C2_dlpno_new_neg.scfp
The origin for moment calculation is the CENTER OF MASS  = ( 9.114847,  3.165891 -0.510240)

-------------
DIPOLE MOMENT
-------------
                                X             Y             Z
Electronic contribution:      4.84294      -2.30536       5.87688
Nuclear contribution   :     -4.79499       2.78546      -7.01827
                        -----------------------------------------
Total Dipole Moment    :      0.04794       0.48010      -1.14139
                        -----------------------------------------
Magnitude (a.u.)       :      1.23918
Magnitude (Debye)      :      3.14975



--------------------
Rotational spectrum 
--------------------
 
Rotational constants in cm-1:     0.286098     0.133492     0.103343 
Rotational constants in MHz :  8577.003657  4001.981591  3098.148068 

 Dipole components along the rotational axes: 
x,y,z [a.u.] :    -1.130463    -0.370364    -0.347067 
x,y,z [Debye]:    -2.873408    -0.941391    -0.882174 

 

Timings for individual modules:

Sum of individual times         ...        5.688 sec (=   0.095 min)
GTO integral calculation        ...        1.112 sec (=   0.019 min)  19.5 %
SCF iterations                  ...        4.577 sec (=   0.076 min)  80.5 %
                             ****ORCA TERMINATED NORMALLY****
TOTAL RUN TIME: 0 days 0 hours 0 minutes 6 seconds 97 msec
