
                                        *****************
                                        * O   R   C   A *
                                        *****************

                                            #,                                       
                                            ###                                      
                                            ####                                     
                                            #####                                    
                                            ######                                   
                                           ########,                                 
                                     ,,################,,,,,                         
                               ,,#################################,,                 
                          ,,##########################################,,             
                       ,#########################################, ''#####,          
                    ,#############################################,,   '####,        
                  ,##################################################,,,,####,       
                ,###########''''           ''''###############################       
              ,#####''   ,,,,##########,,,,          '''####'''          '####       
            ,##' ,,,,###########################,,,                        '##       
           ' ,,###''''                  '''############,,,                           
         ,,##''                                '''############,,,,        ,,,,,,###''
      ,#''                                            '''#######################'''  
     '                                                          ''''####''''         
             ,#######,   #######,   ,#######,      ##                                
            ,#'     '#,  ##    ##  ,#'     '#,    #''#        ######   ,####,        
            ##       ##  ##   ,#'  ##            #'  '#       #        #'  '#        
            ##       ##  #######   ##           ,######,      #####,   #    #        
            '#,     ,#'  ##    ##  '#,     ,#' ,#      #,         ##   #,  ,#        
             '#######'   ##     ##  '#######'  #'      '#     #####' # '####'        



                  #######################################################
                  #                        -***-                        #
                  #          Department of theory and spectroscopy      #
                  #    Directorship and core code : Frank Neese         #
                  #        Max Planck Institute fuer Kohlenforschung    #
                  #                Kaiser Wilhelm Platz 1               #
                  #                 D-45470 Muelheim/Ruhr               #
                  #                      Germany                        #
                  #                                                     #
                  #                  All rights reserved                #
                  #                        -***-                        #
                  #######################################################


                         Program Version 5.0.0 -  RELEASE  -
                                (SVN: $Rev: 19529$)
                ($Date: 2021-06-28 11:36:33 +0200 (Mo, 28 Jun 2021) $)


 With contributions from (in alphabetic order):
   Daniel Aravena         : Magnetic Suceptibility
   Michael Atanasov       : Ab Initio Ligand Field Theory (pilot matlab implementation)
   Alexander A. Auer      : GIAO ZORA, VPT2 properties, NMR spectrum
   Ute Becker             : Parallelization
   Giovanni Bistoni       : ED, misc. LED, open-shell LED, HFLD
   Martin Brehm           : Molecular dynamics
   Dmytro Bykov           : SCF Hessian
   Vijay G. Chilkuri      : MRCI spin determinant printing, contributions to CSF-ICE
   Dipayan Datta          : RHF DLPNO-CCSD density
   Achintya Kumar Dutta   : EOM-CC, STEOM-CC
   Dmitry Ganyushin       : Spin-Orbit,Spin-Spin,Magnetic field MRCI
   Miquel Garcia          : C-PCM Hessian, Gaussian charge scheme
   Yang Guo               : DLPNO-NEVPT2, F12-NEVPT2, CIM, IAO-localization
   Andreas Hansen         : Spin unrestricted coupled pair/coupled cluster methods
   Benjamin Helmich-Paris : MC-RPA, TRAH-SCF, COSX integrals
   Lee Huntington         : MR-EOM, pCC
   Robert Izsak           : Overlap fitted RIJCOSX, COSX-SCS-MP3, EOM
   Marcus Kettner         : VPT2
   Christian Kollmar      : KDIIS, OOCD, Brueckner-CCSD(T), CCSD density, CASPT2, CASPT2-K
   Simone Kossmann        : Meta GGA functionals, TD-DFT gradient, OOMP2, MP2 Hessian
   Martin Krupicka        : Initial AUTO-CI
   Lucas Lang             : DCDCAS
   Marvin Lechner         : AUTO-CI (C++ implementation), FIC-MRCC
   Dagmar Lenk            : GEPOL surface, SMD
   Dimitrios Liakos       : Extrapolation schemes; Compound Job, initial MDCI parallelization
   Dimitrios Manganas     : Further ROCIS development; embedding schemes
   Dimitrios Pantazis     : SARC Basis sets
   Anastasios Papadopoulos: AUTO-CI, single reference methods and gradients
   Taras Petrenko         : DFT Hessian,TD-DFT gradient, ASA, ECA, R-Raman, ABS, FL, XAS/XES, NRVS
   Peter Pinski           : DLPNO-MP2, DLPNO-MP2 Gradient
   Christoph Reimann      : Effective Core Potentials
   Marius Retegan         : Local ZFS, SOC
   Christoph Riplinger    : Optimizer, TS searches, QM/MM, DLPNO-CCSD(T), (RO)-DLPNO pert. Triples
   Tobias Risthaus        : Range-separated hybrids, TD-DFT gradient, RPA, STAB
   Michael Roemelt        : Original ROCIS implementation
   Masaaki Saitow         : Open-shell DLPNO-CCSD energy and density
   Barbara Sandhoefer     : DKH picture change effects
   Avijit Sen             : IP-ROCIS
   Kantharuban Sivalingam : CASSCF convergence, NEVPT2, FIC-MRCI
   Bernardo de Souza      : ESD, SOC TD-DFT
   Georgi Stoychev        : AutoAux, RI-MP2 NMR
   Willem Van den Heuvel  : Paramagnetic NMR
   Boris Wezisla          : Elementary symmetry handling
   Frank Wennmohs         : Technical directorship


 We gratefully acknowledge several colleagues who have allowed us to
 interface, adapt or use parts of their codes:
   Stefan Grimme, W. Hujo, H. Kruse, P. Pracht,  : VdW corrections, initial TS optimization,
                  C. Bannwarth, S. Ehlert          DFT functionals, gCP, sTDA/sTD-DF
   Ed Valeev, F. Pavosevic, A. Kumar             : LibInt (2-el integral package), F12 methods
   Garnet Chan, S. Sharma, J. Yang, R. Olivares  : DMRG
   Ulf Ekstrom                                   : XCFun DFT Library
   Mihaly Kallay                                 : mrcc  (arbitrary order and MRCC methods)
   Jiri Pittner, Ondrej Demel                    : Mk-CCSD
   Frank Weinhold                                : gennbo (NPA and NBO analysis)
   Christopher J. Cramer and Donald G. Truhlar   : smd solvation model
   Lars Goerigk                                  : TD-DFT with DH, B97 family of functionals
   V. Asgeirsson, H. Jonsson                     : NEB implementation
   FAccTs GmbH                                   : IRC, NEB, NEB-TS, DLPNO-Multilevel, CI-OPT
                                                   MM, QMMM, 2- and 3-layer-ONIOM, Crystal-QMMM,
                                                   LR-CPCM, SF, NACMEs, symmetry and pop. for TD-DFT,
                                                   nearIR, NL-DFT gradient (VV10), updates on ESD,
                                                   ML-optimized integration grids
   S Lehtola, MJT Oliveira, MAL Marques          : LibXC Library
   Liviu Ungur et al                             : ANISO software


 Your calculation uses the libint2 library for the computation of 2-el integrals
 For citations please refer to: http://libint.valeyev.net

 Your ORCA version has been built with support for libXC version: 5.1.0
 For citations please refer to: https://tddft.org/programs/libxc/

 This ORCA versions uses:
   CBLAS   interface :  Fast vector & matrix operations
   LAPACKE interface :  Fast linear algebra routines
   SCALAPACK package :  Parallel linear algebra routines
   Shared memory     :  Shared parallel matrices
   BLAS/LAPACK       :  OpenBLAS 0.3.15  USE64BITINT DYNAMIC_ARCH NO_AFFINITY Haswell SINGLE_THREADED
        Core in use  :  Haswell
   Copyright (c) 2011-2014, The OpenBLAS Project




***************************************
The coordinates will be read from file: D8.xyz
***************************************


Your calculation utilizes the atom-pairwise dispersion correction
with the zero-damping scheme (D30)
Cite in your paper:
S.Grimme, J.Antony, S.Ehrlich and H.Krieg, J.Chem.Phys., 132, (2010), 154104 
   

XCFun DFT library Copyright 2009-2010 Ulf Ekstrom and contributors.
See http://admol.org/xcfun for more information.
This is free software; see the source code for copying conditions.
There is ABSOLUTELY NO WARRANTY; not even for MERCHANTABILITY or FITNESS FOR A PARTICULAR PURPOSE.
For details see the documentation.
Scientific users of this library should cite U. Ekstrom, L. Visscher, R. Bast, A. J. Thorvaldsen and K. Ruud;
J.Chem.Theor.Comp. 2010, DOI: 10.1021/ct100117s
XCFun Version 0.99 

================================================================================

----- Orbital basis set information -----
Your calculation utilizes the basis: def2-SVPD
   F. Weigend and R. Ahlrichs, Phys. Chem. Chem. Phys. 7, 3297 (2005).
   D. Rappoport and F. Furche, J. Chem. Phys. 133 134105 (2010).

----- AuxJ basis set information -----
Your calculation utilizes the auxiliary basis: def2/J
   F. Weigend, Phys. Chem. Chem. Phys. 8, 1057 (2006).

================================================================================
                                        WARNINGS
                       Please study these warnings very carefully!
================================================================================


WARNING: Minnesota functionals are quite sensitive to the integration grid.
         see SE Wheeler, KN Houk, JCTC 2010, 6, 395,
             N Mardirossian, M Head-Gordon, JCTC 2016, 12, 4303.
         DEFGRID3 seems to be a minimum grid for reliable results with these functionals!
  ===> : Please increase the integration grid!


INFO   : the flag for use of the SHARK integral package has been found!

================================================================================
                                       INPUT FILE
================================================================================
NAME = 28Oct_SVPD_M062X_D8_wb97.com
|  1> !M062X D3Zero RIJCOSX def2-SVPD def2/J TightSCF xyzfile                                                                                         
|  2> 
|  3> *xyzfile 0 1 D8.xyz
|  4> 
|  5> %MaxCore 64000
|  6> 
|  7> %pal nprocs 4                                                                                                                                                  
|  8> end  
|  9> 
| 10> %scf
| 11>   MaxIter 150
| 12> end
| 13> 
| 14> 
| 15>                          ****END OF INPUT****
================================================================================

                       ****************************
                       * Single Point Calculation *
                       ****************************

---------------------------------
CARTESIAN COORDINATES (ANGSTROEM)
---------------------------------
  C      3.380928    2.083045   -3.350127
  N      4.535924    1.182447   -3.428518
  C      2.495557    1.816150   -2.136364
  C      1.872181    0.427903   -2.077497
  H      2.614270   -0.365825   -2.198894
  H      1.389953    0.273087   -1.112360
  S      0.579024    0.140472   -3.297943
  C      4.671956    0.122273   -4.220598
  C      5.866023   -0.507849   -4.224284
  N      3.698881   -0.312844   -4.986988
  H      2.731405   -0.050091   -4.849000
  H      3.890046   -1.055172   -5.643730
  H      5.251933    1.303459   -2.721014
  H      6.695165   -0.062322   -3.851596
  H      5.975383   -1.396884   -4.691414
  O      0.228860   -1.246868   -3.127871
  O     -0.439269    1.118966   -3.014550
  F      1.247881    0.403474   -4.595647
  H      1.697003    2.561969   -2.141109
  H      3.080787    1.987436   -1.225838
  H      2.806463    1.986511   -4.268484
  H      3.778714    3.098282   -3.307383

----------------------------
CARTESIAN COORDINATES (A.U.)
----------------------------
  NO LB      ZA    FRAG     MASS         X           Y           Z
   0 C     6.0000    0    12.011    6.389028    3.936384   -6.330822
   1 N     7.0000    0    14.007    8.571653    2.234501   -6.478960
   2 C     6.0000    0    12.011    4.715920    3.432025   -4.037143
   3 C     6.0000    0    12.011    3.537909    0.808619   -3.925901
   4 H     1.0000    0     1.008    4.940255   -0.691309   -4.155307
   5 H     1.0000    0     1.008    2.626630    0.516060   -2.102056
   6 S    16.0000    0    32.060    1.094197    0.265454   -6.232209
   7 C     6.0000    0    12.011    8.828718    0.231062   -7.975775
   8 C     6.0000    0    12.011   11.085178   -0.959696   -7.982739
   9 N     7.0000    0    14.007    6.989872   -0.591189   -9.424042
  10 H     1.0000    0     1.008    5.161608   -0.094658   -9.163282
  11 H     1.0000    0     1.008    7.351122   -1.993986  -10.665104
  12 H     1.0000    0     1.008    9.924714    2.463181   -5.141971
  13 H     1.0000    0     1.008   12.652028   -0.117771   -7.278462
  14 H     1.0000    0     1.008   11.291838   -2.639728   -8.865488
  15 O     8.0000    0    15.999    0.432483   -2.356238   -5.910819
  16 O     8.0000    0    15.999   -0.830098    2.114540   -5.696673
  17 F     9.0000    0    18.998    2.358154    0.762455   -8.684514
  18 H     1.0000    0     1.008    3.206871    4.841420   -4.046109
  19 H     1.0000    0     1.008    5.821845    3.755709   -2.316498
  20 H     1.0000    0     1.008    5.303447    3.753961   -8.066266
  21 H     1.0000    0     1.008    7.140735    5.854904   -6.250048

--------------------------------
INTERNAL COORDINATES (ANGSTROEM)
--------------------------------
 C      0   0   0     0.000000000000     0.00000000     0.00000000
 N      1   0   0     1.466709159152     0.00000000     0.00000000
 C      1   2   0     1.525887598611   113.08106121     0.00000000
 C      3   1   2     1.522922426714   115.32150160   298.98779578
 H      4   3   1     1.093360976858   112.31147686    51.76616417
 H      4   3   1     1.089954594431   110.16986842   171.17309744
 S      4   3   1     1.801210303623   114.40266140   289.23510751
 C      2   1   3     1.330363150639   126.98915710   102.39030975
 C      8   2   1     1.350134350047   117.64436639   174.24681917
 N      8   2   1     1.312842464079   122.40463695   354.61440396
 H     10   8   2     1.011972738098   122.88487069   342.67118838
 H     10   8   2     1.009408202469   118.89300887   173.11229738
 H      2   1   3     1.013841643828   116.45871694   291.29563037
 H      9   8   2     1.012356698497   121.19473046   343.47581302
 H      9   8   2     1.010224236058   120.51235872   170.23230527
 O      7   4   3     1.440920179428   104.36732947   175.27794104
 O      7   4   3     1.440376003423   105.41678409   299.48536641
 F      7   4   3     1.483433803163   103.93008595    57.15043279
 H      3   1   2     1.092683852872   107.52997589   177.35677273
 H      3   1   2     1.095851861430   108.88782929    62.11677368
 H      1   2   3     1.087524204377   108.44120771   237.12593655
 H      1   2   3     1.091223184114   106.63672387   121.10258644

---------------------------
INTERNAL COORDINATES (A.U.)
---------------------------
 C      0   0   0     0.000000000000     0.00000000     0.00000000
 N      1   0   0     2.771678628911     0.00000000     0.00000000
 C      1   2   0     2.883509672521   113.08106121     0.00000000
 C      3   1   2     2.877906309695   115.32150160   298.98779578
 H      4   3   1     2.066152811778   112.31147686    51.76616417
 H      4   3   1     2.059715681884   110.16986842   171.17309744
 S      4   3   1     3.403794183444   114.40266140   289.23510751
 C      2   1   3     2.514022013368   126.98915710   102.39030975
 C      8   2   1     2.551384165588   117.64436639   174.24681917
 N      8   2   1     2.480912714091   122.40463695   354.61440396
 H     10   8   2     1.912351330000   122.88487069   342.67118838
 H     10   8   2     1.907505060000   118.89300887   173.11229738
 H      2   1   3     1.915883050000   116.45871694   291.29563037
 H      9   8   2     1.913076910000   121.19473046   343.47581302
 H      9   8   2     1.909047140000   120.51235872   170.23230527
 O      7   4   3     2.722944519960   104.36732947   175.27794104
 O      7   4   3     2.721916176342   105.41678409   299.48536641
 F      7   4   3     2.803283625779   103.93008595    57.15043279
 H      3   1   2     2.064873232886   107.52997589   177.35677273
 H      3   1   2     2.070859901451   108.88782929    62.11677368
 H      1   2   3     2.055122910283   108.44120771   237.12593655
 H      1   2   3     2.062112968961   106.63672387   121.10258644

---------------------
BASIS SET INFORMATION
---------------------
There are 6 groups of distinct atoms

 Group   1 Type C   : 8s4p2d contracted to 4s2p2d pattern {5111/31/11}
 Group   2 Type N   : 8s4p2d contracted to 4s2p2d pattern {5111/31/11}
 Group   3 Type H   : 4s2p contracted to 2s2p pattern {31/11}
 Group   4 Type S   : 11s8p2d contracted to 5s4p2d pattern {53111/5111/11}
 Group   5 Type O   : 8s5p2d contracted to 4s3p2d pattern {5111/311/11}
 Group   6 Type F   : 8s5p2d contracted to 4s3p2d pattern {5111/311/11}

Atom   0C    basis set group =>   1
Atom   1N    basis set group =>   2
Atom   2C    basis set group =>   1
Atom   3C    basis set group =>   1
Atom   4H    basis set group =>   3
Atom   5H    basis set group =>   3
Atom   6S    basis set group =>   4
Atom   7C    basis set group =>   1
Atom   8C    basis set group =>   1
Atom   9N    basis set group =>   2
Atom  10H    basis set group =>   3
Atom  11H    basis set group =>   3
Atom  12H    basis set group =>   3
Atom  13H    basis set group =>   3
Atom  14H    basis set group =>   3
Atom  15O    basis set group =>   5
Atom  16O    basis set group =>   5
Atom  17F    basis set group =>   6
Atom  18H    basis set group =>   3
Atom  19H    basis set group =>   3
Atom  20H    basis set group =>   3
Atom  21H    basis set group =>   3
---------------------------------
AUXILIARY/J BASIS SET INFORMATION
---------------------------------
There are 6 groups of distinct atoms

 Group   1 Type C   : 12s5p4d2f1g contracted to 6s4p3d1f1g pattern {711111/2111/211/2/1}
 Group   2 Type N   : 12s5p4d2f1g contracted to 6s4p3d1f1g pattern {711111/2111/211/2/1}
 Group   3 Type H   : 5s2p1d contracted to 3s1p1d pattern {311/2/1}
 Group   4 Type S   : 14s5p5d2f1g contracted to 8s4p3d1f1g pattern {71111111/2111/311/2/1}
 Group   5 Type O   : 12s5p4d2f1g contracted to 6s4p3d1f1g pattern {711111/2111/211/2/1}
 Group   6 Type F   : 12s5p4d2f1g contracted to 6s4p3d1f1g pattern {711111/2111/211/2/1}

Atom   0C    basis set group =>   1
Atom   1N    basis set group =>   2
Atom   2C    basis set group =>   1
Atom   3C    basis set group =>   1
Atom   4H    basis set group =>   3
Atom   5H    basis set group =>   3
Atom   6S    basis set group =>   4
Atom   7C    basis set group =>   1
Atom   8C    basis set group =>   1
Atom   9N    basis set group =>   2
Atom  10H    basis set group =>   3
Atom  11H    basis set group =>   3
Atom  12H    basis set group =>   3
Atom  13H    basis set group =>   3
Atom  14H    basis set group =>   3
Atom  15O    basis set group =>   5
Atom  16O    basis set group =>   5
Atom  17F    basis set group =>   6
Atom  18H    basis set group =>   3
Atom  19H    basis set group =>   3
Atom  20H    basis set group =>   3
Atom  21H    basis set group =>   3


           ************************************************************
           *        Program running with 4 parallel MPI-processes     *
           *              working on a common directory               *
           ************************************************************
------------------------------------------------------------------------------
                           ORCA GTO INTEGRAL CALCULATION
                           -- RI-GTO INTEGRALS CHOSEN --
------------------------------------------------------------------------------
------------------------------------------------------------------------------
                   ___                                                        
                  /   \      - P O W E R E D   B Y -                         
                 /     \                                                     
                 |  |  |   _    _      __       _____    __    __             
                 |  |  |  | |  | |    /  \     |  _  \  |  |  /  |          
                  \  \/   | |  | |   /    \    | | | |  |  | /  /          
                 / \  \   | |__| |  /  /\  \   | |_| |  |  |/  /          
                |  |  |   |  __  | /  /__\  \  |    /   |      \           
                |  |  |   | |  | | |   __   |  |    \   |  |\   \          
                \     /   | |  | | |  |  |  |  | |\  \  |  | \   \       
                 \___/    |_|  |_| |__|  |__|  |_| \__\ |__|  \__/        
                                                                              
                      - O R C A' S   B I G   F R I E N D -                    
                                      &                                       
                       - I N T E G R A L  F E E D E R -                       
                                                                              
 v1 FN, 2020, v2 2021                                                         
------------------------------------------------------------------------------


Reading SHARK input file 28Oct_SVPD_M062X_D8_wb97.SHARKINP.tmp ... ok
----------------------
SHARK INTEGRAL PACKAGE
----------------------

Number of atoms                             ...     22
Number of basis functions                   ...    324
Number of shells                            ...    138
Maximum angular momentum                    ...      2
Integral batch strategy                     ... SHARK/LIBINT Hybrid
RI-J (if used) integral strategy            ... SPLIT-RIJ (Revised 2003 algorithm where possible)
Printlevel                                  ...      1
Contraction scheme used                     ... SEGMENTED contraction
Coulomb Range Separation                    ... NOT USED
Exchange Range Separation                   ... NOT USED
Finite Nucleus Model                        ... NOT USED
Auxiliary Coulomb fitting basis             ... AVAILABLE
   # of basis functions in Aux-J            ...    662
   # of shells in Aux-J                     ...    222
   Maximum angular momentum in Aux-J        ...      4
Auxiliary J/K fitting basis                 ... NOT available
Auxiliary Correlation fitting basis         ... NOT available
Auxiliary 'external' fitting basis          ... NOT available
Integral threshold                          ...     2.500000e-11
Primitive cut-off                           ...     2.500000e-12
Primitive pair pre-selection threshold      ...     2.500000e-12

Calculating pre-screening integrals         ... done (  0.1 sec) Dimension = 138
Organizing shell pair data                  ... done (  0.1 sec)
Shell pair information
Total number of shell pairs                 ...      9591
Shell pairs after pre-screening             ...      9056
Total number of primitive shell pairs       ...     26751
Primitive shell pairs kept                  ...     19630
          la=0 lb=0:   2120 shell pairs
          la=1 lb=0:   3099 shell pairs
          la=1 lb=1:   1173 shell pairs
          la=2 lb=0:   1391 shell pairs
          la=2 lb=1:   1030 shell pairs
          la=2 lb=2:    243 shell pairs

Calculating one electron integrals          ... done (  0.0 sec)
Calculating RI/J V-Matrix + Cholesky decomp.... done (  0.0 sec)
Calculating Nuclear repulsion               ... done (  0.0 sec) ENN=    836.709916361276 Eh

SHARK setup successfully completed in   0.3 seconds

Maximum memory used throughout the entire GTOINT-calculation: 15.7 MB


           ************************************************************
           *        Program running with 4 parallel MPI-processes     *
           *              working on a common directory               *
           ************************************************************
-------------------------------------------------------------------------------
                                 ORCA SCF
-------------------------------------------------------------------------------

------------
SCF SETTINGS
------------
Hamiltonian:
 Density Functional     Method          .... DFT(GTOs)
 Exchange Functional    Exchange        .... M062X
 Correlation Functional Correlation     .... M062X
 Gradients option       PostSCFGGA      .... off
 Hybrid DFT is turned on
   Fraction HF Exchange ScalHFX         ....  0.540000
   Scaling of DF-GGA-X  ScalDFX         ....  0.460000
   Scaling of DF-GGA-C  ScalDFC         ....  1.000000
   Scaling of DF-LDA-C  ScalLDAC        ....  1.000000
   Perturbative correction              ....  0.000000
   Density functional embedding theory  .... OFF
 RI-approximation to the Coulomb term is turned on
   Number of AuxJ basis functions       .... 662
   RIJ-COSX (HFX calculated with COS-X)).... on


General Settings:
 Integral files         IntName         .... 28Oct_SVPD_M062X_D8_wb97
 Hartree-Fock type      HFTyp           .... RHF
 Total Charge           Charge          ....    0
 Multiplicity           Mult            ....    1
 Number of Electrons    NEL             ....   96
 Basis Dimension        Dim             ....  324
 Nuclear Repulsion      ENuc            ....    836.7099163613 Eh

Convergence Acceleration:
 DIIS                   CNVDIIS         .... on
   Start iteration      DIISMaxIt       ....    12
   Startup error        DIISStart       ....  0.200000
   # of expansion vecs  DIISMaxEq       ....     5
   Bias factor          DIISBfac        ....   1.050
   Max. coefficient     DIISMaxC        ....  10.000
 Trust-Rad. Augm. Hess. CNVTRAH         .... auto
   Auto Start mean grad. ratio tolernc. ....  1.125000
   Auto Start start iteration           ....    20
   Auto Start num. interpolation iter.  ....    10
   Max. Number of Micro iterations      ....    16
   Max. Number of Macro iterations      .... Maxiter - #DIIS iter
   Number of Davidson start vectors     ....     2
   Converg. threshold I  (grad. norm)   ....   1.000e-05
   Converg. threshold II (energy diff.) ....   1.000e-08
   Grad. Scal. Fac. for Micro threshold ....   0.100
   Minimum threshold for Micro iter.    ....   0.010
   NR start threshold (gradient norm)   ....   0.001
   Initial trust radius                 ....   0.400
   Minimum AH scaling param. (alpha)    ....   1.000
   Maximum AH scaling param. (alpha)    .... 1000.000
   Orbital update algorithm             .... Taylor
   White noise on init. David. guess    .... on
   Maximum white noise                  ....   0.010
   Quad. conv. algorithm                .... NR
 SOSCF                  CNVSOSCF        .... on
   Start iteration      SOSCFMaxIt      ....   150
   Startup grad/error   SOSCFStart      ....  0.003300
 Level Shifting         CNVShift        .... on
   Level shift para.    LevelShift      ....    0.2500
   Turn off err/grad.   ShiftErr        ....    0.0010
 Zerner damping         CNVZerner       .... off
 Static damping         CNVDamp         .... on
   Fraction old density DampFac         ....    0.7000
   Max. Damping (<1)    DampMax         ....    0.9800
   Min. Damping (>=0)   DampMin         ....    0.0000
   Turn off err/grad.   DampErr         ....    0.1000
 Fernandez-Rico         CNVRico         .... off

SCF Procedure:
 Maximum # iterations   MaxIter         ....   150
 SCF integral mode      SCFMode         .... Direct
   Integral package                     .... SHARK and LIBINT hybrid scheme
 Reset frequency        DirectResetFreq ....    20
 Integral Threshold     Thresh          ....  2.500e-11 Eh
 Primitive CutOff       TCut            ....  2.500e-12 Eh

Convergence Tolerance:
 Convergence Check Mode ConvCheckMode   .... Total+1el-Energy
 Convergence forced     ConvForced      .... 0
 Energy Change          TolE            ....  1.000e-08 Eh
 1-El. energy change                    ....  1.000e-05 Eh
 Orbital Gradient       TolG            ....  1.000e-05
 Orbital Rotation angle TolX            ....  1.000e-05
 DIIS Error             TolErr          ....  5.000e-07


Diagonalization of the overlap matrix:
Smallest eigenvalue                        ... 3.831e-05
Time for diagonalization                   ...    0.027 sec
Threshold for overlap eigenvalues          ... 1.000e-08
Number of eigenvalues below threshold      ... 0
Time for construction of square roots      ...    0.017 sec
Total time needed                          ...    0.046 sec

Time for model grid setup =    0.223 sec

------------------------------
INITIAL GUESS: MODEL POTENTIAL
------------------------------
Loading Hartree-Fock densities                     ... done
Calculating cut-offs                               ... done
Initializing the effective Hamiltonian             ... done
Setting up the integral package (SHARK)            ... done
Starting the Coulomb interaction                   ... done (   0.2 sec)
Reading the grid                                   ... done
Mapping shells                                     ... done
Starting the XC term evaluation                    ... done (   0.3 sec)
  promolecular density results
     # of electrons  =     95.995500073
     EX              =    -93.371416546
     EC              =     -3.356946827
     EX+EC           =    -96.728363373
Transforming the Hamiltonian                       ... done (   0.0 sec)
Diagonalizing the Hamiltonian                      ... done (   0.0 sec)
Back transforming the eigenvectors                 ... done (   0.0 sec)
Now organizing SCF variables                       ... done
                      ------------------
                      INITIAL GUESS DONE (   0.7 sec)
                      ------------------
-------------------
DFT GRID GENERATION
-------------------

General Integration Accuracy     IntAcc      ... 4.388
Radial Grid Type                 RadialGrid  ... OptM3 with GC (2021)
Angular Grid (max. ang.)         AngularGrid ... 4 (Lebedev-302)
Angular grid pruning method      GridPruning ... 4 (adaptive)
Weight generation scheme         WeightScheme... Becke
Basis function cutoff            BFCut       ... 1.0000e-11
Integration weight cutoff        WCut        ... 1.0000e-14
Angular grids for H and He will be reduced by one unit
Partially contracted basis set               ... off
Rotationally invariant grid construction     ... off

Total number of grid points                  ...   105606
Total number of batches                      ...     1660
Average number of points per batch           ...       63
Average number of grid points per atom       ...     4800
Time for grid setup =    0.842 sec

--------------------
COSX GRID GENERATION
--------------------

GRIDX 1
-------
General Integration Accuracy     IntAcc      ... 3.816
Radial Grid Type                 RadialGrid  ... OptM3 with GC (2021)
Angular Grid (max. ang.)         AngularGrid ... 1 (Lebedev-50)
Angular grid pruning method      GridPruning ... 4 (adaptive)
Weight generation scheme         WeightScheme... Becke
Basis function cutoff            BFCut       ... 1.0000e-11
Integration weight cutoff        WCut        ... 1.0000e-14
Angular grids for H and He will be reduced by one unit
Partially contracted basis set               ... on
Rotationally invariant grid construction     ... off

Total number of grid points                  ...    13128
Total number of batches                      ...      217
Average number of points per batch           ...       60
Average number of grid points per atom       ...      597
UseSFitting                                  ... on

GRIDX 2
-------
General Integration Accuracy     IntAcc      ... 4.020
Radial Grid Type                 RadialGrid  ... OptM3 with GC (2021)
Angular Grid (max. ang.)         AngularGrid ... 2 (Lebedev-110)
Angular grid pruning method      GridPruning ... 4 (adaptive)
Weight generation scheme         WeightScheme... Becke
Basis function cutoff            BFCut       ... 1.0000e-11
Integration weight cutoff        WCut        ... 1.0000e-14
Angular grids for H and He will be reduced by one unit
Partially contracted basis set               ... on
Rotationally invariant grid construction     ... off

Total number of grid points                  ...    30018
Total number of batches                      ...      481
Average number of points per batch           ...       62
Average number of grid points per atom       ...     1364
UseSFitting                                  ... on

GRIDX 3
-------
General Integration Accuracy     IntAcc      ... 4.338
Radial Grid Type                 RadialGrid  ... OptM3 with GC (2021)
Angular Grid (max. ang.)         AngularGrid ... 3 (Lebedev-194)
Angular grid pruning method      GridPruning ... 4 (adaptive)
Weight generation scheme         WeightScheme... Becke
Basis function cutoff            BFCut       ... 1.0000e-11
Integration weight cutoff        WCut        ... 1.0000e-14
Angular grids for H and He will be reduced by one unit
Partially contracted basis set               ... on
Rotationally invariant grid construction     ... off

Total number of grid points                  ...    67861
Total number of batches                      ...     1071
Average number of points per batch           ...       63
Average number of grid points per atom       ...     3085
UseSFitting                                  ... on

Time for X-Grid setup             =    1.001 sec

--------------
SCF ITERATIONS
--------------
ITER       Energy         Delta-E        Max-DP      RMS-DP      [F,P]     Damp
               ***  Starting incremental Fock matrix formation  ***
  0   -953.7217331548   0.000000000000 0.16840362  0.00290577  0.2705569 0.7000
  1   -953.9635484019  -0.241815247130 0.13057935  0.00199633  0.1404690 0.7000
                               ***Turning on DIIS***
  2   -954.0636114426  -0.100063040615 0.30099871  0.00376682  0.0650708 0.0000
  3   -954.2245539137  -0.160942471163 0.08182283  0.00128311  0.0656666 0.0000
  4   -954.2556542062  -0.031100292476 0.01964794  0.00038005  0.0141131 0.0000
  5   -954.2569039998  -0.001249793582 0.00831180  0.00014806  0.0058294 0.0000
                      *** Initiating the SOSCF procedure ***
                           *** Shutting down DIIS ***
                      *** Re-Reading the Fockian *** 
                      *** Removing any level shift *** 
ITER      Energy       Delta-E        Grad      Rot      Max-DP    RMS-DP
  6   -954.25704663  -0.0001426286  0.000298  0.000298  0.008402  0.000107
               *** Restarting incremental Fock matrix formation ***
  7   -954.25678504   0.0002615859  0.000110  0.000270  0.003813  0.000116
  8   -954.25678742  -0.0000023814  0.000099  0.000253  0.001521  0.000034
  9   -954.25678842  -0.0000009947  0.000024  0.000032  0.000690  0.000021
 10   -954.25678849  -0.0000000706  0.000014  0.000021  0.000158  0.000005
 11   -954.25678854  -0.0000000460  0.000005  0.000013  0.000134  0.000003
 12   -954.25678853   0.0000000020  0.000003  0.000002  0.000021  0.000000
                  ***Gradient check signals convergence***
              ***Rediagonalizing the Fockian in SOSCF/NRSCF***

               *****************************************************
               *                     SUCCESS                       *
               *           SCF CONVERGED AFTER  13 CYCLES          *
               *****************************************************

Old exchange energy                            =    -51.161117378 Eh
New exchange energy                            =    -51.161098979 Eh
Exchange energy change after final integration =      0.000018398 Eh
Total energy after final integration           =   -954.256770127 Eh
Final COS-X integration done in                =    12.905 sec

----------------
TOTAL SCF ENERGY
----------------

Total Energy       :         -954.25677013 Eh          -25966.64683 eV

Components:
Nuclear Repulsion  :          836.70991636 Eh           22768.03433 eV
Electronic Energy  :        -1790.96668649 Eh          -48734.68116 eV
One Electron Energy:        -2968.70211103 Eh          -80782.49134 eV
Two Electron Energy:         1177.73542454 Eh           32047.81018 eV
Max COSX asymmetry :            0.00001908 Eh               0.00052 eV

Virial components:
Potential Energy   :        -1903.13275972 Eh          -51786.87519 eV
Kinetic Energy     :          948.87598959 Eh           25820.22835 eV
Virial Ratio       :            2.00567069


DFT components:
N(Alpha)           :       48.000146765810 electrons
N(Beta)            :       48.000146765810 electrons
N(Total)           :       96.000293531620 electrons
E(XC)              :      -47.222704564258 Eh       
DFET-embed. en.    :        0.000000000000 Eh       

---------------
SCF CONVERGENCE
---------------

  Last Energy change         ...    7.9717e-09  Tolerance :   1.0000e-08
  Last MAX-Density change    ...    4.8850e-15  Tolerance :   1.0000e-07
  Last RMS-Density change    ...    4.4426e-17  Tolerance :   5.0000e-09
  Last Orbital Gradient      ...    6.3541e-07  Tolerance :   1.0000e-05
  Last Orbital Rotation      ...    9.1218e-07  Tolerance :   1.0000e-05

             **** THE GBW FILE WAS UPDATED (28Oct_SVPD_M062X_D8_wb97.gbw) ****
             **** DENSITY 28Oct_SVPD_M062X_D8_wb97.scfp WAS UPDATED ****
             **** ENERGY FILE WAS UPDATED (28Oct_SVPD_M062X_D8_wb97.en.tmp) ****
             **** THE GBW FILE WAS UPDATED (28Oct_SVPD_M062X_D8_wb97.gbw) ****
             **** DENSITY 28Oct_SVPD_M062X_D8_wb97.scfp WAS UPDATED ****
----------------
ORBITAL ENERGIES
----------------

  NO   OCC          E(Eh)            E(eV) 
   0   2.0000     -90.212071     -2454.7953 
   1   2.0000     -25.388241      -690.8491 
   2   2.0000     -19.669535      -535.2353 
   3   2.0000     -19.668571      -535.2090 
   4   2.0000     -14.777446      -402.1147 
   5   2.0000     -14.766060      -401.8049 
   6   2.0000     -10.621315      -289.0207 
   7   2.0000     -10.612489      -288.7805 
   8   2.0000     -10.609853      -288.7088 
   9   2.0000     -10.591420      -288.2072 
  10   2.0000     -10.468901      -284.8733 
  11   2.0000      -8.536031      -232.2772 
  12   2.0000      -6.464629      -175.9115 
  13   2.0000      -6.459213      -175.7641 
  14   2.0000      -6.458015      -175.7315 
  15   2.0000      -1.515753       -41.2457 
  16   2.0000      -1.255736       -34.1703 
  17   2.0000      -1.155563       -31.4445 
  18   2.0000      -1.082275       -29.4502 
  19   2.0000      -0.995621       -27.0922 
  20   2.0000      -0.933865       -25.4118 
  21   2.0000      -0.868436       -23.6313 
  22   2.0000      -0.821864       -22.3641 
  23   2.0000      -0.792032       -21.5523 
  24   2.0000      -0.731986       -19.9184 
  25   2.0000      -0.706604       -19.2277 
  26   2.0000      -0.698325       -19.0024 
  27   2.0000      -0.687487       -18.7075 
  28   2.0000      -0.650198       -17.6928 
  29   2.0000      -0.617632       -16.8066 
  30   2.0000      -0.596267       -16.2253 
  31   2.0000      -0.573021       -15.5927 
  32   2.0000      -0.569354       -15.4929 
  33   2.0000      -0.562551       -15.3078 
  34   2.0000      -0.550327       -14.9752 
  35   2.0000      -0.533003       -14.5037 
  36   2.0000      -0.502816       -13.6823 
  37   2.0000      -0.482583       -13.1317 
  38   2.0000      -0.478021       -13.0076 
  39   2.0000      -0.462408       -12.5828 
  40   2.0000      -0.456148       -12.4124 
  41   2.0000      -0.446664       -12.1544 
  42   2.0000      -0.431093       -11.7306 
  43   2.0000      -0.428804       -11.6683 
  44   2.0000      -0.412702       -11.2302 
  45   2.0000      -0.405803       -11.0425 
  46   2.0000      -0.329922        -8.9776 
  47   2.0000      -0.219427        -5.9709 
  48   0.0000       0.010081         0.2743 
  49   0.0000       0.025440         0.6923 
  50   0.0000       0.034292         0.9331 
  51   0.0000       0.036485         0.9928 
  52   0.0000       0.057661         1.5690 
  53   0.0000       0.062261         1.6942 
  54   0.0000       0.069763         1.8984 
  55   0.0000       0.072936         1.9847 
  56   0.0000       0.075853         2.0641 
  57   0.0000       0.087728         2.3872 
  58   0.0000       0.091238         2.4827 
  59   0.0000       0.103176         2.8076 
  60   0.0000       0.104300         2.8381 
  61   0.0000       0.111819         3.0428 
  62   0.0000       0.114312         3.1106 
  63   0.0000       0.125717         3.4209 
  64   0.0000       0.128192         3.4883 
  65   0.0000       0.130848         3.5606 
  66   0.0000       0.150922         4.1068 
  67   0.0000       0.152562         4.1514 
  68   0.0000       0.158194         4.3047 
  69   0.0000       0.163811         4.4575 
  70   0.0000       0.172722         4.7000 
  71   0.0000       0.176950         4.8151 
  72   0.0000       0.182328         4.9614 
  73   0.0000       0.188005         5.1159 
  74   0.0000       0.188968         5.1421 
  75   0.0000       0.202719         5.5163 
  76   0.0000       0.209290         5.6951 
  77   0.0000       0.214703         5.8424 
  78   0.0000       0.221183         6.0187 
  79   0.0000       0.226750         6.1702 
  80   0.0000       0.230270         6.2660 
  81   0.0000       0.234341         6.3767 
  82   0.0000       0.243575         6.6280 
  83   0.0000       0.248476         6.7614 
  84   0.0000       0.259270         7.0551 
  85   0.0000       0.264513         7.1978 
  86   0.0000       0.268016         7.2931 
  87   0.0000       0.276546         7.5252 
  88   0.0000       0.284346         7.7374 
  89   0.0000       0.286300         7.7906 
  90   0.0000       0.291734         7.9385 
  91   0.0000       0.295112         8.0304 
  92   0.0000       0.303788         8.2665 
  93   0.0000       0.309893         8.4326 
  94   0.0000       0.314394         8.5551 
  95   0.0000       0.316053         8.6002 
  96   0.0000       0.324571         8.8320 
  97   0.0000       0.332641         9.0516 
  98   0.0000       0.336468         9.1558 
  99   0.0000       0.341048         9.2804 
 100   0.0000       0.346149         9.4192 
 101   0.0000       0.348894         9.4939 
 102   0.0000       0.357417         9.7258 
 103   0.0000       0.364046         9.9062 
 104   0.0000       0.369409        10.0521 
 105   0.0000       0.375106        10.2072 
 106   0.0000       0.375773        10.2253 
 107   0.0000       0.379761        10.3338 
 108   0.0000       0.388274        10.5655 
 109   0.0000       0.397033        10.8038 
 110   0.0000       0.401121        10.9150 
 111   0.0000       0.403804        10.9881 
 112   0.0000       0.412036        11.2121 
 113   0.0000       0.423592        11.5265 
 114   0.0000       0.429840        11.6965 
 115   0.0000       0.435756        11.8575 
 116   0.0000       0.437529        11.9058 
 117   0.0000       0.446783        12.1576 
 118   0.0000       0.449112        12.2210 
 119   0.0000       0.453401        12.3377 
 120   0.0000       0.460193        12.5225 
 121   0.0000       0.468369        12.7450 
 122   0.0000       0.471520        12.8307 
 123   0.0000       0.478628        13.0241 
 124   0.0000       0.482190        13.1210 
 125   0.0000       0.485752        13.2180 
 126   0.0000       0.491436        13.3727 
 127   0.0000       0.498778        13.5725 
 128   0.0000       0.503609        13.7039 
 129   0.0000       0.511506        13.9188 
 130   0.0000       0.513763        13.9802 
 131   0.0000       0.522378        14.2146 
 132   0.0000       0.527217        14.3463 
 133   0.0000       0.530017        14.4225 
 134   0.0000       0.534673        14.5492 
 135   0.0000       0.537193        14.6178 
 136   0.0000       0.547593        14.9008 
 137   0.0000       0.558788        15.2054 
 138   0.0000       0.560799        15.2601 
 139   0.0000       0.565421        15.3859 
 140   0.0000       0.572707        15.5841 
 141   0.0000       0.580397        15.7934 
 142   0.0000       0.590459        16.0672 
 143   0.0000       0.591271        16.0893 
 144   0.0000       0.600778        16.3480 
 145   0.0000       0.604542        16.4504 
 146   0.0000       0.613368        16.6906 
 147   0.0000       0.621810        16.9203 
 148   0.0000       0.628859        17.1121 
 149   0.0000       0.641099        17.4452 
 150   0.0000       0.649487        17.6734 
 151   0.0000       0.656615        17.8674 
 152   0.0000       0.660904        17.9841 
 153   0.0000       0.673092        18.3158 
 154   0.0000       0.680117        18.5069 
 155   0.0000       0.684329        18.6215 
 156   0.0000       0.691432        18.8148 
 157   0.0000       0.698387        19.0041 
 158   0.0000       0.701082        19.0774 
 159   0.0000       0.706912        19.2361 
 160   0.0000       0.717652        19.5283 
 161   0.0000       0.732954        19.9447 
 162   0.0000       0.742824        20.2133 
 163   0.0000       0.751690        20.4545 
 164   0.0000       0.757897        20.6234 
 165   0.0000       0.768779        20.9195 
 166   0.0000       0.782392        21.2900 
 167   0.0000       0.786213        21.3939 
 168   0.0000       0.792140        21.5552 
 169   0.0000       0.802409        21.8346 
 170   0.0000       0.815364        22.1872 
 171   0.0000       0.825099        22.4521 
 172   0.0000       0.834987        22.7211 
 173   0.0000       0.845301        23.0018 
 174   0.0000       0.856799        23.3147 
 175   0.0000       0.867010        23.5925 
 176   0.0000       0.874457        23.7952 
 177   0.0000       0.885468        24.0948 
 178   0.0000       0.887957        24.1625 
 179   0.0000       0.910730        24.7822 
 180   0.0000       0.941996        25.6330 
 181   0.0000       0.965789        26.2805 
 182   0.0000       0.984057        26.7775 
 183   0.0000       0.989104        26.9149 
 184   0.0000       0.996403        27.1135 
 185   0.0000       1.010551        27.4985 
 186   0.0000       1.020871        27.7793 
 187   0.0000       1.033161        28.1137 
 188   0.0000       1.038211        28.2511 
 189   0.0000       1.052721        28.6460 
 190   0.0000       1.067704        29.0537 
 191   0.0000       1.068600        29.0781 
 192   0.0000       1.073558        29.2130 
 193   0.0000       1.089165        29.6377 
 194   0.0000       1.099626        29.9224 
 195   0.0000       1.107135        30.1267 
 196   0.0000       1.124299        30.5937 
 197   0.0000       1.134783        30.8790 
 198   0.0000       1.152666        31.3656 
 199   0.0000       1.157464        31.4962 
 200   0.0000       1.175713        31.9928 
 201   0.0000       1.183985        32.2179 
 202   0.0000       1.200019        32.6542 
 203   0.0000       1.205510        32.8036 
 204   0.0000       1.226075        33.3632 
 205   0.0000       1.229000        33.4428 
 206   0.0000       1.241641        33.7868 
 207   0.0000       1.272229        34.6191 
 208   0.0000       1.277311        34.7574 
 209   0.0000       1.280198        34.8360 
 210   0.0000       1.319315        35.9004 
 211   0.0000       1.326367        36.0923 
 212   0.0000       1.328589        36.1527 
 213   0.0000       1.354135        36.8479 
 214   0.0000       1.358728        36.9729 
 215   0.0000       1.392785        37.8996 
 216   0.0000       1.405529        38.2464 
 217   0.0000       1.421423        38.6789 
 218   0.0000       1.438042        39.1311 
 219   0.0000       1.472866        40.0787 
 220   0.0000       1.484248        40.3884 
 221   0.0000       1.523221        41.4490 
 222   0.0000       1.531935        41.6861 
 223   0.0000       1.583883        43.0996 
 224   0.0000       1.608445        43.7680 
 225   0.0000       1.619563        44.0706 
 226   0.0000       1.633273        44.4436 
 227   0.0000       1.653691        44.9992 
 228   0.0000       1.665573        45.3225 
 229   0.0000       1.687664        45.9237 
 230   0.0000       1.694601        46.1124 
 231   0.0000       1.701854        46.3098 
 232   0.0000       1.725420        46.9511 
 233   0.0000       1.742564        47.4176 
 234   0.0000       1.762064        47.9482 
 235   0.0000       1.773548        48.2607 
 236   0.0000       1.804287        49.0971 
 237   0.0000       1.819663        49.5155 
 238   0.0000       1.824590        49.6496 
 239   0.0000       1.850549        50.3560 
 240   0.0000       1.863521        50.7090 
 241   0.0000       1.874412        51.0053 
 242   0.0000       1.887136        51.3516 
 243   0.0000       1.890596        51.4457 
 244   0.0000       1.902411        51.7672 
 245   0.0000       1.905030        51.8385 
 246   0.0000       1.906580        51.8807 
 247   0.0000       1.927811        52.4584 
 248   0.0000       1.943834        52.8944 
 249   0.0000       1.954927        53.1963 
 250   0.0000       1.971507        53.6474 
 251   0.0000       1.982958        53.9590 
 252   0.0000       2.014302        54.8119 
 253   0.0000       2.025448        55.1152 
 254   0.0000       2.034409        55.3591 
 255   0.0000       2.039041        55.4851 
 256   0.0000       2.052642        55.8552 
 257   0.0000       2.057751        55.9943 
 258   0.0000       2.088092        56.8199 
 259   0.0000       2.096675        57.0534 
 260   0.0000       2.111754        57.4637 
 261   0.0000       2.136025        58.1242 
 262   0.0000       2.146702        58.4147 
 263   0.0000       2.158277        58.7297 
 264   0.0000       2.168659        59.0122 
 265   0.0000       2.200263        59.8722 
 266   0.0000       2.206708        60.0476 
 267   0.0000       2.234665        60.8083 
 268   0.0000       2.235230        60.8237 
 269   0.0000       2.267517        61.7023 
 270   0.0000       2.285233        62.1843 
 271   0.0000       2.332210        63.4627 
 272   0.0000       2.350540        63.9615 
 273   0.0000       2.387310        64.9620 
 274   0.0000       2.388210        64.9865 
 275   0.0000       2.421746        65.8990 
 276   0.0000       2.447747        66.6066 
 277   0.0000       2.467403        67.1414 
 278   0.0000       2.478521        67.4440 
 279   0.0000       2.485596        67.6365 
 280   0.0000       2.505053        68.1660 
 281   0.0000       2.551272        69.4236 
 282   0.0000       2.564432        69.7818 
 283   0.0000       2.612562        71.0914 
 284   0.0000       2.628096        71.5141 
 285   0.0000       2.632827        71.6429 
 286   0.0000       2.660011        72.3826 
 287   0.0000       2.672226        72.7150 
 288   0.0000       2.716838        73.9289 
 289   0.0000       2.733727        74.3885 
 290   0.0000       2.783921        75.7543 
 291   0.0000       2.799410        76.1758 
 292   0.0000       2.840112        77.2834 
 293   0.0000       2.892779        78.7165 
 294   0.0000       2.905785        79.0704 
 295   0.0000       2.915148        79.3252 
 296   0.0000       2.929789        79.7236 
 297   0.0000       2.943184        80.0881 
 298   0.0000       2.950876        80.2974 
 299   0.0000       2.958822        80.5136 
 300   0.0000       2.974030        80.9275 
 301   0.0000       3.005724        81.7899 
 302   0.0000       3.024460        82.2997 
 303   0.0000       3.047033        82.9140 
 304   0.0000       3.072843        83.6163 
 305   0.0000       3.088577        84.0445 
 306   0.0000       3.146465        85.6197 
 307   0.0000       3.167335        86.1876 
 308   0.0000       3.187903        86.7473 
 309   0.0000       3.225737        87.7768 
 310   0.0000       3.262548        88.7784 
 311   0.0000       3.268341        88.9361 
 312   0.0000       3.337478        90.8174 
 313   0.0000       3.350461        91.1707 
 314   0.0000       3.380631        91.9916 
 315   0.0000       3.417856        93.0046 
 316   0.0000       3.434815        93.4661 
 317   0.0000       3.450316        93.8879 
 318   0.0000       3.523984        95.8925 
 319   0.0000       3.583078        97.5005 
 320   0.0000       3.632802        98.8536 
 321   0.0000       3.698088       100.6301 
 322   0.0000       3.779125       102.8352 
 323   0.0000       3.886993       105.7705 

                    ********************************
                    * MULLIKEN POPULATION ANALYSIS *
                    ********************************

-----------------------
MULLIKEN ATOMIC CHARGES
-----------------------
   0 C :    0.942282
   1 N :   -0.451717
   2 C :    0.205141
   3 C :    0.175960
   4 H :    0.131335
   5 H :   -0.150917
   6 S :    1.549721
   7 C :    0.715906
   8 C :    0.352374
   9 N :    0.529591
  10 H :   -0.429040
  11 H :   -0.175150
  12 H :   -0.252899
  13 H :   -0.398118
  14 H :   -0.258545
  15 O :   -0.707132
  16 O :   -0.742767
  17 F :   -0.568720
  18 H :    0.014513
  19 H :   -0.040811
  20 H :   -0.091288
  21 H :   -0.349717
Sum of atomic charges:   -0.0000000

--------------------------------
MULLIKEN REDUCED ORBITAL CHARGES
--------------------------------
  0 C s       :     2.607487  s :     2.607487
      pz      :     0.904442  p :     2.398929
      px      :     0.742876
      py      :     0.751611
      dz2     :     0.040444  d :     0.051302
      dxz     :     0.013880
      dyz     :     0.013272
      dx2y2   :    -0.034804
      dxy     :     0.018510
  1 N s       :     3.489560  s :     3.489560
      pz      :     1.295079  p :     3.778388
      px      :     1.213857
      py      :     1.269452
      dz2     :     0.042590  d :     0.183769
      dxz     :     0.010578
      dyz     :     0.022125
      dx2y2   :     0.068414
      dxy     :     0.040061
  2 C s       :     2.722478  s :     2.722478
      pz      :     0.986119  p :     2.718177
      px      :     0.815951
      py      :     0.916107
      dz2     :     0.092688  d :     0.354204
      dxz     :     0.010131
      dyz     :     0.100926
      dx2y2   :     0.041276
      dxy     :     0.109183
  3 C s       :     2.776536  s :     2.776536
      pz      :     0.843230  p :     2.815772
      px      :     0.878772
      py      :     1.093769
      dz2     :    -0.041717  d :     0.231732
      dxz     :     0.030500
      dyz     :     0.077873
      dx2y2   :     0.081927
      dxy     :     0.083150
  4 H s       :     0.829914  s :     0.829914
      pz      :    -0.015161  p :     0.038751
      px      :     0.024526
      py      :     0.029385
  5 H s       :     1.142409  s :     1.142409
      pz      :     0.043124  p :     0.008507
      px      :    -0.023443
      py      :    -0.011173
  6 S s       :     5.000884  s :     5.000884
      pz      :     2.864328  p :     8.645556
      px      :     2.942816
      py      :     2.838412
      dz2     :     0.118347  d :     0.803839
      dxz     :     0.159421
      dyz     :     0.174445
      dx2y2   :     0.183449
      dxy     :     0.168177
  7 C s       :     2.697169  s :     2.697169
      pz      :     0.789323  p :     2.143976
      px      :     0.549817
      py      :     0.804836
      dz2     :     0.027841  d :     0.442948
      dxz     :     0.123908
      dyz     :     0.074699
      dx2y2   :     0.190943
      dxy     :     0.025557
  8 C s       :     3.002146  s :     3.002146
      pz      :     0.974808  p :     2.598926
      px      :     0.876246
      py      :     0.747872
      dz2     :     0.012721  d :     0.046554
      dxz     :     0.005524
      dyz     :    -0.001264
      dx2y2   :     0.027179
      dxy     :     0.002393
  9 N s       :     2.814354  s :     2.814354
      pz      :     1.301927  p :     3.655013
      px      :     1.015871
      py      :     1.337215
      dz2     :     0.012313  d :     0.001042
      dxz     :     0.015098
      dyz     :    -0.023483
      dx2y2   :    -0.007735
      dxy     :     0.004849
 10 H s       :     1.373447  s :     1.373447
      pz      :    -0.031577  p :     0.055594
      px      :     0.061338
      py      :     0.025833
 11 H s       :     1.176366  s :     1.176366
      pz      :     0.028144  p :    -0.001216
      px      :    -0.035684
      py      :     0.006325
 12 H s       :     1.236923  s :     1.236923
      pz      :     0.010521  p :     0.015976
      px      :     0.007116
      py      :    -0.001661
 13 H s       :     1.346483  s :     1.346483
      pz      :     0.025161  p :     0.051635
      px      :     0.028116
      py      :    -0.001641
 14 H s       :     1.217655  s :     1.217655
      pz      :     0.038103  p :     0.040890
      px      :    -0.014112
      py      :     0.016899
 15 O s       :     3.941126  s :     3.941126
      pz      :     1.723020  p :     4.740030
      px      :     1.752023
      py      :     1.264987
      dz2     :     0.001151  d :     0.025977
      dxz     :     0.002513
      dyz     :     0.014285
      dx2y2   :     0.007646
      dxy     :     0.000381
 16 O s       :     3.967122  s :     3.967122
      pz      :     1.699471  p :     4.752818
      px      :     1.502489
      py      :     1.550859
      dz2     :     0.001188  d :     0.022827
      dxz     :     0.005371
      dyz     :     0.008922
      dx2y2   :     0.004973
      dxy     :     0.002372
 17 F s       :     4.034336  s :     4.034336
      pz      :     1.681310  p :     5.532292
      px      :     1.896185
      py      :     1.954797
      dz2     :     0.000623  d :     0.002092
      dxz     :     0.003060
      dyz     :     0.002094
      dx2y2   :    -0.003751
      dxy     :     0.000066
 18 H s       :     0.977861  s :     0.977861
      pz      :    -0.029679  p :     0.007626
      px      :    -0.005044
      py      :     0.042349
 19 H s       :     1.062362  s :     1.062362
      pz      :     0.041310  p :    -0.021551
      px      :    -0.032308
      py      :    -0.030554
 20 H s       :     1.068258  s :     1.068258
      pz      :     0.024766  p :     0.023030
      px      :     0.012261
      py      :    -0.013997
 21 H s       :     1.339707  s :     1.339707
      pz      :    -0.040188  p :     0.010010
      px      :     0.024090
      py      :     0.026108


                     *******************************
                     * LOEWDIN POPULATION ANALYSIS *
                     *******************************

----------------------
LOEWDIN ATOMIC CHARGES
----------------------
   0 C :    0.075353
   1 N :   -0.015913
   2 C :   -0.021827
   3 C :   -0.028697
   4 H :    0.025830
   5 H :    0.035790
   6 S :    1.161350
   7 C :   -0.234052
   8 C :    0.150399
   9 N :    0.220377
  10 H :   -0.105574
  11 H :    0.023958
  12 H :    0.040164
  13 H :   -0.105347
  14 H :   -0.106288
  15 O :   -0.459496
  16 O :   -0.460123
  17 F :   -0.294317
  18 H :    0.030182
  19 H :    0.035658
  20 H :    0.005310
  21 H :    0.027264

-------------------------------
LOEWDIN REDUCED ORBITAL CHARGES
-------------------------------
  0 C s       :     2.655200  s :     2.655200
      pz      :     0.898638  p :     2.589346
      px      :     0.827214
      py      :     0.863495
      dz2     :     0.147238  d :     0.680100
      dxz     :     0.170123
      dyz     :     0.075832
      dx2y2   :     0.153796
      dxy     :     0.133112
  1 N s       :     2.902770  s :     2.902770
      pz      :     1.205824  p :     3.508625
      px      :     1.117238
      py      :     1.185562
      dz2     :     0.091600  d :     0.604518
      dxz     :     0.125819
      dyz     :     0.098697
      dx2y2   :     0.150547
      dxy     :     0.137856
  2 C s       :     2.680704  s :     2.680704
      pz      :     0.912587  p :     2.703631
      px      :     0.903254
      py      :     0.887789
      dz2     :     0.142063  d :     0.637493
      dxz     :     0.117048
      dyz     :     0.109356
      dx2y2   :     0.106478
      dxy     :     0.162548
  3 C s       :     2.708198  s :     2.708198
      pz      :     0.878939  p :     2.718501
      px      :     0.889876
      py      :     0.949686
      dz2     :     0.097899  d :     0.601997
      dxz     :     0.117926
      dyz     :     0.096791
      dx2y2   :     0.124761
      dxy     :     0.164620
  4 H s       :     0.704286  s :     0.704286
      pz      :     0.071024  p :     0.269884
      px      :     0.104965
      py      :     0.093895
  5 H s       :     0.708720  s :     0.708720
      pz      :     0.113672  p :     0.255490
      px      :     0.077257
      py      :     0.064562
  6 S s       :     4.650092  s :     4.650092
      pz      :     2.718270  p :     8.359939
      px      :     2.815326
      py      :     2.826344
      dz2     :     0.313207  d :     1.828619
      dxz     :     0.368413
      dyz     :     0.328894
      dx2y2   :     0.410815
      dxy     :     0.407289
  7 C s       :     2.625562  s :     2.625562
      pz      :     0.777777  p :     2.500547
      px      :     0.911488
      py      :     0.811282
      dz2     :     0.189859  d :     1.107943
      dxz     :     0.263699
      dyz     :     0.169877
      dx2y2   :     0.245601
      dxy     :     0.238907
  8 C s       :     2.730017  s :     2.730017
      pz      :     0.951278  p :     2.804360
      px      :     0.916157
      py      :     0.936924
      dz2     :     0.026442  d :     0.315224
      dxz     :     0.063248
      dyz     :     0.040190
      dx2y2   :     0.099622
      dxy     :     0.085721
  9 N s       :     2.900081  s :     2.900081
      pz      :     1.220698  p :     3.514191
      px      :     1.070765
      py      :     1.222728
      dz2     :     0.070726  d :     0.365351
      dxz     :     0.075208
      dyz     :     0.057325
      dx2y2   :     0.100628
      dxy     :     0.061464
 10 H s       :     0.605374  s :     0.605374
      pz      :     0.116159  p :     0.500200
      px      :     0.248216
      py      :     0.135825
 11 H s       :     0.646966  s :     0.646966
      pz      :     0.120121  p :     0.329075
      px      :     0.074644
      py      :     0.134310
 12 H s       :     0.639117  s :     0.639117
      pz      :     0.117959  p :     0.320719
      px      :     0.119905
      py      :     0.082855
 13 H s       :     0.774023  s :     0.774023
      pz      :     0.128057  p :     0.331324
      px      :     0.103539
      py      :     0.099728
 14 H s       :     0.773992  s :     0.773992
      pz      :     0.131960  p :     0.332297
      px      :     0.073608
      py      :     0.126728
 15 O s       :     3.561633  s :     3.561633
      pz      :     1.590057  p :     4.661341
      px      :     1.636341
      py      :     1.434942
      dz2     :     0.030167  d :     0.236523
      dxz     :     0.012862
      dyz     :     0.055996
      dx2y2   :     0.065860
      dxy     :     0.071638
 16 O s       :     3.559683  s :     3.559683
      pz      :     1.584697  p :     4.663118
      px      :     1.528836
      py      :     1.549585
      dz2     :     0.031771  d :     0.237322
      dxz     :     0.041011
      dyz     :     0.029136
      dx2y2   :     0.067206
      dxy     :     0.068198
 17 F s       :     3.663186  s :     3.663186
      pz      :     1.680230  p :     5.341849
      px      :     1.801850
      py      :     1.859768
      dz2     :     0.085661  d :     0.289283
      dxz     :     0.074664
      dyz     :     0.047851
      dx2y2   :     0.040282
      dxy     :     0.040823
 18 H s       :     0.708558  s :     0.708558
      pz      :     0.064439  p :     0.261260
      px      :     0.108329
      py      :     0.088492
 19 H s       :     0.720761  s :     0.720761
      pz      :     0.100254  p :     0.243581
      px      :     0.082142
      py      :     0.061185
 20 H s       :     0.708767  s :     0.708767
      pz      :     0.108829  p :     0.285923
      px      :     0.088271
      py      :     0.088823
 21 H s       :     0.736233  s :     0.736233
      pz      :     0.060960  p :     0.236503
      px      :     0.065935
      py      :     0.109608


                      *****************************
                      * MAYER POPULATION ANALYSIS *
                      *****************************

  NA   - Mulliken gross atomic population
  ZA   - Total nuclear charge
  QA   - Mulliken gross atomic charge
  VA   - Mayer's total valence
  BVA  - Mayer's bonded valence
  FA   - Mayer's free valence

  ATOM       NA         ZA         QA         VA         BVA        FA
  0 C      5.0577     6.0000     0.9423     3.7831     3.7831    -0.0000
  1 N      7.4517     7.0000    -0.4517     4.0157     4.0157     0.0000
  2 C      5.7949     6.0000     0.2051     4.5030     4.5030    -0.0000
  3 C      5.8240     6.0000     0.1760     4.3294     4.3294    -0.0000
  4 H      0.8687     1.0000     0.1313     1.0417     1.0417    -0.0000
  5 H      1.1509     1.0000    -0.1509     1.0016     1.0016     0.0000
  6 S     14.4503    16.0000     1.5497     4.7394     4.7394    -0.0000
  7 C      5.2841     6.0000     0.7159     3.2025     3.2025    -0.0000
  8 C      5.6476     6.0000     0.3524     3.4679     3.4679     0.0000
  9 N      6.4704     7.0000     0.5296     3.4466     3.4466     0.0000
 10 H      1.4290     1.0000    -0.4290     0.8434     0.8434     0.0000
 11 H      1.1752     1.0000    -0.1752     0.7721     0.7721     0.0000
 12 H      1.2529     1.0000    -0.2529     0.8257     0.8257    -0.0000
 13 H      1.3981     1.0000    -0.3981     1.0564     1.0564     0.0000
 14 H      1.2585     1.0000    -0.2585     1.0507     1.0507     0.0000
 15 O      8.7071     8.0000    -0.7071     1.5809     1.5809    -0.0000
 16 O      8.7428     8.0000    -0.7428     1.6312     1.6312    -0.0000
 17 F      9.5687     9.0000    -0.5687     0.8236     0.8236     0.0000
 18 H      0.9855     1.0000     0.0145     1.0796     1.0796    -0.0000
 19 H      1.0408     1.0000    -0.0408     0.9118     0.9118    -0.0000
 20 H      1.0913     1.0000    -0.0913     0.9554     0.9554    -0.0000
 21 H      1.3497     1.0000    -0.3497     0.8860     0.8860    -0.0000

  Mayer bond orders larger than 0.100000
B(  0-C ,  1-N ) :   0.9353 B(  0-C ,  2-C ) :   1.0791 B(  0-C , 12-H ) :  -0.2127 
B(  0-C , 18-H ) :   0.1382 B(  0-C , 19-H ) :   0.1434 B(  0-C , 20-H ) :   0.7145 
B(  0-C , 21-H ) :   0.8965 B(  1-N ,  7-C ) :   0.9640 B(  1-N ,  8-C ) :   0.2324 
B(  1-N ,  9-N ) :   0.1275 B(  1-N , 12-H ) :   1.2654 B(  1-N , 20-H ) :   0.2252 
B(  1-N , 21-H ) :   0.1511 B(  2-C ,  3-C ) :   1.2478 B(  2-C ,  4-H ) :   0.1404 
B(  2-C ,  5-H ) :   0.1518 B(  2-C , 18-H ) :   0.8550 B(  2-C , 19-H ) :   0.7946 
B(  2-C , 20-H ) :   0.1364 B(  3-C ,  4-H ) :   0.9215 B(  3-C ,  5-H ) :   0.8032 
B(  3-C ,  6-S ) :   0.9896 B(  3-C , 18-H ) :   0.1244 B(  3-C , 19-H ) :   0.1188 
B(  5-H ,  6-S ) :   0.1138 B(  6-S , 15-O ) :   1.5065 B(  6-S , 16-O ) :   1.4912 
B(  6-S , 17-F ) :   0.5917 B(  7-C ,  8-C ) :   1.4255 B(  7-C ,  9-N ) :   1.0123 
B(  7-C , 10-H ) :  -0.1115 B(  7-C , 11-H ) :  -0.1272 B(  7-C , 12-H ) :  -0.2296 
B(  7-C , 13-H ) :   0.1033 B(  7-C , 14-H ) :   0.2165 B(  8-C ,  9-N ) :   0.1578 
B(  8-C , 13-H ) :   0.7995 B(  8-C , 14-H ) :   0.7847 B(  9-N , 10-H ) :   1.0362 
B(  9-N , 11-H ) :   1.1637 B(  9-N , 17-F ) :  -0.1090 B(  9-N , 20-H ) :   0.1126 
B( 10-H , 11-H ) :  -0.1972 B( 20-H , 21-H ) :  -0.1945 

-------
TIMINGS
-------

Total SCF time: 0 days 0 hours 1 min 38 sec 

Total time                  ....      98.800 sec
Sum of individual times     ....      98.443 sec  ( 99.6%)

Fock matrix formation       ....      95.374 sec  ( 96.5%)
  Split-RI-J                ....       5.640 sec  (  5.9% of F)
  Chain of spheres X        ....      62.551 sec  ( 65.6% of F)
  XC integration            ....      26.366 sec  ( 27.6% of F)
    Basis function eval.    ....       3.373 sec  ( 12.8% of XC)
    Density eval.           ....       9.228 sec  ( 35.0% of XC)
    XC-Functional eval.     ....       0.849 sec  (  3.2% of XC)
    XC-Potential eval.      ....      10.694 sec  ( 40.6% of XC)
Diagonalization             ....       0.216 sec  (  0.2%)
Density matrix formation    ....       0.018 sec  (  0.0%)
Population analysis         ....       0.029 sec  (  0.0%)
Initial guess               ....       0.477 sec  (  0.5%)
Orbital Transformation      ....       0.000 sec  (  0.0%)
Orbital Orthonormalization  ....       0.000 sec  (  0.0%)
DIIS solution               ....       0.116 sec  (  0.1%)
SOSCF solution              ....       0.148 sec  (  0.1%)
Grid generation             ....       2.066 sec  (  2.1%)

Maximum memory used throughout the entire SCF-calculation: 70.6 MB


-------------------------------------------------------------------------------
                          DFT DISPERSION CORRECTION                            
                                                                               
                              DFTD3 V3.1  Rev 1                                
                              USING zero damping                               
-------------------------------------------------------------------------------
The M062X functional is recognized
Active option DFTDOPT                   ...         3   

molecular C6(AA) [au] = 5000.192521 


            DFT-D V3
 parameters
 s6 scaling factor         :     1.0000 
 rs6 scaling factor        :     1.6190 
 s8 scaling factor         :     0.0000 
 rs8 scaling factor        :     1.0000 
 Damping factor alpha6     :    14.0000 
 Damping factor alpha8     :    16.0000 
 ad hoc parameters k1-k3   :    16.0000     1.3333    -4.0000 

 Edisp/kcal,au: -0.585917310448  -0.000933718569 
 E6   /kcal   :  -0.585917310 
 E8   /kcal   :  -0.000000000 
 % E8         :   0.000000000 

-------------------------   ----------------
Dispersion correction           -0.000933719
-------------------------   ----------------


-------------------------   --------------------
FINAL SINGLE POINT ENERGY      -954.257703845585
-------------------------   --------------------


                            ***************************************
                            *     ORCA property calculations      *
                            ***************************************

                                    ---------------------
                                    Active property flags
                                    ---------------------
   (+) Dipole Moment


------------------------------------------------------------------------------
                       ORCA ELECTRIC PROPERTIES CALCULATION
------------------------------------------------------------------------------

Dipole Moment Calculation                       ... on
Quadrupole Moment Calculation                   ... off
Polarizability Calculation                      ... off
GBWName                                         ... 28Oct_SVPD_M062X_D8_wb97.gbw
Electron density file                           ... 28Oct_SVPD_M062X_D8_wb97.scfp
The origin for moment calculation is the CENTER OF MASS  = ( 4.294834,  0.808845 -6.614297)

-------------
DIPOLE MOMENT
-------------
                                X             Y             Z
Electronic contribution:    -14.54888      -2.40605      -2.87483
Nuclear contribution   :     14.93782       3.36795       3.35075
                        -----------------------------------------
Total Dipole Moment    :      0.38894       0.96190       0.47592
                        -----------------------------------------
Magnitude (a.u.)       :      1.14150
Magnitude (Debye)      :      2.90146



--------------------
Rotational spectrum 
--------------------
 
Rotational constants in cm-1:     0.059219     0.021387     0.018380 
Rotational constants in MHz :  1775.354399   641.172207   551.019443 

 Dipole components along the rotational axes: 
x,y,z [a.u.] :    -0.308982    -1.092130     0.121661 
x,y,z [Debye]:    -0.785370    -2.775975     0.309237 

 

Timings for individual modules:

Sum of individual times         ...       99.793 sec (=   1.663 min)
GTO integral calculation        ...        0.622 sec (=   0.010 min)   0.6 %
SCF iterations                  ...       99.171 sec (=   1.653 min)  99.4 %
                             ****ORCA TERMINATED NORMALLY****
TOTAL RUN TIME: 0 days 0 hours 1 minutes 40 seconds 379 msec
