
                                        *****************
                                        * O   R   C   A *
                                        *****************

                                            #,                                       
                                            ###                                      
                                            ####                                     
                                            #####                                    
                                            ######                                   
                                           ########,                                 
                                     ,,################,,,,,                         
                               ,,#################################,,                 
                          ,,##########################################,,             
                       ,#########################################, ''#####,          
                    ,#############################################,,   '####,        
                  ,##################################################,,,,####,       
                ,###########''''           ''''###############################       
              ,#####''   ,,,,##########,,,,          '''####'''          '####       
            ,##' ,,,,###########################,,,                        '##       
           ' ,,###''''                  '''############,,,                           
         ,,##''                                '''############,,,,        ,,,,,,###''
      ,#''                                            '''#######################'''  
     '                                                          ''''####''''         
             ,#######,   #######,   ,#######,      ##                                
            ,#'     '#,  ##    ##  ,#'     '#,    #''#        ######   ,####,        
            ##       ##  ##   ,#'  ##            #'  '#       #        #'  '#        
            ##       ##  #######   ##           ,######,      #####,   #    #        
            '#,     ,#'  ##    ##  '#,     ,#' ,#      #,         ##   #,  ,#        
             '#######'   ##     ##  '#######'  #'      '#     #####' # '####'        



                  #######################################################
                  #                        -***-                        #
                  #          Department of theory and spectroscopy      #
                  #    Directorship and core code : Frank Neese         #
                  #        Max Planck Institute fuer Kohlenforschung    #
                  #                Kaiser Wilhelm Platz 1               #
                  #                 D-45470 Muelheim/Ruhr               #
                  #                      Germany                        #
                  #                                                     #
                  #                  All rights reserved                #
                  #                        -***-                        #
                  #######################################################


                         Program Version 5.0.0 -  RELEASE  -
                                (SVN: $Rev: 19529$)
                ($Date: 2021-06-28 11:36:33 +0200 (Mo, 28 Jun 2021) $)


 With contributions from (in alphabetic order):
   Daniel Aravena         : Magnetic Suceptibility
   Michael Atanasov       : Ab Initio Ligand Field Theory (pilot matlab implementation)
   Alexander A. Auer      : GIAO ZORA, VPT2 properties, NMR spectrum
   Ute Becker             : Parallelization
   Giovanni Bistoni       : ED, misc. LED, open-shell LED, HFLD
   Martin Brehm           : Molecular dynamics
   Dmytro Bykov           : SCF Hessian
   Vijay G. Chilkuri      : MRCI spin determinant printing, contributions to CSF-ICE
   Dipayan Datta          : RHF DLPNO-CCSD density
   Achintya Kumar Dutta   : EOM-CC, STEOM-CC
   Dmitry Ganyushin       : Spin-Orbit,Spin-Spin,Magnetic field MRCI
   Miquel Garcia          : C-PCM Hessian, Gaussian charge scheme
   Yang Guo               : DLPNO-NEVPT2, F12-NEVPT2, CIM, IAO-localization
   Andreas Hansen         : Spin unrestricted coupled pair/coupled cluster methods
   Benjamin Helmich-Paris : MC-RPA, TRAH-SCF, COSX integrals
   Lee Huntington         : MR-EOM, pCC
   Robert Izsak           : Overlap fitted RIJCOSX, COSX-SCS-MP3, EOM
   Marcus Kettner         : VPT2
   Christian Kollmar      : KDIIS, OOCD, Brueckner-CCSD(T), CCSD density, CASPT2, CASPT2-K
   Simone Kossmann        : Meta GGA functionals, TD-DFT gradient, OOMP2, MP2 Hessian
   Martin Krupicka        : Initial AUTO-CI
   Lucas Lang             : DCDCAS
   Marvin Lechner         : AUTO-CI (C++ implementation), FIC-MRCC
   Dagmar Lenk            : GEPOL surface, SMD
   Dimitrios Liakos       : Extrapolation schemes; Compound Job, initial MDCI parallelization
   Dimitrios Manganas     : Further ROCIS development; embedding schemes
   Dimitrios Pantazis     : SARC Basis sets
   Anastasios Papadopoulos: AUTO-CI, single reference methods and gradients
   Taras Petrenko         : DFT Hessian,TD-DFT gradient, ASA, ECA, R-Raman, ABS, FL, XAS/XES, NRVS
   Peter Pinski           : DLPNO-MP2, DLPNO-MP2 Gradient
   Christoph Reimann      : Effective Core Potentials
   Marius Retegan         : Local ZFS, SOC
   Christoph Riplinger    : Optimizer, TS searches, QM/MM, DLPNO-CCSD(T), (RO)-DLPNO pert. Triples
   Tobias Risthaus        : Range-separated hybrids, TD-DFT gradient, RPA, STAB
   Michael Roemelt        : Original ROCIS implementation
   Masaaki Saitow         : Open-shell DLPNO-CCSD energy and density
   Barbara Sandhoefer     : DKH picture change effects
   Avijit Sen             : IP-ROCIS
   Kantharuban Sivalingam : CASSCF convergence, NEVPT2, FIC-MRCI
   Bernardo de Souza      : ESD, SOC TD-DFT
   Georgi Stoychev        : AutoAux, RI-MP2 NMR
   Willem Van den Heuvel  : Paramagnetic NMR
   Boris Wezisla          : Elementary symmetry handling
   Frank Wennmohs         : Technical directorship


 We gratefully acknowledge several colleagues who have allowed us to
 interface, adapt or use parts of their codes:
   Stefan Grimme, W. Hujo, H. Kruse, P. Pracht,  : VdW corrections, initial TS optimization,
                  C. Bannwarth, S. Ehlert          DFT functionals, gCP, sTDA/sTD-DF
   Ed Valeev, F. Pavosevic, A. Kumar             : LibInt (2-el integral package), F12 methods
   Garnet Chan, S. Sharma, J. Yang, R. Olivares  : DMRG
   Ulf Ekstrom                                   : XCFun DFT Library
   Mihaly Kallay                                 : mrcc  (arbitrary order and MRCC methods)
   Jiri Pittner, Ondrej Demel                    : Mk-CCSD
   Frank Weinhold                                : gennbo (NPA and NBO analysis)
   Christopher J. Cramer and Donald G. Truhlar   : smd solvation model
   Lars Goerigk                                  : TD-DFT with DH, B97 family of functionals
   V. Asgeirsson, H. Jonsson                     : NEB implementation
   FAccTs GmbH                                   : IRC, NEB, NEB-TS, DLPNO-Multilevel, CI-OPT
                                                   MM, QMMM, 2- and 3-layer-ONIOM, Crystal-QMMM,
                                                   LR-CPCM, SF, NACMEs, symmetry and pop. for TD-DFT,
                                                   nearIR, NL-DFT gradient (VV10), updates on ESD,
                                                   ML-optimized integration grids
   S Lehtola, MJT Oliveira, MAL Marques          : LibXC Library
   Liviu Ungur et al                             : ANISO software


 Your calculation uses the libint2 library for the computation of 2-el integrals
 For citations please refer to: http://libint.valeyev.net

 Your ORCA version has been built with support for libXC version: 5.1.0
 For citations please refer to: https://tddft.org/programs/libxc/

 This ORCA versions uses:
   CBLAS   interface :  Fast vector & matrix operations
   LAPACKE interface :  Fast linear algebra routines
   SCALAPACK package :  Parallel linear algebra routines
   Shared memory     :  Shared parallel matrices
   BLAS/LAPACK       :  OpenBLAS 0.3.15  USE64BITINT DYNAMIC_ARCH NO_AFFINITY Haswell SINGLE_THREADED
        Core in use  :  Haswell
   Copyright (c) 2011-2014, The OpenBLAS Project


Your calculation utilizes the atom-pairwise dispersion correction
with the Becke-Johnson damping scheme (D3BJ)
Cite in your paper:
S.Grimme, S.Ehrlich, L.Goerigk, J Comput Chem, (2011), 32, 1456–1465 
S.Grimme, J.Antony, S.Ehrlich and H.Krieg, J.Chem.Phys., 132, (2010), 154104 
   

================================================================================

----- Orbital basis set information -----
Your calculation utilizes the basis: def2-SVPD
   F. Weigend and R. Ahlrichs, Phys. Chem. Chem. Phys. 7, 3297 (2005).
   D. Rappoport and F. Furche, J. Chem. Phys. 133 134105 (2010).

----- AuxJ basis set information -----
Your calculation utilizes the auxiliary basis: def2/J
   F. Weigend, Phys. Chem. Chem. Phys. 8, 1057 (2006).

================================================================================
                                        WARNINGS
                       Please study these warnings very carefully!
================================================================================


INFO   : the flag for use of the SHARK integral package has been found!

================================================================================
                                       INPUT FILE
================================================================================
NAME = SVPD_PBE0_A_wt_dlpno_pos.com
|  1> !PBE0 D3BJ RIJCOSX def2-SVPD def2/J TightSCF
|  2> *xyz 1 1
|  3> C          1.96337       -1.74915       -1.89689
|  4> N          2.73849       -2.01517       -3.09711
|  5> C          4.04974       -2.15472       -3.15204
|  6> N          4.65821       -1.98629       -4.31866
|  7> N          4.76423       -2.45444       -2.05049
|  8> H          4.28736       -2.77626       -1.21750
|  9> H          5.75082       -2.65835       -2.12599
| 10> H          2.34518       -1.69027       -3.97145
| 11> H          4.10900       -1.59268       -5.07176
| 12> H          5.64910       -2.15646       -4.42724
| 13> C          2.08852       -0.30091       -1.41520
| 14> H          2.23127       -2.45162       -1.10264
| 15> H          0.93025       -1.97780       -2.15544
| 16> H          1.82118        0.36368       -2.21003
| 17> H          3.09792       -0.11068       -1.11551
| 18> H          1.43391       -0.14382       -0.58352
| 19> *
| 20> %MaxCore 64000
| 21> 
| 22> %pal nprocs 4
| 23> end  
| 24> 
| 25> %scf
| 26>   MaxIter 150
| 27> end
| 28> 
| 29> 
| 30>                          ****END OF INPUT****
================================================================================

                       ****************************
                       * Single Point Calculation *
                       ****************************

---------------------------------
CARTESIAN COORDINATES (ANGSTROEM)
---------------------------------
  C      1.963370   -1.749150   -1.896890
  N      2.738490   -2.015170   -3.097110
  C      4.049740   -2.154720   -3.152040
  N      4.658210   -1.986290   -4.318660
  N      4.764230   -2.454440   -2.050490
  H      4.287360   -2.776260   -1.217500
  H      5.750820   -2.658350   -2.125990
  H      2.345180   -1.690270   -3.971450
  H      4.109000   -1.592680   -5.071760
  H      5.649100   -2.156460   -4.427240
  C      2.088520   -0.300910   -1.415200
  H      2.231270   -2.451620   -1.102640
  H      0.930250   -1.977800   -2.155440
  H      1.821180    0.363680   -2.210030
  H      3.097920   -0.110680   -1.115510
  H      1.433910   -0.143820   -0.583520

----------------------------
CARTESIAN COORDINATES (A.U.)
----------------------------
  NO LB      ZA    FRAG     MASS         X           Y           Z
   0 C     6.0000    0    12.011    3.710232   -3.305414   -3.584603
   1 N     7.0000    0    14.007    5.174996   -3.808119   -5.852690
   2 C     6.0000    0    12.011    7.652900   -4.071831   -5.956492
   3 N     7.0000    0    14.007    8.802741   -3.753544   -8.161085
   4 N     7.0000    0    14.007    9.003090   -4.638219   -3.874865
   5 H     1.0000    0     1.008    8.101936   -5.246371   -2.300742
   6 H     1.0000    0     1.008   10.867475   -5.023553   -4.017539
   7 H     1.0000    0     1.008    4.431748   -3.194147   -7.504953
   8 H     1.0000    0     1.008    7.764885   -3.009729   -9.584237
   9 H     1.0000    0     1.008   10.675252   -4.075119   -8.366271
  10 C     6.0000    0    12.011    3.946731   -0.568637   -2.674340
  11 H     1.0000    0     1.008    4.216489   -4.632890   -2.083688
  12 H     1.0000    0     1.008    1.757918   -3.737500   -4.073191
  13 H     1.0000    0     1.008    3.441531    0.687256   -4.176351
  14 H     1.0000    0     1.008    5.854220   -0.209155   -2.108008
  15 H     1.0000    0     1.008    2.709697   -0.271780   -1.102693

--------------------------------
INTERNAL COORDINATES (ANGSTROEM)
--------------------------------
 C      0   0   0     0.000000000000     0.00000000     0.00000000
 N      1   0   0     1.453308536822     0.00000000     0.00000000
 C      2   1   0     1.319798495945   125.70558414     0.00000000
 N      3   2   1     1.326501651036   118.61421616   200.38175597
 N      3   2   1     1.346751811211   121.10321023    20.01727886
 H      5   3   2     1.012346506588   119.59453702    13.56866466
 H      5   3   2     1.010266977685   120.12495650   173.22985716
 H      2   1   3     1.012286126399   116.57303880   207.34688220
 H      4   3   2     1.011790524862   117.06612917    10.99918763
 H      4   3   2     1.011242027113   121.50248980   185.08027543
 C      1   2   3     1.531367648933   112.91044782    74.86377029
 H      1   2   3     1.093648743153   110.58185151   309.76306189
 H      1   2   3     1.089250136286   105.74830411   195.84517559
 H     11   1   2     1.070002463829   109.47038636    55.14781126
 H     11   1   2     1.069995284569   109.47112396   295.14850402
 H     11   1   2     1.069992122681   109.47150790   175.14805691

---------------------------
INTERNAL COORDINATES (A.U.)
---------------------------
 C      0   0   0     0.000000000000     0.00000000     0.00000000
 N      1   0   0     2.746355122684     0.00000000     0.00000000
 C      2   1   0     2.494057709298   125.70558414     0.00000000
 N      3   2   1     2.506724836652   118.61421616   200.38175597
 N      3   2   1     2.544992093551   121.10321023    20.01727886
 H      5   3   2     1.913057650082   119.59453702    13.56866466
 H      5   3   2     1.909127909968   120.12495650   173.22985716
 H      2   1   3     1.912943548062   116.57303880   207.34688220
 H      4   3   2     1.912006996885   117.06612917    10.99918763
 H      4   3   2     1.910970486355   121.50248980   185.08027543
 C      1   2   3     2.893865466831   112.91044782    74.86377029
 H      1   2   3     2.066696611266   110.58185151   309.76306189
 H      1   2   3     2.058384448918   105.74830411   195.84517559
 H     11   1   2     2.022011619258   109.47038636    55.14781126
 H     11   1   2     2.021998052423   109.47112396   295.14850402
 H     11   1   2     2.021992077321   109.47150790   175.14805691

---------------------
BASIS SET INFORMATION
---------------------
There are 3 groups of distinct atoms

 Group   1 Type C   : 8s4p2d contracted to 4s2p2d pattern {5111/31/11}
 Group   2 Type N   : 8s4p2d contracted to 4s2p2d pattern {5111/31/11}
 Group   3 Type H   : 4s2p contracted to 2s2p pattern {31/11}

Atom   0C    basis set group =>   1
Atom   1N    basis set group =>   2
Atom   2C    basis set group =>   1
Atom   3N    basis set group =>   2
Atom   4N    basis set group =>   2
Atom   5H    basis set group =>   3
Atom   6H    basis set group =>   3
Atom   7H    basis set group =>   3
Atom   8H    basis set group =>   3
Atom   9H    basis set group =>   3
Atom  10C    basis set group =>   1
Atom  11H    basis set group =>   3
Atom  12H    basis set group =>   3
Atom  13H    basis set group =>   3
Atom  14H    basis set group =>   3
Atom  15H    basis set group =>   3
---------------------------------
AUXILIARY/J BASIS SET INFORMATION
---------------------------------
There are 3 groups of distinct atoms

 Group   1 Type C   : 12s5p4d2f1g contracted to 6s4p3d1f1g pattern {711111/2111/211/2/1}
 Group   2 Type N   : 12s5p4d2f1g contracted to 6s4p3d1f1g pattern {711111/2111/211/2/1}
 Group   3 Type H   : 5s2p1d contracted to 3s1p1d pattern {311/2/1}

Atom   0C    basis set group =>   1
Atom   1N    basis set group =>   2
Atom   2C    basis set group =>   1
Atom   3N    basis set group =>   2
Atom   4N    basis set group =>   2
Atom   5H    basis set group =>   3
Atom   6H    basis set group =>   3
Atom   7H    basis set group =>   3
Atom   8H    basis set group =>   3
Atom   9H    basis set group =>   3
Atom  10C    basis set group =>   1
Atom  11H    basis set group =>   3
Atom  12H    basis set group =>   3
Atom  13H    basis set group =>   3
Atom  14H    basis set group =>   3
Atom  15H    basis set group =>   3


           ************************************************************
           *        Program running with 4 parallel MPI-processes     *
           *              working on a common directory               *
           ************************************************************
------------------------------------------------------------------------------
                           ORCA GTO INTEGRAL CALCULATION
                           -- RI-GTO INTEGRALS CHOSEN --
------------------------------------------------------------------------------
------------------------------------------------------------------------------
                   ___                                                        
                  /   \      - P O W E R E D   B Y -                         
                 /     \                                                     
                 |  |  |   _    _      __       _____    __    __             
                 |  |  |  | |  | |    /  \     |  _  \  |  |  /  |          
                  \  \/   | |  | |   /    \    | | | |  |  | /  /          
                 / \  \   | |__| |  /  /\  \   | |_| |  |  |/  /          
                |  |  |   |  __  | /  /__\  \  |    /   |      \           
                |  |  |   | |  | | |   __   |  |    \   |  |\   \          
                \     /   | |  | | |  |  |  |  | |\  \  |  | \   \       
                 \___/    |_|  |_| |__|  |__|  |_| \__\ |__|  \__/        
                                                                              
                      - O R C A' S   B I G   F R I E N D -                    
                                      &                                       
                       - I N T E G R A L  F E E D E R -                       
                                                                              
 v1 FN, 2020, v2 2021                                                         
------------------------------------------------------------------------------


Reading SHARK input file SVPD_PBE0_A_wt_dlpno_pos.SHARKINP.tmp ... ok
----------------------
SHARK INTEGRAL PACKAGE
----------------------

Number of atoms                             ...     16
Number of basis functions                   ...    200
Number of shells                            ...     88
Maximum angular momentum                    ...      2
Integral batch strategy                     ... SHARK/LIBINT Hybrid
RI-J (if used) integral strategy            ... SPLIT-RIJ (Revised 2003 algorithm where possible)
Printlevel                                  ...      1
Contraction scheme used                     ... SEGMENTED contraction
Coulomb Range Separation                    ... NOT USED
Exchange Range Separation                   ... NOT USED
Finite Nucleus Model                        ... NOT USED
Auxiliary Coulomb fitting basis             ... AVAILABLE
   # of basis functions in Aux-J            ...    404
   # of shells in Aux-J                     ...    140
   Maximum angular momentum in Aux-J        ...      4
Auxiliary J/K fitting basis                 ... NOT available
Auxiliary Correlation fitting basis         ... NOT available
Auxiliary 'external' fitting basis          ... NOT available
Integral threshold                          ...     2.500000e-11
Primitive cut-off                           ...     2.500000e-12
Primitive pair pre-selection threshold      ...     2.500000e-12

Calculating pre-screening integrals         ... done (  0.0 sec) Dimension = 88
Organizing shell pair data                  ... done (  0.0 sec)
Shell pair information
Total number of shell pairs                 ...      3916
Shell pairs after pre-screening             ...      3850
Total number of primitive shell pairs       ...     10548
Primitive shell pairs kept                  ...      8626
          la=0 lb=0:    970 shell pairs
          la=1 lb=0:   1381 shell pairs
          la=1 lb=1:    518 shell pairs
          la=2 lb=0:    521 shell pairs
          la=2 lb=1:    382 shell pairs
          la=2 lb=2:     78 shell pairs

Calculating one electron integrals          ... done (  0.0 sec)
Calculating RI/J V-Matrix + Cholesky decomp.... done (  0.0 sec)
Calculating Nuclear repulsion               ... done (  0.0 sec) ENN=    259.873448268754 Eh

SHARK setup successfully completed in   0.2 seconds

Maximum memory used throughout the entire GTOINT-calculation: 8.9 MB


           ************************************************************
           *        Program running with 4 parallel MPI-processes     *
           *              working on a common directory               *
           ************************************************************
-------------------------------------------------------------------------------
                                 ORCA SCF
-------------------------------------------------------------------------------

------------
SCF SETTINGS
------------
Hamiltonian:
 Density Functional     Method          .... DFT(GTOs)
 Exchange Functional    Exchange        .... PBE
   PBE kappa parameter   XKappa         ....  0.804000
   PBE mue parameter    XMuePBE         ....  0.219520
 Correlation Functional Correlation     .... PBE
   PBE beta parameter  CBetaPBE         ....  0.066725
 LDA part of GGA corr.  LDAOpt          .... PW91-LDA
 Gradients option       PostSCFGGA      .... off
 Hybrid DFT is turned on
   Fraction HF Exchange ScalHFX         ....  0.250000
   Scaling of DF-GGA-X  ScalDFX         ....  0.750000
   Scaling of DF-GGA-C  ScalDFC         ....  1.000000
   Scaling of DF-LDA-C  ScalLDAC        ....  1.000000
   Perturbative correction              ....  0.000000
   Density functional embedding theory  .... OFF
   NL short-range parameter             ....  6.900000
 RI-approximation to the Coulomb term is turned on
   Number of AuxJ basis functions       .... 404
   RIJ-COSX (HFX calculated with COS-X)).... on


General Settings:
 Integral files         IntName         .... SVPD_PBE0_A_wt_dlpno_pos
 Hartree-Fock type      HFTyp           .... RHF
 Total Charge           Charge          ....    1
 Multiplicity           Mult            ....    1
 Number of Electrons    NEL             ....   48
 Basis Dimension        Dim             ....  200
 Nuclear Repulsion      ENuc            ....    259.8734482688 Eh

Convergence Acceleration:
 DIIS                   CNVDIIS         .... on
   Start iteration      DIISMaxIt       ....    12
   Startup error        DIISStart       ....  0.200000
   # of expansion vecs  DIISMaxEq       ....     5
   Bias factor          DIISBfac        ....   1.050
   Max. coefficient     DIISMaxC        ....  10.000
 Trust-Rad. Augm. Hess. CNVTRAH         .... auto
   Auto Start mean grad. ratio tolernc. ....  1.125000
   Auto Start start iteration           ....    20
   Auto Start num. interpolation iter.  ....    10
   Max. Number of Micro iterations      ....    16
   Max. Number of Macro iterations      .... Maxiter - #DIIS iter
   Number of Davidson start vectors     ....     2
   Converg. threshold I  (grad. norm)   ....   1.000e-05
   Converg. threshold II (energy diff.) ....   1.000e-08
   Grad. Scal. Fac. for Micro threshold ....   0.100
   Minimum threshold for Micro iter.    ....   0.010
   NR start threshold (gradient norm)   ....   0.001
   Initial trust radius                 ....   0.400
   Minimum AH scaling param. (alpha)    ....   1.000
   Maximum AH scaling param. (alpha)    .... 1000.000
   Orbital update algorithm             .... Taylor
   White noise on init. David. guess    .... on
   Maximum white noise                  ....   0.010
   Quad. conv. algorithm                .... NR
 SOSCF                  CNVSOSCF        .... on
   Start iteration      SOSCFMaxIt      ....   150
   Startup grad/error   SOSCFStart      ....  0.003300
 Level Shifting         CNVShift        .... on
   Level shift para.    LevelShift      ....    0.2500
   Turn off err/grad.   ShiftErr        ....    0.0010
 Zerner damping         CNVZerner       .... off
 Static damping         CNVDamp         .... on
   Fraction old density DampFac         ....    0.7000
   Max. Damping (<1)    DampMax         ....    0.9800
   Min. Damping (>=0)   DampMin         ....    0.0000
   Turn off err/grad.   DampErr         ....    0.1000
 Fernandez-Rico         CNVRico         .... off

SCF Procedure:
 Maximum # iterations   MaxIter         ....   150
 SCF integral mode      SCFMode         .... Direct
   Integral package                     .... SHARK and LIBINT hybrid scheme
 Reset frequency        DirectResetFreq ....    20
 Integral Threshold     Thresh          ....  2.500e-11 Eh
 Primitive CutOff       TCut            ....  2.500e-12 Eh

Convergence Tolerance:
 Convergence Check Mode ConvCheckMode   .... Total+1el-Energy
 Convergence forced     ConvForced      .... 0
 Energy Change          TolE            ....  1.000e-08 Eh
 1-El. energy change                    ....  1.000e-05 Eh
 Orbital Gradient       TolG            ....  1.000e-05
 Orbital Rotation angle TolX            ....  1.000e-05
 DIIS Error             TolErr          ....  5.000e-07


Diagonalization of the overlap matrix:
Smallest eigenvalue                        ... 6.360e-05
Time for diagonalization                   ...    0.010 sec
Threshold for overlap eigenvalues          ... 1.000e-08
Number of eigenvalues below threshold      ... 0
Time for construction of square roots      ...    0.006 sec
Total time needed                          ...    0.017 sec

Time for model grid setup =    0.090 sec

------------------------------
INITIAL GUESS: MODEL POTENTIAL
------------------------------
Loading Hartree-Fock densities                     ... done
Calculating cut-offs                               ... done
Initializing the effective Hamiltonian             ... done
Setting up the integral package (SHARK)            ... done
Starting the Coulomb interaction                   ... done (   0.0 sec)
Reading the grid                                   ... done
Mapping shells                                     ... done
Starting the XC term evaluation                    ... done (   0.1 sec)
  promolecular density results
     # of electrons  =     48.997528488
     EX              =    -38.009513587
     EC              =     -1.618270950
     EX+EC           =    -39.627784537
Transforming the Hamiltonian                       ... done (   0.0 sec)
Diagonalizing the Hamiltonian                      ... done (   0.0 sec)
Back transforming the eigenvectors                 ... done (   0.0 sec)
Now organizing SCF variables                       ... done
                      ------------------
                      INITIAL GUESS DONE (   0.3 sec)
                      ------------------
-------------------
DFT GRID GENERATION
-------------------

General Integration Accuracy     IntAcc      ... 4.388
Radial Grid Type                 RadialGrid  ... OptM3 with GC (2021)
Angular Grid (max. ang.)         AngularGrid ... 4 (Lebedev-302)
Angular grid pruning method      GridPruning ... 4 (adaptive)
Weight generation scheme         WeightScheme... Becke
Basis function cutoff            BFCut       ... 1.0000e-11
Integration weight cutoff        WCut        ... 1.0000e-14
Angular grids for H and He will be reduced by one unit
Partially contracted basis set               ... off
Rotationally invariant grid construction     ... off

Total number of grid points                  ...    70302
Total number of batches                      ...     1106
Average number of points per batch           ...       63
Average number of grid points per atom       ...     4394
Time for grid setup =    0.458 sec

--------------------
COSX GRID GENERATION
--------------------

GRIDX 1
-------
General Integration Accuracy     IntAcc      ... 3.816
Radial Grid Type                 RadialGrid  ... OptM3 with GC (2021)
Angular Grid (max. ang.)         AngularGrid ... 1 (Lebedev-50)
Angular grid pruning method      GridPruning ... 4 (adaptive)
Weight generation scheme         WeightScheme... Becke
Basis function cutoff            BFCut       ... 1.0000e-11
Integration weight cutoff        WCut        ... 1.0000e-14
Angular grids for H and He will be reduced by one unit
Partially contracted basis set               ... on
Rotationally invariant grid construction     ... off

Total number of grid points                  ...     8804
Total number of batches                      ...      149
Average number of points per batch           ...       59
Average number of grid points per atom       ...      550
UseSFitting                                  ... on

GRIDX 2
-------
General Integration Accuracy     IntAcc      ... 4.020
Radial Grid Type                 RadialGrid  ... OptM3 with GC (2021)
Angular Grid (max. ang.)         AngularGrid ... 2 (Lebedev-110)
Angular grid pruning method      GridPruning ... 4 (adaptive)
Weight generation scheme         WeightScheme... Becke
Basis function cutoff            BFCut       ... 1.0000e-11
Integration weight cutoff        WCut        ... 1.0000e-14
Angular grids for H and He will be reduced by one unit
Partially contracted basis set               ... on
Rotationally invariant grid construction     ... off

Total number of grid points                  ...    19280
Total number of batches                      ...      309
Average number of points per batch           ...       62
Average number of grid points per atom       ...     1205
UseSFitting                                  ... on

GRIDX 3
-------
General Integration Accuracy     IntAcc      ... 4.338
Radial Grid Type                 RadialGrid  ... OptM3 with GC (2021)
Angular Grid (max. ang.)         AngularGrid ... 3 (Lebedev-194)
Angular grid pruning method      GridPruning ... 4 (adaptive)
Weight generation scheme         WeightScheme... Becke
Basis function cutoff            BFCut       ... 1.0000e-11
Integration weight cutoff        WCut        ... 1.0000e-14
Angular grids for H and He will be reduced by one unit
Partially contracted basis set               ... on
Rotationally invariant grid construction     ... off

Total number of grid points                  ...    44069
Total number of batches                      ...      696
Average number of points per batch           ...       63
Average number of grid points per atom       ...     2754
UseSFitting                                  ... on

Time for X-Grid setup             =    0.456 sec

--------------
SCF ITERATIONS
--------------
ITER       Energy         Delta-E        Max-DP      RMS-DP      [F,P]     Damp
               ***  Starting incremental Fock matrix formation  ***
  0   -283.7059536178   0.000000000000 0.10003314  0.00247017  0.1817993 0.7000
  1   -283.7869362887  -0.080982670966 0.05722149  0.00156357  0.0906595 0.7000
                               ***Turning on DIIS***
  2   -283.8204760621  -0.033539773352 0.10888082  0.00288246  0.0358902 0.0000
  3   -283.8696131368  -0.049137074660 0.03585641  0.00091853  0.0469167 0.0000
  4   -283.8818812445  -0.012268107784 0.00952924  0.00023896  0.0098835 0.0000
                      *** Initiating the SOSCF procedure ***
                           *** Shutting down DIIS ***
                      *** Re-Reading the Fockian *** 
                      *** Removing any level shift *** 
ITER      Energy       Delta-E        Grad      Rot      Max-DP    RMS-DP
  5   -283.88231032  -0.0004290764  0.000928  0.000928  0.004121  0.000097
               *** Restarting incremental Fock matrix formation ***
  6   -283.88233819  -0.0000278675  0.000261  0.000531  0.003351  0.000071
  7   -283.88233988  -0.0000016895  0.000210  0.000247  0.000948  0.000020
  8   -283.88234265  -0.0000027714  0.000043  0.000118  0.000400  0.000007
  9   -283.88234263   0.0000000191  0.000052  0.000063  0.000120  0.000002
 10   -283.88234269  -0.0000000597  0.000003  0.000008  0.000064  0.000001
 11   -283.88234269   0.0000000003  0.000003  0.000005  0.000016  0.000000
                  ***Gradient check signals convergence***
              ***Rediagonalizing the Fockian in SOSCF/NRSCF***

               *****************************************************
               *                     SUCCESS                       *
               *           SCF CONVERGED AFTER  12 CYCLES          *
               *****************************************************

Old exchange energy                            =     -9.673661973 Eh
New exchange energy                            =     -9.673661167 Eh
Exchange energy change after final integration =      0.000000806 Eh
Total energy after final integration           =   -283.882341881 Eh
Final COS-X integration done in                =     2.581 sec

----------------
TOTAL SCF ENERGY
----------------

Total Energy       :         -283.88234188 Eh           -7724.83125 eV

Components:
Nuclear Repulsion  :          259.87344827 Eh            7071.51604 eV
Electronic Energy  :         -543.75579015 Eh          -14796.34728 eV
One Electron Energy:         -887.99491330 Eh          -24163.57004 eV
Two Electron Energy:          344.23912315 Eh            9367.22276 eV
Max COSX asymmetry :            0.00000360 Eh               0.00010 eV

Virial components:
Potential Energy   :         -564.80582188 Eh          -15369.14777 eV
Kinetic Energy     :          280.92348000 Eh            7644.31652 eV
Virial Ratio       :            2.01053263


DFT components:
N(Alpha)           :       23.999993814110 electrons
N(Beta)            :       23.999993814110 electrons
N(Total)           :       47.999987628220 electrons
E(X)               :      -28.920829051324 Eh       
E(C)               :       -1.600701308028 Eh       
E(XC)              :      -30.521530359352 Eh       
DFET-embed. en.    :        0.000000000000 Eh       

---------------
SCF CONVERGENCE
---------------

  Last Energy change         ...    2.7640e-09  Tolerance :   1.0000e-08
  Last MAX-Density change    ...    4.4409e-15  Tolerance :   1.0000e-07
  Last RMS-Density change    ...    4.4588e-17  Tolerance :   5.0000e-09
  Last Orbital Gradient      ...    8.1053e-07  Tolerance :   1.0000e-05
  Last Orbital Rotation      ...    1.2474e-06  Tolerance :   1.0000e-05

             **** THE GBW FILE WAS UPDATED (SVPD_PBE0_A_wt_dlpno_pos.gbw) ****
             **** DENSITY SVPD_PBE0_A_wt_dlpno_pos.scfp WAS UPDATED ****
             **** ENERGY FILE WAS UPDATED (SVPD_PBE0_A_wt_dlpno_pos.en.tmp) ****
             **** THE GBW FILE WAS UPDATED (SVPD_PBE0_A_wt_dlpno_pos.gbw) ****
             **** DENSITY SVPD_PBE0_A_wt_dlpno_pos.scfp WAS UPDATED ****
----------------
ORBITAL ENERGIES
----------------

  NO   OCC          E(Eh)            E(eV) 
   0   2.0000     -14.622026      -397.8855 
   1   2.0000     -14.621903      -397.8822 
   2   2.0000     -14.619620      -397.8201 
   3   2.0000     -10.567865      -287.5662 
   4   2.0000     -10.441472      -284.1269 
   5   2.0000     -10.369134      -282.1585 
   6   2.0000      -1.238562       -33.7030 
   7   2.0000      -1.124951       -30.6115 
   8   2.0000      -1.111304       -30.2401 
   9   2.0000      -0.948467       -25.8091 
  10   2.0000      -0.858843       -23.3703 
  11   2.0000      -0.822305       -22.3761 
  12   2.0000      -0.802762       -21.8443 
  13   2.0000      -0.762056       -20.7366 
  14   2.0000      -0.711666       -19.3654 
  15   2.0000      -0.703489       -19.1429 
  16   2.0000      -0.674042       -18.3416 
  17   2.0000      -0.643758       -17.5176 
  18   2.0000      -0.615080       -16.7372 
  19   2.0000      -0.578882       -15.7522 
  20   2.0000      -0.545018       -14.8307 
  21   2.0000      -0.524752       -14.2792 
  22   2.0000      -0.491938       -13.3863 
  23   2.0000      -0.464216       -12.6320 
  24   0.0000      -0.166002        -4.5171 
  25   0.0000      -0.148482        -4.0404 
  26   0.0000      -0.115181        -3.1342 
  27   0.0000      -0.105871        -2.8809 
  28   0.0000      -0.080223        -2.1830 
  29   0.0000      -0.068929        -1.8757 
  30   0.0000      -0.062764        -1.7079 
  31   0.0000      -0.054765        -1.4902 
  32   0.0000      -0.032961        -0.8969 
  33   0.0000      -0.018985        -0.5166 
  34   0.0000      -0.014711        -0.4003 
  35   0.0000      -0.001602        -0.0436 
  36   0.0000       0.001516         0.0413 
  37   0.0000       0.008262         0.2248 
  38   0.0000       0.018580         0.5056 
  39   0.0000       0.024311         0.6615 
  40   0.0000       0.029476         0.8021 
  41   0.0000       0.033904         0.9226 
  42   0.0000       0.050991         1.3875 
  43   0.0000       0.069790         1.8991 
  44   0.0000       0.075292         2.0488 
  45   0.0000       0.087015         2.3678 
  46   0.0000       0.089284         2.4295 
  47   0.0000       0.094096         2.5605 
  48   0.0000       0.104212         2.8357 
  49   0.0000       0.114029         3.1029 
  50   0.0000       0.125362         3.4113 
  51   0.0000       0.137889         3.7521 
  52   0.0000       0.151523         4.1232 
  53   0.0000       0.158971         4.3258 
  54   0.0000       0.165240         4.4964 
  55   0.0000       0.184552         5.0219 
  56   0.0000       0.187120         5.0918 
  57   0.0000       0.195277         5.3138 
  58   0.0000       0.196286         5.3412 
  59   0.0000       0.211259         5.7487 
  60   0.0000       0.213550         5.8110 
  61   0.0000       0.226105         6.1526 
  62   0.0000       0.229241         6.2380 
  63   0.0000       0.238233         6.4826 
  64   0.0000       0.249290         6.7835 
  65   0.0000       0.250342         6.8121 
  66   0.0000       0.260269         7.0823 
  67   0.0000       0.265430         7.2227 
  68   0.0000       0.269987         7.3467 
  69   0.0000       0.283833         7.7235 
  70   0.0000       0.284298         7.7362 
  71   0.0000       0.295779         8.0485 
  72   0.0000       0.311877         8.4866 
  73   0.0000       0.313810         8.5392 
  74   0.0000       0.326938         8.8964 
  75   0.0000       0.335694         9.1347 
  76   0.0000       0.338926         9.2226 
  77   0.0000       0.349618         9.5136 
  78   0.0000       0.363334         9.8868 
  79   0.0000       0.364915         9.9298 
  80   0.0000       0.376552        10.2465 
  81   0.0000       0.381022        10.3681 
  82   0.0000       0.390714        10.6319 
  83   0.0000       0.395773        10.7695 
  84   0.0000       0.406956        11.0738 
  85   0.0000       0.414326        11.2744 
  86   0.0000       0.418439        11.3863 
  87   0.0000       0.424777        11.5588 
  88   0.0000       0.429575        11.6893 
  89   0.0000       0.433086        11.7849 
  90   0.0000       0.463674        12.6172 
  91   0.0000       0.475025        12.9261 
  92   0.0000       0.484201        13.1758 
  93   0.0000       0.486031        13.2256 
  94   0.0000       0.509727        13.8704 
  95   0.0000       0.518649        14.1132 
  96   0.0000       0.525710        14.3053 
  97   0.0000       0.537876        14.6364 
  98   0.0000       0.565351        15.3840 
  99   0.0000       0.577243        15.7076 
 100   0.0000       0.594866        16.1871 
 101   0.0000       0.601089        16.3565 
 102   0.0000       0.610637        16.6163 
 103   0.0000       0.616977        16.7888 
 104   0.0000       0.628177        17.0936 
 105   0.0000       0.650255        17.6943 
 106   0.0000       0.661149        17.9908 
 107   0.0000       0.740990        20.1634 
 108   0.0000       0.761677        20.7263 
 109   0.0000       0.788824        21.4650 
 110   0.0000       0.809534        22.0285 
 111   0.0000       0.841287        22.8926 
 112   0.0000       0.849580        23.1183 
 113   0.0000       0.855128        23.2692 
 114   0.0000       0.888340        24.1730 
 115   0.0000       0.897771        24.4296 
 116   0.0000       0.917663        24.9709 
 117   0.0000       0.941438        25.6178 
 118   0.0000       0.955080        25.9891 
 119   0.0000       0.973006        26.4768 
 120   0.0000       0.990197        26.9446 
 121   0.0000       1.019445        27.7405 
 122   0.0000       1.028758        27.9939 
 123   0.0000       1.034867        28.1602 
 124   0.0000       1.049025        28.5454 
 125   0.0000       1.095473        29.8093 
 126   0.0000       1.109502        30.1911 
 127   0.0000       1.155344        31.4385 
 128   0.0000       1.196942        32.5704 
 129   0.0000       1.240679        33.7606 
 130   0.0000       1.300319        35.3835 
 131   0.0000       1.326576        36.0980 
 132   0.0000       1.369827        37.2749 
 133   0.0000       1.377863        37.4936 
 134   0.0000       1.433843        39.0169 
 135   0.0000       1.450364        39.4664 
 136   0.0000       1.455170        39.5972 
 137   0.0000       1.495075        40.6831 
 138   0.0000       1.515230        41.2315 
 139   0.0000       1.529874        41.6300 
 140   0.0000       1.544863        42.0379 
 141   0.0000       1.577640        42.9298 
 142   0.0000       1.582011        43.0487 
 143   0.0000       1.605017        43.6747 
 144   0.0000       1.626350        44.2552 
 145   0.0000       1.643198        44.7137 
 146   0.0000       1.685482        45.8643 
 147   0.0000       1.710377        46.5417 
 148   0.0000       1.719102        46.7791 
 149   0.0000       1.730909        47.1004 
 150   0.0000       1.767448        48.0947 
 151   0.0000       1.801683        49.0263 
 152   0.0000       1.814472        49.3743 
 153   0.0000       1.822593        49.5953 
 154   0.0000       1.845290        50.2129 
 155   0.0000       1.857702        50.5506 
 156   0.0000       1.873727        50.9867 
 157   0.0000       1.894124        51.5417 
 158   0.0000       1.904549        51.8254 
 159   0.0000       1.919862        52.2421 
 160   0.0000       1.927548        52.4512 
 161   0.0000       1.939969        52.7893 
 162   0.0000       1.973722        53.7077 
 163   0.0000       1.985197        54.0200 
 164   0.0000       2.027249        55.1643 
 165   0.0000       2.052983        55.8645 
 166   0.0000       2.069414        56.3116 
 167   0.0000       2.108601        57.3780 
 168   0.0000       2.156771        58.6887 
 169   0.0000       2.176579        59.2277 
 170   0.0000       2.230849        60.7045 
 171   0.0000       2.241699        60.9997 
 172   0.0000       2.292153        62.3727 
 173   0.0000       2.314890        62.9914 
 174   0.0000       2.332989        63.4839 
 175   0.0000       2.353672        64.0467 
 176   0.0000       2.376408        64.6653 
 177   0.0000       2.434674        66.2508 
 178   0.0000       2.464904        67.0735 
 179   0.0000       2.474575        67.3366 
 180   0.0000       2.506590        68.2078 
 181   0.0000       2.555122        69.5284 
 182   0.0000       2.566146        69.8284 
 183   0.0000       2.569651        69.9238 
 184   0.0000       2.674807        72.7852 
 185   0.0000       2.701130        73.5015 
 186   0.0000       2.751120        74.8618 
 187   0.0000       2.889417        78.6250 
 188   0.0000       2.930587        79.7453 
 189   0.0000       2.960140        80.5495 
 190   0.0000       2.995970        81.5245 
 191   0.0000       3.055105        83.1336 
 192   0.0000       3.076628        83.7193 
 193   0.0000       3.082465        83.8781 
 194   0.0000       3.106574        84.5342 
 195   0.0000       3.159212        85.9665 
 196   0.0000       3.214243        87.4640 
 197   0.0000       3.265406        88.8562 
 198   0.0000       3.517632        95.7196 
 199   0.0000       3.564407        96.9925 

                    ********************************
                    * MULLIKEN POPULATION ANALYSIS *
                    ********************************

-----------------------
MULLIKEN ATOMIC CHARGES
-----------------------
   0 C :    0.242585
   1 N :   -0.525311
   2 C :    1.660666
   3 N :   -0.228064
   4 N :   -0.138030
   5 H :   -0.011319
   6 H :   -0.124886
   7 H :   -0.173924
   8 H :    0.013684
   9 H :   -0.042972
  10 C :    0.512500
  11 H :   -0.033471
  12 H :   -0.215372
  13 H :    0.010368
  14 H :   -0.008373
  15 H :    0.061922
Sum of atomic charges:    1.0000000

--------------------------------
MULLIKEN REDUCED ORBITAL CHARGES
--------------------------------
  0 C s       :     2.843342  s :     2.843342
      pz      :     0.770368  p :     2.681222
      px      :     0.851339
      py      :     1.059514
      dz2     :    -0.033268  d :     0.232851
      dxz     :     0.004765
      dyz     :     0.125873
      dx2y2   :     0.055008
      dxy     :     0.080473
  1 N s       :     3.550016  s :     3.550016
      pz      :     1.147822  p :     3.792752
      px      :     1.062264
      py      :     1.582666
      dz2     :     0.040304  d :     0.182543
      dxz     :     0.034555
      dyz     :     0.027726
      dx2y2   :     0.055848
      dxy     :     0.024110
  2 C s       :     2.790379  s :     2.790379
      pz      :     0.579441  p :     1.922952
      px      :     0.674934
      py      :     0.668577
      dz2     :    -0.142725  d :    -0.373997
      dxz     :    -0.189988
      dyz     :     0.006375
      dx2y2   :    -0.025715
      dxy     :    -0.021943
  3 N s       :     3.536883  s :     3.536883
      pz      :     1.059205  p :     3.705731
      px      :     1.073494
      py      :     1.573032
      dz2     :    -0.010651  d :    -0.014550
      dxz     :    -0.017023
      dyz     :     0.008140
      dx2y2   :    -0.005383
      dxy     :     0.010368
  4 N s       :     3.469857  s :     3.469857
      pz      :     1.087841  p :     3.694485
      px      :     1.032091
      py      :     1.574553
      dz2     :    -0.021134  d :    -0.026312
      dxz     :    -0.009613
      dyz     :     0.014310
      dx2y2   :    -0.008485
      dxy     :    -0.001391
  5 H s       :     0.998906  s :     0.998906
      pz      :     0.013798  p :     0.012413
      px      :    -0.051800
      py      :     0.050415
  6 H s       :     1.092278  s :     1.092278
      pz      :    -0.010279  p :     0.032608
      px      :    -0.007662
      py      :     0.050548
  7 H s       :     1.130936  s :     1.130936
      pz      :     0.020602  p :     0.042987
      px      :    -0.012418
      py      :     0.034804
  8 H s       :     0.966636  s :     0.966636
      pz      :     0.012709  p :     0.019681
      px      :    -0.041485
      py      :     0.048456
  9 H s       :     1.007353  s :     1.007353
      pz      :    -0.004861  p :     0.035619
      px      :    -0.007936
      py      :     0.048416
 10 C s       :     2.588051  s :     2.588051
      pz      :     0.926346  p :     2.823891
      px      :     0.965075
      py      :     0.932470
      dz2     :     0.009724  d :     0.075558
      dxz     :     0.001562
      dyz     :     0.014734
      dx2y2   :     0.011712
      dxy     :     0.037826
 11 H s       :     0.974404  s :     0.974404
      pz      :     0.016430  p :     0.059067
      px      :     0.025116
      py      :     0.017521
 12 H s       :     1.162285  s :     1.162285
      pz      :     0.023308  p :     0.053088
      px      :     0.048768
      py      :    -0.018988
 13 H s       :     0.937079  s :     0.937079
      pz      :     0.048368  p :     0.052553
      px      :    -0.016478
      py      :     0.020663
 14 H s       :     0.921842  s :     0.921842
      pz      :    -0.010512  p :     0.086531
      px      :     0.092386
      py      :     0.004657
 15 H s       :     0.907814  s :     0.907814
      pz      :     0.016787  p :     0.030264
      px      :     0.016255
      py      :    -0.002778


                     *******************************
                     * LOEWDIN POPULATION ANALYSIS *
                     *******************************

----------------------
LOEWDIN ATOMIC CHARGES
----------------------
   0 C :    0.040902
   1 N :    0.032844
   2 C :   -0.028854
   3 N :    0.259846
   4 N :    0.276941
   5 H :    0.023295
   6 H :    0.037715
   7 H :    0.057208
   8 H :    0.039675
   9 H :    0.044976
  10 C :    0.158975
  11 H :    0.028958
  12 H :    0.042539
  13 H :   -0.004954
  14 H :   -0.014432
  15 H :    0.004366

-------------------------------
LOEWDIN REDUCED ORBITAL CHARGES
-------------------------------
  0 C s       :     2.670689  s :     2.670689
      pz      :     0.814749  p :     2.609054
      px      :     0.876915
      py      :     0.917390
      dz2     :     0.125857  d :     0.679355
      dxz     :     0.096267
      dyz     :     0.197770
      dx2y2   :     0.139046
      dxy     :     0.120414
  1 N s       :     2.919608  s :     2.919608
      pz      :     1.079248  p :     3.459642
      px      :     1.060730
      py      :     1.319664
      dz2     :     0.134236  d :     0.587905
      dxz     :     0.168090
      dyz     :     0.083536
      dx2y2   :     0.113366
      dxy     :     0.088678
  2 C s       :     2.608534  s :     2.608534
      pz      :     0.855576  p :     2.393386
      px      :     0.873179
      py      :     0.664632
      dz2     :     0.236437  d :     1.026933
      dxz     :     0.274818
      dyz     :     0.186923
      dx2y2   :     0.141832
      dxy     :     0.186924
  3 N s       :     2.931123  s :     2.931123
      pz      :     1.083122  p :     3.512769
      px      :     1.082186
      py      :     1.347462
      dz2     :     0.088473  d :     0.296262
      dxz     :     0.085802
      dyz     :     0.056803
      dx2y2   :     0.040947
      dxy     :     0.024237
  4 N s       :     2.935029  s :     2.935029
      pz      :     1.087584  p :     3.503935
      px      :     1.070354
      py      :     1.345997
      dz2     :     0.087507  d :     0.284095
      dxz     :     0.077284
      dyz     :     0.049395
      dx2y2   :     0.042988
      dxy     :     0.026920
  5 H s       :     0.631251  s :     0.631251
      pz      :     0.123940  p :     0.345454
      px      :     0.112370
      py      :     0.109144
  6 H s       :     0.641251  s :     0.641251
      pz      :     0.070798  p :     0.321035
      px      :     0.147047
      py      :     0.103190
  7 H s       :     0.630054  s :     0.630054
      pz      :     0.129703  p :     0.312738
      px      :     0.084921
      py      :     0.098115
  8 H s       :     0.635944  s :     0.635944
      pz      :     0.113894  p :     0.324381
      px      :     0.100663
      py      :     0.109824
  9 H s       :     0.637865  s :     0.637865
      pz      :     0.068660  p :     0.317159
      px      :     0.148475
      py      :     0.100024
 10 C s       :     2.711246  s :     2.711246
      pz      :     0.939726  p :     2.767973
      px      :     0.946915
      py      :     0.881332
      dz2     :     0.047350  d :     0.361806
      dxz     :     0.051166
      dyz     :     0.092743
      dx2y2   :     0.096560
      dxy     :     0.073987
 11 H s       :     0.720077  s :     0.720077
      pz      :     0.083379  p :     0.250964
      px      :     0.083633
      py      :     0.083953
 12 H s       :     0.720068  s :     0.720068
      pz      :     0.060569  p :     0.237394
      px      :     0.114304
      py      :     0.062520
 13 H s       :     0.735223  s :     0.735223
      pz      :     0.108846  p :     0.269731
      px      :     0.077041
      py      :     0.083844
 14 H s       :     0.735478  s :     0.735478
      pz      :     0.077884  p :     0.278954
      px      :     0.132506
      py      :     0.068564
 15 H s       :     0.727433  s :     0.727433
      pz      :     0.108955  p :     0.268201
      px      :     0.096375
      py      :     0.062871


                      *****************************
                      * MAYER POPULATION ANALYSIS *
                      *****************************

  NA   - Mulliken gross atomic population
  ZA   - Total nuclear charge
  QA   - Mulliken gross atomic charge
  VA   - Mayer's total valence
  BVA  - Mayer's bonded valence
  FA   - Mayer's free valence

  ATOM       NA         ZA         QA         VA         BVA        FA
  0 C      5.7574     6.0000     0.2426     4.3029     4.3029    -0.0000
  1 N      7.5253     7.0000    -0.5253     3.9507     3.9507    -0.0000
  2 C      4.3393     6.0000     1.6607     1.6078     1.6078     0.0000
  3 N      7.2281     7.0000    -0.2281     3.6022     3.6022     0.0000
  4 N      7.1380     7.0000    -0.1380     3.6127     3.6127    -0.0000
  5 H      1.0113     1.0000    -0.0113     0.8895     0.8895    -0.0000
  6 H      1.1249     1.0000    -0.1249     0.9051     0.9051     0.0000
  7 H      1.1739     1.0000    -0.1739     0.9384     0.9384     0.0000
  8 H      0.9863     1.0000     0.0137     0.8689     0.8689     0.0000
  9 H      1.0430     1.0000    -0.0430     0.9156     0.9156    -0.0000
 10 C      5.4875     6.0000     0.5125     3.9315     3.9315     0.0000
 11 H      1.0335     1.0000    -0.0335     1.1008     1.1008    -0.0000
 12 H      1.2154     1.0000    -0.2154     1.1446     1.1446    -0.0000
 13 H      0.9896     1.0000     0.0104     1.0607     1.0607    -0.0000
 14 H      1.0084     1.0000    -0.0084     1.1732     1.1732    -0.0000
 15 H      0.9381     1.0000     0.0619     1.0543     1.0543    -0.0000

  Mayer bond orders larger than 0.100000
B(  0-C ,  1-N ) :   0.8766 B(  0-C ,  7-H ) :  -0.1273 B(  0-C , 10-C ) :   1.2575 
B(  0-C , 11-H ) :   0.9190 B(  0-C , 12-H ) :   0.9034 B(  0-C , 13-H ) :   0.1940 
B(  0-C , 14-H ) :   0.1625 B(  0-C , 15-H ) :   0.1418 B(  1-N ,  2-C ) :   0.9477 
B(  1-N ,  3-N ) :   0.3116 B(  1-N ,  4-N ) :   0.2171 B(  1-N ,  7-H ) :   1.2776 
B(  1-N , 11-H ) :   0.1247 B(  1-N , 12-H ) :   0.2018 B(  2-C ,  3-N ) :   0.7089 
B(  2-C ,  4-N ) :   0.8349 B(  2-C ,  5-H ) :  -0.1226 B(  2-C ,  6-H ) :  -0.1683 
B(  2-C ,  7-H ) :  -0.2207 B(  2-C ,  8-H ) :  -0.1448 B(  2-C ,  9-H ) :  -0.1426 
B(  3-N ,  4-N ) :   0.1711 B(  3-N ,  8-H ) :   1.1509 B(  3-N ,  9-H ) :   1.2456 
B(  4-N ,  5-H ) :   1.0870 B(  4-N ,  6-H ) :   1.2851 B(  5-H ,  6-H ) :  -0.1984 
B(  8-H ,  9-H ) :  -0.1688 B( 10-C , 13-H ) :   0.8389 B( 10-C , 14-H ) :   0.8701 
B( 10-C , 15-H ) :   0.8223 

-------
TIMINGS
-------

Total SCF time: 0 days 0 hours 0 min 20 sec 

Total time                  ....      20.412 sec
Sum of individual times     ....      20.223 sec  ( 99.1%)

Fock matrix formation       ....      18.904 sec  ( 92.6%)
  Split-RI-J                ....       1.325 sec  (  7.0% of F)
  Chain of spheres X        ....      13.687 sec  ( 72.4% of F)
  XC integration            ....       3.846 sec  ( 20.3% of F)
    Basis function eval.    ....       1.314 sec  ( 34.2% of XC)
    Density eval.           ....       0.971 sec  ( 25.2% of XC)
    XC-Functional eval.     ....       0.207 sec  (  5.4% of XC)
    XC-Potential eval.      ....       1.201 sec  ( 31.2% of XC)
Diagonalization             ....       0.057 sec  (  0.3%)
Density matrix formation    ....       0.005 sec  (  0.0%)
Population analysis         ....       0.008 sec  (  0.0%)
Initial guess               ....       0.166 sec  (  0.8%)
Orbital Transformation      ....       0.000 sec  (  0.0%)
Orbital Orthonormalization  ....       0.000 sec  (  0.0%)
DIIS solution               ....       0.035 sec  (  0.2%)
SOSCF solution              ....       0.043 sec  (  0.2%)
Grid generation             ....       1.004 sec  (  4.9%)

Maximum memory used throughout the entire SCF-calculation: 55.0 MB


-------------------------------------------------------------------------------
                          DFT DISPERSION CORRECTION                            
                                                                               
                              DFTD3 V3.1  Rev 1                                
                          USING Becke-Johnson damping                          
-------------------------------------------------------------------------------
The PBE0 functional is recognized
Active option DFTDOPT                   ...         4   

molecular C6(AA) [au] = 1841.198976 


            DFT-D V3
 parameters
 s6 scaling factor         :     1.0000 
 a1 scaling factor         :     0.4145 
 s8 scaling factor         :     1.2177 
 a2 scaling factor         :     4.8593 
 ad hoc parameters k1-k3   :    16.0000     1.3333    -4.0000 

 Edisp/kcal,au: -6.574861867812  -0.010477708207 
 E6   /kcal   :  -4.318773248 
 E8   /kcal   :  -2.256088620 
 % E8         :  34.313855788 

-------------------------   ----------------
Dispersion correction           -0.010477708
-------------------------   ----------------


-------------------------   --------------------
FINAL SINGLE POINT ENERGY      -283.892819589389
-------------------------   --------------------


                            ***************************************
                            *     ORCA property calculations      *
                            ***************************************

                                    ---------------------
                                    Active property flags
                                    ---------------------
   (+) Dipole Moment


------------------------------------------------------------------------------
                       ORCA ELECTRIC PROPERTIES CALCULATION
------------------------------------------------------------------------------

Dipole Moment Calculation                       ... on
Quadrupole Moment Calculation                   ... off
Polarizability Calculation                      ... off
GBWName                                         ... SVPD_PBE0_A_wt_dlpno_pos.gbw
Electron density file                           ... SVPD_PBE0_A_wt_dlpno_pos.scfp
The origin for moment calculation is the CENTER OF MASS  = ( 6.422935, -3.350176 -5.026051)

-------------
DIPOLE MOMENT
-------------
                                X             Y             Z
Electronic contribution:      3.01660      -2.70946      -3.09209
Nuclear contribution   :     -2.17768       2.37118       2.44574
                        -----------------------------------------
Total Dipole Moment    :      0.83891      -0.33828      -0.64635
                        -----------------------------------------
Magnitude (a.u.)       :      1.11174
Magnitude (Debye)      :      2.82583



--------------------
Rotational spectrum 
--------------------
 
Rotational constants in cm-1:     0.215650     0.075183     0.066454 
Rotational constants in MHz :  6465.033740  2253.919004  1992.232519 

 Dipole components along the rotational axes: 
x,y,z [a.u.] :    -1.109509    -0.044452    -0.054689 
x,y,z [Debye]:    -2.820147    -0.112989    -0.139007 

 

Timings for individual modules:

Sum of individual times         ...       21.010 sec (=   0.350 min)
GTO integral calculation        ...        0.385 sec (=   0.006 min)   1.8 %
SCF iterations                  ...       20.625 sec (=   0.344 min)  98.2 %
                             ****ORCA TERMINATED NORMALLY****
TOTAL RUN TIME: 0 days 0 hours 0 minutes 21 seconds 409 msec
