
                                        *****************
                                        * O   R   C   A *
                                        *****************

                                            #,                                       
                                            ###                                      
                                            ####                                     
                                            #####                                    
                                            ######                                   
                                           ########,                                 
                                     ,,################,,,,,                         
                               ,,#################################,,                 
                          ,,##########################################,,             
                       ,#########################################, ''#####,          
                    ,#############################################,,   '####,        
                  ,##################################################,,,,####,       
                ,###########''''           ''''###############################       
              ,#####''   ,,,,##########,,,,          '''####'''          '####       
            ,##' ,,,,###########################,,,                        '##       
           ' ,,###''''                  '''############,,,                           
         ,,##''                                '''############,,,,        ,,,,,,###''
      ,#''                                            '''#######################'''  
     '                                                          ''''####''''         
             ,#######,   #######,   ,#######,      ##                                
            ,#'     '#,  ##    ##  ,#'     '#,    #''#        ######   ,####,        
            ##       ##  ##   ,#'  ##            #'  '#       #        #'  '#        
            ##       ##  #######   ##           ,######,      #####,   #    #        
            '#,     ,#'  ##    ##  '#,     ,#' ,#      #,         ##   #,  ,#        
             '#######'   ##     ##  '#######'  #'      '#     #####' # '####'        



                  #######################################################
                  #                        -***-                        #
                  #          Department of theory and spectroscopy      #
                  #    Directorship and core code : Frank Neese         #
                  #        Max Planck Institute fuer Kohlenforschung    #
                  #                Kaiser Wilhelm Platz 1               #
                  #                 D-45470 Muelheim/Ruhr               #
                  #                      Germany                        #
                  #                                                     #
                  #                  All rights reserved                #
                  #                        -***-                        #
                  #######################################################


                         Program Version 5.0.0 -  RELEASE  -
                                (SVN: $Rev: 19529$)
                ($Date: 2021-06-28 11:36:33 +0200 (Mo, 28 Jun 2021) $)


 With contributions from (in alphabetic order):
   Daniel Aravena         : Magnetic Suceptibility
   Michael Atanasov       : Ab Initio Ligand Field Theory (pilot matlab implementation)
   Alexander A. Auer      : GIAO ZORA, VPT2 properties, NMR spectrum
   Ute Becker             : Parallelization
   Giovanni Bistoni       : ED, misc. LED, open-shell LED, HFLD
   Martin Brehm           : Molecular dynamics
   Dmytro Bykov           : SCF Hessian
   Vijay G. Chilkuri      : MRCI spin determinant printing, contributions to CSF-ICE
   Dipayan Datta          : RHF DLPNO-CCSD density
   Achintya Kumar Dutta   : EOM-CC, STEOM-CC
   Dmitry Ganyushin       : Spin-Orbit,Spin-Spin,Magnetic field MRCI
   Miquel Garcia          : C-PCM Hessian, Gaussian charge scheme
   Yang Guo               : DLPNO-NEVPT2, F12-NEVPT2, CIM, IAO-localization
   Andreas Hansen         : Spin unrestricted coupled pair/coupled cluster methods
   Benjamin Helmich-Paris : MC-RPA, TRAH-SCF, COSX integrals
   Lee Huntington         : MR-EOM, pCC
   Robert Izsak           : Overlap fitted RIJCOSX, COSX-SCS-MP3, EOM
   Marcus Kettner         : VPT2
   Christian Kollmar      : KDIIS, OOCD, Brueckner-CCSD(T), CCSD density, CASPT2, CASPT2-K
   Simone Kossmann        : Meta GGA functionals, TD-DFT gradient, OOMP2, MP2 Hessian
   Martin Krupicka        : Initial AUTO-CI
   Lucas Lang             : DCDCAS
   Marvin Lechner         : AUTO-CI (C++ implementation), FIC-MRCC
   Dagmar Lenk            : GEPOL surface, SMD
   Dimitrios Liakos       : Extrapolation schemes; Compound Job, initial MDCI parallelization
   Dimitrios Manganas     : Further ROCIS development; embedding schemes
   Dimitrios Pantazis     : SARC Basis sets
   Anastasios Papadopoulos: AUTO-CI, single reference methods and gradients
   Taras Petrenko         : DFT Hessian,TD-DFT gradient, ASA, ECA, R-Raman, ABS, FL, XAS/XES, NRVS
   Peter Pinski           : DLPNO-MP2, DLPNO-MP2 Gradient
   Christoph Reimann      : Effective Core Potentials
   Marius Retegan         : Local ZFS, SOC
   Christoph Riplinger    : Optimizer, TS searches, QM/MM, DLPNO-CCSD(T), (RO)-DLPNO pert. Triples
   Tobias Risthaus        : Range-separated hybrids, TD-DFT gradient, RPA, STAB
   Michael Roemelt        : Original ROCIS implementation
   Masaaki Saitow         : Open-shell DLPNO-CCSD energy and density
   Barbara Sandhoefer     : DKH picture change effects
   Avijit Sen             : IP-ROCIS
   Kantharuban Sivalingam : CASSCF convergence, NEVPT2, FIC-MRCI
   Bernardo de Souza      : ESD, SOC TD-DFT
   Georgi Stoychev        : AutoAux, RI-MP2 NMR
   Willem Van den Heuvel  : Paramagnetic NMR
   Boris Wezisla          : Elementary symmetry handling
   Frank Wennmohs         : Technical directorship


 We gratefully acknowledge several colleagues who have allowed us to
 interface, adapt or use parts of their codes:
   Stefan Grimme, W. Hujo, H. Kruse, P. Pracht,  : VdW corrections, initial TS optimization,
                  C. Bannwarth, S. Ehlert          DFT functionals, gCP, sTDA/sTD-DF
   Ed Valeev, F. Pavosevic, A. Kumar             : LibInt (2-el integral package), F12 methods
   Garnet Chan, S. Sharma, J. Yang, R. Olivares  : DMRG
   Ulf Ekstrom                                   : XCFun DFT Library
   Mihaly Kallay                                 : mrcc  (arbitrary order and MRCC methods)
   Jiri Pittner, Ondrej Demel                    : Mk-CCSD
   Frank Weinhold                                : gennbo (NPA and NBO analysis)
   Christopher J. Cramer and Donald G. Truhlar   : smd solvation model
   Lars Goerigk                                  : TD-DFT with DH, B97 family of functionals
   V. Asgeirsson, H. Jonsson                     : NEB implementation
   FAccTs GmbH                                   : IRC, NEB, NEB-TS, DLPNO-Multilevel, CI-OPT
                                                   MM, QMMM, 2- and 3-layer-ONIOM, Crystal-QMMM,
                                                   LR-CPCM, SF, NACMEs, symmetry and pop. for TD-DFT,
                                                   nearIR, NL-DFT gradient (VV10), updates on ESD,
                                                   ML-optimized integration grids
   S Lehtola, MJT Oliveira, MAL Marques          : LibXC Library
   Liviu Ungur et al                             : ANISO software


 Your calculation uses the libint2 library for the computation of 2-el integrals
 For citations please refer to: http://libint.valeyev.net

 Your ORCA version has been built with support for libXC version: 5.1.0
 For citations please refer to: https://tddft.org/programs/libxc/

 This ORCA versions uses:
   CBLAS   interface :  Fast vector & matrix operations
   LAPACKE interface :  Fast linear algebra routines
   SCALAPACK package :  Parallel linear algebra routines
   Shared memory     :  Shared parallel matrices
   BLAS/LAPACK       :  OpenBLAS 0.3.15  USE64BITINT DYNAMIC_ARCH NO_AFFINITY Haswell SINGLE_THREADED
        Core in use  :  Haswell
   Copyright (c) 2011-2014, The OpenBLAS Project


Your calculation utilizes the atom-pairwise dispersion correction
with the Becke-Johnson damping scheme (D3BJ)
Cite in your paper:
S.Grimme, S.Ehrlich, L.Goerigk, J Comput Chem, (2011), 32, 1456–1465 
S.Grimme, J.Antony, S.Ehrlich and H.Krieg, J.Chem.Phys., 132, (2010), 154104 
   

================================================================================

----- Orbital basis set information -----
Your calculation utilizes the basis: def2-SVP
   F. Weigend and R. Ahlrichs, Phys. Chem. Chem. Phys. 7, 3297 (2005).

----- AuxJ basis set information -----
Your calculation utilizes the auxiliary basis: def2/J
   F. Weigend, Phys. Chem. Chem. Phys. 8, 1057 (2006).

================================================================================
                                        WARNINGS
                       Please study these warnings very carefully!
================================================================================



WARNING: Found flag for RIJCOSX approximation but no HF exchange needed!
  ===> : RIJCOSX  will be disabled and Split-RI-J is turned on

INFO   : the flag for use of the SHARK integral package has been found!

================================================================================
                                       INPUT FILE
================================================================================
NAME = SVP_PBE_A_wt_dlpno_pos.com
|  1> !PBE D3BJ RIJCOSX def2-SVP def2/J TightSCF
|  2> *xyz 1 1 
|  3> C          2.23447       -2.98975       -2.39762
|  4> N          2.75680       -2.94555       -3.76503
|  5> C          1.98721       -2.59045       -4.81898
|  6> N          0.74322       -3.01749       -4.91352
|  7> N          2.49964       -1.84860       -5.80324
|  8> H          3.30978       -1.29282       -5.55895
|  9> H          1.80103       -1.30430       -6.28913
| 10> H          3.71612       -2.62880       -3.82953
| 11> H          0.39583       -3.62775       -4.18502
| 12> H          0.03920       -2.45438       -5.37137
| 13> C          2.19120       -1.61950       -1.71549
| 14> H          2.87278       -3.66637       -1.82801
| 15> H          1.24619       -3.44744       -2.40784
| 16> H          1.56387       -0.96046       -2.27853
| 17> H          3.18033       -1.21449       -1.66568
| 18> H          1.79916       -1.72608       -0.72562
| 19> *
| 20> 
| 21> %MaxCore 64000
| 22> 
| 23> %pal nprocs 4
| 24> end  
| 25> 
| 26> %scf
| 27>   MaxIter 150
| 28> end
| 29> 
| 30> 
| 31>                          ****END OF INPUT****
================================================================================

                       ****************************
                       * Single Point Calculation *
                       ****************************

---------------------------------
CARTESIAN COORDINATES (ANGSTROEM)
---------------------------------
  C      2.234470   -2.989750   -2.397620
  N      2.756800   -2.945550   -3.765030
  C      1.987210   -2.590450   -4.818980
  N      0.743220   -3.017490   -4.913520
  N      2.499640   -1.848600   -5.803240
  H      3.309780   -1.292820   -5.558950
  H      1.801030   -1.304300   -6.289130
  H      3.716120   -2.628800   -3.829530
  H      0.395830   -3.627750   -4.185020
  H      0.039200   -2.454380   -5.371370
  C      2.191200   -1.619500   -1.715490
  H      2.872780   -3.666370   -1.828010
  H      1.246190   -3.447440   -2.407840
  H      1.563870   -0.960460   -2.278530
  H      3.180330   -1.214490   -1.665680
  H      1.799160   -1.726080   -0.725620

----------------------------
CARTESIAN COORDINATES (A.U.)
----------------------------
  NO LB      ZA    FRAG     MASS         X           Y           Z
   0 C     6.0000    0    12.011    4.222536   -5.649809   -4.530845
   1 N     7.0000    0    14.007    5.209597   -5.566283   -7.114876
   2 C     6.0000    0    12.011    3.755283   -4.895241   -9.106552
   3 N     7.0000    0    14.007    1.404482   -5.702230   -9.285207
   4 N     7.0000    0    14.007    4.723635   -3.493348  -10.966534
   5 H     1.0000    0     1.008    6.254578   -2.443076  -10.504893
   6 H     1.0000    0     1.008    3.403453   -2.464770  -11.884733
   7 H     1.0000    0     1.008    7.022449   -4.967712   -7.236763
   8 H     1.0000    0     1.008    0.748010   -6.855454   -7.908542
   9 H     1.0000    0     1.008    0.074077   -4.638106  -10.150418
  10 C     6.0000    0    12.011    4.140768   -3.060411   -3.241806
  11 H     1.0000    0     1.008    5.428767   -6.928435   -3.454438
  12 H     1.0000    0     1.008    2.354958   -6.514717   -4.550158
  13 H     1.0000    0     1.008    2.955286   -1.815006   -4.305798
  14 H     1.0000    0     1.008    6.009953   -2.295053   -3.147679
  15 H     1.0000    0     1.008    3.399920   -3.261818   -1.371223

--------------------------------
INTERNAL COORDINATES (ANGSTROEM)
--------------------------------
 C      0   0   0     0.000000000000     0.00000000     0.00000000
 N      1   0   0     1.464442684778     0.00000000     0.00000000
 C      2   1   0     1.352470103403   122.18203773     0.00000000
 N      3   2   1     1.318640244077   120.50767980   318.92429323
 N      3   2   1     1.334800987039   120.13904926   141.74971655
 H      5   3   2     1.012371390400   115.74663211   337.06352916
 H      5   3   2     1.010152223281   112.87076652   206.24150258
 H      2   1   3     1.012316983410   114.01273014   143.83776254
 H      4   3   2     1.011834635551   117.87810276   358.89629827
 H      4   3   2     1.011120000297   120.59509601   149.18334512
 C      1   2   3     1.531260491327   113.51714716   278.62684038
 H      1   2   3     1.090738205345   107.31445173   157.09827707
 H      1   2   3     1.089165709569   109.12067806    42.69223128
 H     11   1   2     1.069995650505   109.47048990    59.87999947
 H     11   1   2     1.069996398639   109.47101499   299.88007507
 H     11   1   2     1.069998726588   109.47097671   179.87986464

---------------------------
INTERNAL COORDINATES (A.U.)
---------------------------
 C      0   0   0     0.000000000000     0.00000000     0.00000000
 N      1   0   0     2.767395613055     0.00000000     0.00000000
 C      2   1   0     2.555798099749   122.18203773     0.00000000
 N      3   2   1     2.491868930473   120.50767980   318.92429323
 N      3   2   1     2.522408308791   120.13904926   141.74971655
 H      5   3   2     1.913104673673   115.74663211   337.06352916
 H      5   3   2     1.908911055573   112.87076652   206.24150258
 H      2   1   3     1.913001859362   114.01273014   143.83776254
 H      4   3   2     1.912090354007   117.87810276   358.89629827
 H      4   3   2     1.910739889091   120.59509601   149.18334512
 C      1   2   3     2.893662968302   113.51714716   278.62684038
 H      1   2   3     2.061196491907   107.31445173   157.09827707
 H      1   2   3     2.058224905543   109.12067806    42.69223128
 H     11   1   2     2.021998743942   109.47048990    59.87999947
 H     11   1   2     2.022000157709   109.47101499   299.88007507
 H     11   1   2     2.022004556896   109.47097671   179.87986464

---------------------
BASIS SET INFORMATION
---------------------
There are 3 groups of distinct atoms

 Group   1 Type C   : 7s4p1d contracted to 3s2p1d pattern {511/31/1}
 Group   2 Type N   : 7s4p1d contracted to 3s2p1d pattern {511/31/1}
 Group   3 Type H   : 4s1p contracted to 2s1p pattern {31/1}

Atom   0C    basis set group =>   1
Atom   1N    basis set group =>   2
Atom   2C    basis set group =>   1
Atom   3N    basis set group =>   2
Atom   4N    basis set group =>   2
Atom   5H    basis set group =>   3
Atom   6H    basis set group =>   3
Atom   7H    basis set group =>   3
Atom   8H    basis set group =>   3
Atom   9H    basis set group =>   3
Atom  10C    basis set group =>   1
Atom  11H    basis set group =>   3
Atom  12H    basis set group =>   3
Atom  13H    basis set group =>   3
Atom  14H    basis set group =>   3
Atom  15H    basis set group =>   3
---------------------------------
AUXILIARY/J BASIS SET INFORMATION
---------------------------------
There are 3 groups of distinct atoms

 Group   1 Type C   : 12s5p4d2f1g contracted to 6s4p3d1f1g pattern {711111/2111/211/2/1}
 Group   2 Type N   : 12s5p4d2f1g contracted to 6s4p3d1f1g pattern {711111/2111/211/2/1}
 Group   3 Type H   : 5s2p1d contracted to 3s1p1d pattern {311/2/1}

Atom   0C    basis set group =>   1
Atom   1N    basis set group =>   2
Atom   2C    basis set group =>   1
Atom   3N    basis set group =>   2
Atom   4N    basis set group =>   2
Atom   5H    basis set group =>   3
Atom   6H    basis set group =>   3
Atom   7H    basis set group =>   3
Atom   8H    basis set group =>   3
Atom   9H    basis set group =>   3
Atom  10C    basis set group =>   1
Atom  11H    basis set group =>   3
Atom  12H    basis set group =>   3
Atom  13H    basis set group =>   3
Atom  14H    basis set group =>   3
Atom  15H    basis set group =>   3


           ************************************************************
           *        Program running with 4 parallel MPI-processes     *
           *              working on a common directory               *
           ************************************************************
------------------------------------------------------------------------------
                           ORCA GTO INTEGRAL CALCULATION
                           -- RI-GTO INTEGRALS CHOSEN --
------------------------------------------------------------------------------
------------------------------------------------------------------------------
                   ___                                                        
                  /   \      - P O W E R E D   B Y -                         
                 /     \                                                     
                 |  |  |   _    _      __       _____    __    __             
                 |  |  |  | |  | |    /  \     |  _  \  |  |  /  |          
                  \  \/   | |  | |   /    \    | | | |  |  | /  /          
                 / \  \   | |__| |  /  /\  \   | |_| |  |  |/  /          
                |  |  |   |  __  | /  /__\  \  |    /   |      \           
                |  |  |   | |  | | |   __   |  |    \   |  |\   \          
                \     /   | |  | | |  |  |  |  | |\  \  |  | \   \       
                 \___/    |_|  |_| |__|  |__|  |_| \__\ |__|  \__/        
                                                                              
                      - O R C A' S   B I G   F R I E N D -                    
                                      &                                       
                       - I N T E G R A L  F E E D E R -                       
                                                                              
 v1 FN, 2020, v2 2021                                                         
------------------------------------------------------------------------------


Reading SHARK input file SVP_PBE_A_wt_dlpno_pos.SHARKINP.tmp ... ok
----------------------
SHARK INTEGRAL PACKAGE
----------------------

Number of atoms                             ...     16
Number of basis functions                   ...    134
Number of shells                            ...     66
Maximum angular momentum                    ...      2
Integral batch strategy                     ... SHARK/LIBINT Hybrid
RI-J (if used) integral strategy            ... SPLIT-RIJ (Revised 2003 algorithm where possible)
Printlevel                                  ...      1
Contraction scheme used                     ... SEGMENTED contraction
Coulomb Range Separation                    ... NOT USED
Exchange Range Separation                   ... NOT USED
Finite Nucleus Model                        ... NOT USED
Auxiliary Coulomb fitting basis             ... AVAILABLE
   # of basis functions in Aux-J            ...    404
   # of shells in Aux-J                     ...    140
   Maximum angular momentum in Aux-J        ...      4
Auxiliary J/K fitting basis                 ... NOT available
Auxiliary Correlation fitting basis         ... NOT available
Auxiliary 'external' fitting basis          ... NOT available
Integral threshold                          ...     2.500000e-11
Primitive cut-off                           ...     2.500000e-12
Primitive pair pre-selection threshold      ...     2.500000e-12

Calculating pre-screening integrals         ... done (  0.0 sec) Dimension = 66
Organizing shell pair data                  ... done (  0.0 sec)
Shell pair information
Total number of shell pairs                 ...      2211
Shell pairs after pre-screening             ...      2149
Total number of primitive shell pairs       ...      7611
Primitive shell pairs kept                  ...      5703
          la=0 lb=0:    721 shell pairs
          la=1 lb=0:    810 shell pairs
          la=1 lb=1:    245 shell pairs
          la=2 lb=0:    222 shell pairs
          la=2 lb=1:    130 shell pairs
          la=2 lb=2:     21 shell pairs

Calculating one electron integrals          ... done (  0.0 sec)
Calculating RI/J V-Matrix + Cholesky decomp.... done (  0.0 sec)
Calculating Nuclear repulsion               ... done (  0.0 sec) ENN=    259.299783613560 Eh

SHARK setup successfully completed in   0.2 seconds

Maximum memory used throughout the entire GTOINT-calculation: 8.9 MB


           ************************************************************
           *        Program running with 4 parallel MPI-processes     *
           *              working on a common directory               *
           ************************************************************
-------------------------------------------------------------------------------
                                 ORCA SCF
-------------------------------------------------------------------------------

------------
SCF SETTINGS
------------
Hamiltonian:
 Density Functional     Method          .... DFT(GTOs)
 Exchange Functional    Exchange        .... PBE
   PBE kappa parameter   XKappa         ....  0.804000
   PBE mue parameter    XMuePBE         ....  0.219520
 Correlation Functional Correlation     .... PBE
   PBE beta parameter  CBetaPBE         ....  0.066725
 LDA part of GGA corr.  LDAOpt          .... PW91-LDA
 Gradients option       PostSCFGGA      .... off
   Density functional embedding theory  .... OFF
   NL short-range parameter             ....  6.400000
 RI-approximation to the Coulomb term is turned on
   Number of AuxJ basis functions       .... 404


General Settings:
 Integral files         IntName         .... SVP_PBE_A_wt_dlpno_pos
 Hartree-Fock type      HFTyp           .... RHF
 Total Charge           Charge          ....    1
 Multiplicity           Mult            ....    1
 Number of Electrons    NEL             ....   48
 Basis Dimension        Dim             ....  134
 Nuclear Repulsion      ENuc            ....    259.2997836136 Eh

Convergence Acceleration:
 DIIS                   CNVDIIS         .... on
   Start iteration      DIISMaxIt       ....    12
   Startup error        DIISStart       ....  0.200000
   # of expansion vecs  DIISMaxEq       ....     5
   Bias factor          DIISBfac        ....   1.050
   Max. coefficient     DIISMaxC        ....  10.000
 Trust-Rad. Augm. Hess. CNVTRAH         .... auto
   Auto Start mean grad. ratio tolernc. ....  1.125000
   Auto Start start iteration           ....    20
   Auto Start num. interpolation iter.  ....    10
   Max. Number of Micro iterations      ....    16
   Max. Number of Macro iterations      .... Maxiter - #DIIS iter
   Number of Davidson start vectors     ....     2
   Converg. threshold I  (grad. norm)   ....   1.000e-05
   Converg. threshold II (energy diff.) ....   1.000e-08
   Grad. Scal. Fac. for Micro threshold ....   0.100
   Minimum threshold for Micro iter.    ....   0.010
   NR start threshold (gradient norm)   ....   0.001
   Initial trust radius                 ....   0.400
   Minimum AH scaling param. (alpha)    ....   1.000
   Maximum AH scaling param. (alpha)    .... 1000.000
   Orbital update algorithm             .... Taylor
   White noise on init. David. guess    .... on
   Maximum white noise                  ....   0.010
   Quad. conv. algorithm                .... NR
 SOSCF                  CNVSOSCF        .... on
   Start iteration      SOSCFMaxIt      ....   150
   Startup grad/error   SOSCFStart      ....  0.003300
 Level Shifting         CNVShift        .... on
   Level shift para.    LevelShift      ....    0.2500
   Turn off err/grad.   ShiftErr        ....    0.0010
 Zerner damping         CNVZerner       .... off
 Static damping         CNVDamp         .... on
   Fraction old density DampFac         ....    0.7000
   Max. Damping (<1)    DampMax         ....    0.9800
   Min. Damping (>=0)   DampMin         ....    0.0000
   Turn off err/grad.   DampErr         ....    0.1000
 Fernandez-Rico         CNVRico         .... off

SCF Procedure:
 Maximum # iterations   MaxIter         ....   150
 SCF integral mode      SCFMode         .... Direct
   Integral package                     .... SHARK and LIBINT hybrid scheme
 Reset frequency        DirectResetFreq ....    20
 Integral Threshold     Thresh          ....  2.500e-11 Eh
 Primitive CutOff       TCut            ....  2.500e-12 Eh

Convergence Tolerance:
 Convergence Check Mode ConvCheckMode   .... Total+1el-Energy
 Convergence forced     ConvForced      .... 0
 Energy Change          TolE            ....  1.000e-08 Eh
 1-El. energy change                    ....  1.000e-05 Eh
 Orbital Gradient       TolG            ....  1.000e-05
 Orbital Rotation angle TolX            ....  1.000e-05
 DIIS Error             TolErr          ....  5.000e-07


Diagonalization of the overlap matrix:
Smallest eigenvalue                        ... 2.411e-03
Time for diagonalization                   ...    0.005 sec
Threshold for overlap eigenvalues          ... 1.000e-08
Number of eigenvalues below threshold      ... 0
Time for construction of square roots      ...    0.004 sec
Total time needed                          ...    0.010 sec

Time for model grid setup =    0.085 sec

------------------------------
INITIAL GUESS: MODEL POTENTIAL
------------------------------
Loading Hartree-Fock densities                     ... done
Calculating cut-offs                               ... done
Initializing the effective Hamiltonian             ... done
Setting up the integral package (SHARK)            ... done
Starting the Coulomb interaction                   ... done (   0.0 sec)
Reading the grid                                   ... done
Mapping shells                                     ... done
Starting the XC term evaluation                    ... done (   0.1 sec)
  promolecular density results
     # of electrons  =     48.994975472
     EX              =    -38.004433384
     EC              =     -1.617893390
     EX+EC           =    -39.622326774
Transforming the Hamiltonian                       ... done (   0.0 sec)
Diagonalizing the Hamiltonian                      ... done (   0.0 sec)
Back transforming the eigenvectors                 ... done (   0.0 sec)
Now organizing SCF variables                       ... done
                      ------------------
                      INITIAL GUESS DONE (   0.2 sec)
                      ------------------
-------------------
DFT GRID GENERATION
-------------------

General Integration Accuracy     IntAcc      ... 4.388
Radial Grid Type                 RadialGrid  ... OptM3 with GC (2021)
Angular Grid (max. ang.)         AngularGrid ... 4 (Lebedev-302)
Angular grid pruning method      GridPruning ... 4 (adaptive)
Weight generation scheme         WeightScheme... Becke
Basis function cutoff            BFCut       ... 1.0000e-11
Integration weight cutoff        WCut        ... 1.0000e-14
Angular grids for H and He will be reduced by one unit
Partially contracted basis set               ... off
Rotationally invariant grid construction     ... off

Total number of grid points                  ...    68418
Total number of batches                      ...     1077
Average number of points per batch           ...       63
Average number of grid points per atom       ...     4276
Time for grid setup =    0.424 sec

--------------
SCF ITERATIONS
--------------
ITER       Energy         Delta-E        Max-DP      RMS-DP      [F,P]     Damp
               ***  Starting incremental Fock matrix formation  ***
  0   -283.6388385113   0.000000000000 0.07690484  0.00253656  0.1776973 0.7000
  1   -283.7285305416  -0.089692030345 0.04430877  0.00159166  0.0770516 0.7000
                               ***Turning on DIIS***
  2   -283.7584843427  -0.029953801049 0.04874347  0.00223634  0.0218678 0.0000
  3   -283.8046548401  -0.046170497395 0.03111813  0.00104893  0.0497747 0.0000
  4   -283.8176509568  -0.012996116732 0.00970341  0.00032394  0.0112091 0.0000
                      *** Initiating the SOSCF procedure ***
                           *** Shutting down DIIS ***
                      *** Re-Reading the Fockian *** 
                      *** Removing any level shift *** 
ITER      Energy       Delta-E        Grad      Rot      Max-DP    RMS-DP
  5   -283.81830586  -0.0006549038  0.001092  0.001092  0.002397  0.000116
               *** Restarting incremental Fock matrix formation ***
  6   -283.81836301  -0.0000571464  0.000333  0.001736  0.001916  0.000074
  7   -283.81836436  -0.0000013563  0.000317  0.000622  0.001139  0.000026
  8   -283.81836809  -0.0000037278  0.000120  0.000377  0.000453  0.000018
  9   -283.81836782   0.0000002688  0.000193  0.000326  0.000339  0.000009
 10   -283.81836846  -0.0000006419  0.000029  0.000125  0.000151  0.000005
 11   -283.81836848  -0.0000000175  0.000016  0.000026  0.000047  0.000002
 12   -283.81836850  -0.0000000140  0.000007  0.000023  0.000027  0.000001
 13   -283.81836850   0.0000000001  0.000006  0.000013  0.000014  0.000001
 14   -283.81836850  -0.0000000030  0.000003  0.000010  0.000009  0.000000
 15   -283.81836850   0.0000000008  0.000004  0.000006  0.000006  0.000000
                  ***Gradient check signals convergence***
              ***Rediagonalizing the Fockian in SOSCF/NRSCF***

               *****************************************************
               *                     SUCCESS                       *
               *           SCF CONVERGED AFTER  16 CYCLES          *
               *****************************************************


----------------
TOTAL SCF ENERGY
----------------

Total Energy       :         -283.81836850 Eh           -7723.09044 eV

Components:
Nuclear Repulsion  :          259.29978361 Eh            7055.90583 eV
Electronic Energy  :         -543.11815211 Eh          -14778.99627 eV
One Electron Energy:         -886.86522022 Eh          -24132.82953 eV
Two Electron Energy:          343.74706811 Eh            9353.83326 eV

Virial components:
Potential Energy   :         -564.96973583 Eh          -15373.60809 eV
Kinetic Energy     :          281.15136733 Eh            7650.51765 eV
Virial Ratio       :            2.00948600


DFT components:
N(Alpha)           :       23.999992740908 electrons
N(Beta)            :       23.999992740908 electrons
N(Total)           :       47.999985481815 electrons
E(X)               :      -38.577588544875 Eh       
E(C)               :       -1.601768306158 Eh       
E(XC)              :      -40.179356851033 Eh       
DFET-embed. en.    :        0.000000000000 Eh       

---------------
SCF CONVERGENCE
---------------

  Last Energy change         ...   -1.0346e-10  Tolerance :   1.0000e-08
  Last MAX-Density change    ...    1.7811e-06  Tolerance :   1.0000e-07
  Last RMS-Density change    ...    4.6426e-08  Tolerance :   5.0000e-09
  Last Orbital Gradient      ...    3.5339e-07  Tolerance :   1.0000e-05
  Last Orbital Rotation      ...    1.0728e-06  Tolerance :   1.0000e-05

             **** THE GBW FILE WAS UPDATED (SVP_PBE_A_wt_dlpno_pos.gbw) ****
             **** DENSITY SVP_PBE_A_wt_dlpno_pos.scfp WAS UPDATED ****
             **** ENERGY FILE WAS UPDATED (SVP_PBE_A_wt_dlpno_pos.en.tmp) ****
             **** THE GBW FILE WAS UPDATED (SVP_PBE_A_wt_dlpno_pos.gbw) ****
             **** DENSITY SVP_PBE_A_wt_dlpno_pos.scfp WAS UPDATED ****
----------------
ORBITAL ENERGIES
----------------

  NO   OCC          E(Eh)            E(eV) 
   0   2.0000     -14.225429      -387.0936 
   1   2.0000     -14.221533      -386.9876 
   2   2.0000     -14.219366      -386.9286 
   3   2.0000     -10.218592      -278.0620 
   4   2.0000     -10.103188      -274.9217 
   5   2.0000     -10.037869      -273.1443 
   6   2.0000      -1.126601       -30.6564 
   7   2.0000      -1.019954       -27.7544 
   8   2.0000      -1.015118       -27.6228 
   9   2.0000      -0.853921       -23.2364 
  10   2.0000      -0.778233       -21.1768 
  11   2.0000      -0.742055       -20.1923 
  12   2.0000      -0.729741       -19.8573 
  13   2.0000      -0.685409       -18.6509 
  14   2.0000      -0.650624       -17.7044 
  15   2.0000      -0.635767       -17.3001 
  16   2.0000      -0.601849       -16.3771 
  17   2.0000      -0.572371       -15.5750 
  18   2.0000      -0.553904       -15.0725 
  19   2.0000      -0.523521       -14.2457 
  20   2.0000      -0.490373       -13.3437 
  21   2.0000      -0.472201       -12.8492 
  22   2.0000      -0.443284       -12.0624 
  23   2.0000      -0.410614       -11.1734 
  24   0.0000      -0.219187        -5.9644 
  25   0.0000      -0.162962        -4.4344 
  26   0.0000      -0.132824        -3.6143 
  27   0.0000      -0.118822        -3.2333 
  28   0.0000      -0.102365        -2.7855 
  29   0.0000      -0.075100        -2.0436 
  30   0.0000      -0.068039        -1.8514 
  31   0.0000      -0.042427        -1.1545 
  32   0.0000      -0.025206        -0.6859 
  33   0.0000      -0.019863        -0.5405 
  34   0.0000      -0.009371        -0.2550 
  35   0.0000       0.011346         0.3087 
  36   0.0000       0.029816         0.8113 
  37   0.0000       0.043061         1.1717 
  38   0.0000       0.129453         3.5226 
  39   0.0000       0.135847         3.6966 
  40   0.0000       0.152710         4.1554 
  41   0.0000       0.227777         6.1981 
  42   0.0000       0.239422         6.5150 
  43   0.0000       0.244784         6.6609 
  44   0.0000       0.250691         6.8217 
  45   0.0000       0.269000         7.3199 
  46   0.0000       0.307873         8.3777 
  47   0.0000       0.335562         9.1311 
  48   0.0000       0.336058         9.1446 
  49   0.0000       0.360685         9.8147 
  50   0.0000       0.389349        10.5947 
  51   0.0000       0.431338        11.7373 
  52   0.0000       0.433461        11.7951 
  53   0.0000       0.444859        12.1052 
  54   0.0000       0.467660        12.7257 
  55   0.0000       0.475866        12.9490 
  56   0.0000       0.494650        13.4601 
  57   0.0000       0.497962        13.5502 
  58   0.0000       0.509395        13.8613 
  59   0.0000       0.516593        14.0572 
  60   0.0000       0.533668        14.5218 
  61   0.0000       0.544406        14.8140 
  62   0.0000       0.582579        15.8528 
  63   0.0000       0.612933        16.6788 
  64   0.0000       0.627335        17.0707 
  65   0.0000       0.649204        17.6657 
  66   0.0000       0.684903        18.6371 
  67   0.0000       0.735132        20.0040 
  68   0.0000       0.756818        20.5941 
  69   0.0000       0.803456        21.8632 
  70   0.0000       0.821845        22.3635 
  71   0.0000       0.879324        23.9276 
  72   0.0000       0.908597        24.7242 
  73   0.0000       0.947821        25.7915 
  74   0.0000       1.002888        27.2900 
  75   0.0000       1.047451        28.5026 
  76   0.0000       1.064465        28.9656 
  77   0.0000       1.120766        30.4976 
  78   0.0000       1.147494        31.2249 
  79   0.0000       1.230616        33.4868 
  80   0.0000       1.294756        35.2321 
  81   0.0000       1.313349        35.7381 
  82   0.0000       1.340390        36.4739 
  83   0.0000       1.422547        38.7095 
  84   0.0000       1.439048        39.1585 
  85   0.0000       1.450293        39.4645 
  86   0.0000       1.510072        41.0911 
  87   0.0000       1.543937        42.0127 
  88   0.0000       1.551087        42.2072 
  89   0.0000       1.560240        42.4563 
  90   0.0000       1.563065        42.5332 
  91   0.0000       1.584186        43.1079 
  92   0.0000       1.606317        43.7101 
  93   0.0000       1.611572        43.8531 
  94   0.0000       1.628548        44.3150 
  95   0.0000       1.632764        44.4298 
  96   0.0000       1.651830        44.9486 
  97   0.0000       1.666077        45.3363 
  98   0.0000       1.680510        45.7290 
  99   0.0000       1.720446        46.8157 
 100   0.0000       1.728917        47.0462 
 101   0.0000       1.741496        47.3885 
 102   0.0000       1.850826        50.3635 
 103   0.0000       1.858754        50.5793 
 104   0.0000       1.893907        51.5358 
 105   0.0000       1.950793        53.0838 
 106   0.0000       1.955804        53.2201 
 107   0.0000       2.006317        54.5947 
 108   0.0000       2.030110        55.2421 
 109   0.0000       2.063784        56.1584 
 110   0.0000       2.153009        58.5864 
 111   0.0000       2.187356        59.5210 
 112   0.0000       2.271850        61.8202 
 113   0.0000       2.278611        62.0042 
 114   0.0000       2.318793        63.0976 
 115   0.0000       2.391715        65.0819 
 116   0.0000       2.408164        65.5295 
 117   0.0000       2.455059        66.8056 
 118   0.0000       2.473888        67.3179 
 119   0.0000       2.522848        68.6502 
 120   0.0000       2.547567        69.3228 
 121   0.0000       2.639380        71.8212 
 122   0.0000       2.673231        72.7423 
 123   0.0000       2.695310        73.3431 
 124   0.0000       2.726181        74.1832 
 125   0.0000       2.729522        74.2741 
 126   0.0000       2.793266        76.0086 
 127   0.0000       2.819087        76.7112 
 128   0.0000       2.854571        77.6768 
 129   0.0000       2.881380        78.4063 
 130   0.0000       2.943501        80.0967 
 131   0.0000       2.979431        81.0745 
 132   0.0000       3.248392        88.3932 
 133   0.0000       3.346574        91.0649 

                    ********************************
                    * MULLIKEN POPULATION ANALYSIS *
                    ********************************

-----------------------
MULLIKEN ATOMIC CHARGES
-----------------------
   0 C :   -0.009364
   1 N :   -0.090642
   2 C :   -0.028496
   3 N :    0.014728
   4 N :    0.031041
   5 H :    0.157552
   6 H :    0.159785
   7 H :    0.152869
   8 H :    0.162246
   9 H :    0.169489
  10 C :   -0.014551
  11 H :    0.082201
  12 H :    0.050081
  13 H :    0.033870
  14 H :    0.052088
  15 H :    0.077103
Sum of atomic charges:    1.0000000

--------------------------------
MULLIKEN REDUCED ORBITAL CHARGES
--------------------------------
  0 C s       :     3.049810  s :     3.049810
      pz      :     0.810655  p :     2.913064
      px      :     1.044029
      py      :     1.058380
      dz2     :     0.013263  d :     0.046490
      dxz     :     0.007915
      dyz     :     0.011634
      dx2y2   :     0.004958
      dxy     :     0.008720
  1 N s       :     3.352501  s :     3.352501
      pz      :     1.091337  p :     3.717150
      px      :     1.065143
      py      :     1.560669
      dz2     :     0.005802  d :     0.020991
      dxz     :     0.005606
      dyz     :     0.004411
      dx2y2   :     0.001987
      dxy     :     0.003185
  2 C s       :     3.014141  s :     3.014141
      pz      :     0.935367  p :     2.908688
      px      :     1.017465
      py      :     0.955855
      dz2     :     0.021440  d :     0.105668
      dxz     :     0.027758
      dyz     :     0.017931
      dx2y2   :     0.018914
      dxy     :     0.019625
  3 N s       :     3.292575  s :     3.292575
      pz      :     1.341596  p :     3.677869
      px      :     1.039259
      py      :     1.297014
      dz2     :     0.002033  d :     0.014829
      dxz     :     0.002728
      dyz     :     0.002166
      dx2y2   :     0.002987
      dxy     :     0.004915
  4 N s       :     3.301547  s :     3.301547
      pz      :     1.283918  p :     3.650554
      px      :     1.091597
      py      :     1.275039
      dz2     :     0.003643  d :     0.016858
      dxz     :     0.004018
      dyz     :     0.003736
      dx2y2   :     0.000842
      dxy     :     0.004619
  5 H s       :     0.796037  s :     0.796037
      pz      :     0.010284  p :     0.046411
      px      :     0.021332
      py      :     0.014796
  6 H s       :     0.792736  s :     0.792736
      pz      :     0.016412  p :     0.047479
      px      :     0.016184
      py      :     0.014884
  7 H s       :     0.802818  s :     0.802818
      pz      :     0.006995  p :     0.044313
      px      :     0.024473
      py      :     0.012846
  8 H s       :     0.790955  s :     0.790955
      pz      :     0.019337  p :     0.046799
      px      :     0.010079
      py      :     0.017383
  9 H s       :     0.784110  s :     0.784110
      pz      :     0.014629  p :     0.046402
      px      :     0.017273
      py      :     0.014499
 10 C s       :     2.993697  s :     2.993697
      pz      :     1.022192  p :     2.996327
      px      :     1.032254
      py      :     0.941881
      dz2     :     0.004993  d :     0.024527
      dxz     :     0.003496
      dyz     :     0.004965
      dx2y2   :     0.004704
      dxy     :     0.006370
 11 H s       :     0.895893  s :     0.895893
      pz      :     0.005821  p :     0.021905
      px      :     0.007819
      py      :     0.008265
 12 H s       :     0.927336  s :     0.927336
      pz      :     0.003698  p :     0.022582
      px      :     0.012307
      py      :     0.006577
 13 H s       :     0.941171  s :     0.941171
      pz      :     0.007434  p :     0.024959
      px      :     0.008774
      py      :     0.008751
 14 H s       :     0.922797  s :     0.922797
      pz      :     0.005598  p :     0.025115
      px      :     0.013023
      py      :     0.006494
 15 H s       :     0.897674  s :     0.897674
      pz      :     0.013623  p :     0.025222
      px      :     0.006797
      py      :     0.004803


                     *******************************
                     * LOEWDIN POPULATION ANALYSIS *
                     *******************************

----------------------
LOEWDIN ATOMIC CHARGES
----------------------
   0 C :    0.032579
   1 N :    0.036226
   2 C :    0.103623
   3 N :    0.081208
   4 N :    0.066599
   5 H :    0.104965
   6 H :    0.107849
   7 H :    0.099831
   8 H :    0.106433
   9 H :    0.111791
  10 C :   -0.054661
  11 H :    0.051274
  12 H :    0.032483
  13 H :    0.028148
  14 H :    0.036892
  15 H :    0.054761

-------------------------------
LOEWDIN REDUCED ORBITAL CHARGES
-------------------------------
  0 C s       :     2.836671  s :     2.836671
      pz      :     0.882889  p :     3.019765
      px      :     1.063906
      py      :     1.072970
      dz2     :     0.031430  d :     0.110985
      dxz     :     0.018069
      dyz     :     0.028631
      dx2y2   :     0.013278
      dxy     :     0.019576
  1 N s       :     3.059488  s :     3.059488
      pz      :     1.154971  p :     3.851055
      px      :     1.164561
      py      :     1.531523
      dz2     :     0.015678  d :     0.053231
      dxz     :     0.016644
      dyz     :     0.008833
      dx2y2   :     0.005219
      dxy     :     0.006857
  2 C s       :     2.800455  s :     2.800455
      pz      :     0.964356  p :     2.860391
      px      :     0.976614
      py      :     0.919420
      dz2     :     0.047620  d :     0.235532
      dxz     :     0.065244
      dyz     :     0.038855
      dx2y2   :     0.041385
      dxy     :     0.042428
  3 N s       :     3.021649  s :     3.021649
      pz      :     1.369959  p :     3.854295
      px      :     1.141994
      py      :     1.342342
      dz2     :     0.005267  d :     0.042849
      dxz     :     0.009080
      dyz     :     0.005247
      dx2y2   :     0.008744
      dxy     :     0.014511
  4 N s       :     3.050412  s :     3.050412
      pz      :     1.338215  p :     3.838229
      px      :     1.196221
      py      :     1.303792
      dz2     :     0.008183  d :     0.044760
      dxz     :     0.010551
      dyz     :     0.009273
      dx2y2   :     0.003031
      dxy     :     0.013723
  5 H s       :     0.773962  s :     0.773962
      pz      :     0.027916  p :     0.121073
      px      :     0.053495
      py      :     0.039662
  6 H s       :     0.769298  s :     0.769298
      pz      :     0.041607  p :     0.122852
      px      :     0.042268
      py      :     0.038977
  7 H s       :     0.776568  s :     0.776568
      pz      :     0.017882  p :     0.123602
      px      :     0.065325
      py      :     0.040395
  8 H s       :     0.769395  s :     0.769395
      pz      :     0.054818  p :     0.124172
      px      :     0.022358
      py      :     0.046997
  9 H s       :     0.765578  s :     0.765578
      pz      :     0.038787  p :     0.122632
      px      :     0.042885
      py      :     0.040959
 10 C s       :     2.827558  s :     2.827558
      pz      :     1.067890  p :     3.158830
      px      :     1.079714
      py      :     1.011227
      dz2     :     0.013654  d :     0.068274
      dxz     :     0.009507
      dyz     :     0.015050
      dx2y2   :     0.014356
      dxy     :     0.015706
 11 H s       :     0.880800  s :     0.880800
      pz      :     0.018772  p :     0.067926
      px      :     0.022723
      py      :     0.026431
 12 H s       :     0.899079  s :     0.899079
      pz      :     0.010566  p :     0.068438
      px      :     0.037588
      py      :     0.020284
 13 H s       :     0.900782  s :     0.900782
      pz      :     0.021168  p :     0.071070
      px      :     0.023965
      py      :     0.025937
 14 H s       :     0.891703  s :     0.891703
      pz      :     0.014592  p :     0.071405
      px      :     0.037975
      py      :     0.018837
 15 H s       :     0.873658  s :     0.873658
      pz      :     0.039971  p :     0.071580
      px      :     0.017787
      py      :     0.013822


                      *****************************
                      * MAYER POPULATION ANALYSIS *
                      *****************************

  NA   - Mulliken gross atomic population
  ZA   - Total nuclear charge
  QA   - Mulliken gross atomic charge
  VA   - Mayer's total valence
  BVA  - Mayer's bonded valence
  FA   - Mayer's free valence

  ATOM       NA         ZA         QA         VA         BVA        FA
  0 C      6.0094     6.0000    -0.0094     4.0654     4.0654     0.0000
  1 N      7.0906     7.0000    -0.0906     3.3363     3.3363    -0.0000
  2 C      6.0285     6.0000    -0.0285     4.4287     4.4287     0.0000
  3 N      6.9853     7.0000     0.0147     3.3935     3.3935    -0.0000
  4 N      6.9690     7.0000     0.0310     3.3338     3.3338    -0.0000
  5 H      0.8424     1.0000     0.1576     0.9985     0.9985    -0.0000
  6 H      0.8402     1.0000     0.1598     0.9978     0.9978    -0.0000
  7 H      0.8471     1.0000     0.1529     0.9922     0.9922    -0.0000
  8 H      0.8378     1.0000     0.1622     1.0085     1.0085    -0.0000
  9 H      0.8305     1.0000     0.1695     0.9897     0.9897    -0.0000
 10 C      6.0146     6.0000    -0.0146     3.9961     3.9961     0.0000
 11 H      0.9178     1.0000     0.0822     0.9778     0.9778     0.0000
 12 H      0.9499     1.0000     0.0501     0.9945     0.9945     0.0000
 13 H      0.9661     1.0000     0.0339     0.9959     0.9959     0.0000
 14 H      0.9479     1.0000     0.0521     0.9963     0.9963    -0.0000
 15 H      0.9229     1.0000     0.0771     0.9948     0.9948     0.0000

  Mayer bond orders larger than 0.100000
B(  0-C ,  1-N ) :   0.9677 B(  0-C , 10-C ) :   1.1051 B(  0-C , 11-H ) :   0.9398 
B(  0-C , 12-H ) :   0.9437 B(  1-N ,  2-C ) :   1.3473 B(  1-N ,  7-H ) :   0.9071 
B(  2-C ,  3-N ) :   1.4141 B(  2-C ,  4-N ) :   1.3828 B(  3-N ,  8-H ) :   0.9223 
B(  3-N ,  9-H ) :   0.9248 B(  4-N ,  5-H ) :   0.9263 B(  4-N ,  6-H ) :   0.9276 
B( 10-C , 13-H ) :   0.9633 B( 10-C , 14-H ) :   0.9649 B( 10-C , 15-H ) :   0.9529 


-------
TIMINGS
-------

Total SCF time: 0 days 0 hours 0 min 4 sec 

Total time                  ....       4.604 sec
Sum of individual times     ....       4.452 sec  ( 96.7%)

Fock matrix formation       ....       3.752 sec  ( 81.5%)
  Split-RI-J                ....       0.987 sec  ( 26.3% of F)
  XC integration            ....       2.732 sec  ( 72.8% of F)
    Basis function eval.    ....       1.163 sec  ( 42.6% of XC)
    Density eval.           ....       0.564 sec  ( 20.6% of XC)
    XC-Functional eval.     ....       0.280 sec  ( 10.3% of XC)
    XC-Potential eval.      ....       0.499 sec  ( 18.3% of XC)
Diagonalization             ....       0.028 sec  (  0.6%)
Density matrix formation    ....       0.004 sec  (  0.1%)
Population analysis         ....       0.006 sec  (  0.1%)
Initial guess               ....       0.096 sec  (  2.1%)
Orbital Transformation      ....       0.000 sec  (  0.0%)
Orbital Orthonormalization  ....       0.000 sec  (  0.0%)
DIIS solution               ....       0.019 sec  (  0.4%)
SOSCF solution              ....       0.038 sec  (  0.8%)
Grid generation             ....       0.509 sec  ( 11.1%)

Maximum memory used throughout the entire SCF-calculation: 19.2 MB


-------------------------------------------------------------------------------
                          DFT DISPERSION CORRECTION                            
                                                                               
                              DFTD3 V3.1  Rev 1                                
                          USING Becke-Johnson damping                          
-------------------------------------------------------------------------------
The PBE functional is recognized
Active option DFTDOPT                   ...         4   

molecular C6(AA) [au] = 1841.078554 


            DFT-D V3
 parameters
 s6 scaling factor         :     1.0000 
 a1 scaling factor         :     0.4289 
 s8 scaling factor         :     0.7875 
 a2 scaling factor         :     4.4407 
 ad hoc parameters k1-k3   :    16.0000     1.3333    -4.0000 

 Edisp/kcal,au: -7.802337378750  -0.012433814737 
 E6   /kcal   :  -5.677278836 
 E8   /kcal   :  -2.125058543 
 % E8         :  27.236178596 

-------------------------   ----------------
Dispersion correction           -0.012433815
-------------------------   ----------------


-------------------------   --------------------
FINAL SINGLE POINT ENERGY      -283.830802312684
-------------------------   --------------------


                            ***************************************
                            *     ORCA property calculations      *
                            ***************************************

                                    ---------------------
                                    Active property flags
                                    ---------------------
   (+) Dipole Moment


------------------------------------------------------------------------------
                       ORCA ELECTRIC PROPERTIES CALCULATION
------------------------------------------------------------------------------

Dipole Moment Calculation                       ... on
Quadrupole Moment Calculation                   ... off
Polarizability Calculation                      ... off
GBWName                                         ... SVP_PBE_A_wt_dlpno_pos.gbw
Electron density file                           ... SVP_PBE_A_wt_dlpno_pos.scfp
The origin for moment calculation is the CENTER OF MASS  = ( 3.884044, -4.682713 -7.387513)

-------------
DIPOLE MOMENT
-------------
                                X             Y             Z
Electronic contribution:      0.17912      -1.65556      -5.25058
Nuclear contribution   :     -0.59121       2.30298       4.63196
                        -----------------------------------------
Total Dipole Moment    :     -0.41209       0.64742      -0.61862
                        -----------------------------------------
Magnitude (a.u.)       :      0.98573
Magnitude (Debye)      :      2.50552



--------------------
Rotational spectrum 
--------------------
 
Rotational constants in cm-1:     0.205874     0.074757     0.066901 
Rotational constants in MHz :  6171.937773  2241.151057  2005.629823 

 Dipole components along the rotational axes: 
x,y,z [a.u.] :    -0.644969     0.093476     0.739552 
x,y,z [Debye]:    -1.639381     0.237597     1.879791 

 

Timings for individual modules:

Sum of individual times         ...        8.365 sec (=   0.139 min)
GTO integral calculation        ...        2.285 sec (=   0.038 min)  27.3 %
SCF iterations                  ...        6.079 sec (=   0.101 min)  72.7 %
                             ****ORCA TERMINATED NORMALLY****
TOTAL RUN TIME: 0 days 0 hours 0 minutes 8 seconds 926 msec
