
                                        *****************
                                        * O   R   C   A *
                                        *****************

                                            #,                                       
                                            ###                                      
                                            ####                                     
                                            #####                                    
                                            ######                                   
                                           ########,                                 
                                     ,,################,,,,,                         
                               ,,#################################,,                 
                          ,,##########################################,,             
                       ,#########################################, ''#####,          
                    ,#############################################,,   '####,        
                  ,##################################################,,,,####,       
                ,###########''''           ''''###############################       
              ,#####''   ,,,,##########,,,,          '''####'''          '####       
            ,##' ,,,,###########################,,,                        '##       
           ' ,,###''''                  '''############,,,                           
         ,,##''                                '''############,,,,        ,,,,,,###''
      ,#''                                            '''#######################'''  
     '                                                          ''''####''''         
             ,#######,   #######,   ,#######,      ##                                
            ,#'     '#,  ##    ##  ,#'     '#,    #''#        ######   ,####,        
            ##       ##  ##   ,#'  ##            #'  '#       #        #'  '#        
            ##       ##  #######   ##           ,######,      #####,   #    #        
            '#,     ,#'  ##    ##  '#,     ,#' ,#      #,         ##   #,  ,#        
             '#######'   ##     ##  '#######'  #'      '#     #####' # '####'        



                  #######################################################
                  #                        -***-                        #
                  #          Department of theory and spectroscopy      #
                  #    Directorship and core code : Frank Neese         #
                  #        Max Planck Institute fuer Kohlenforschung    #
                  #                Kaiser Wilhelm Platz 1               #
                  #                 D-45470 Muelheim/Ruhr               #
                  #                      Germany                        #
                  #                                                     #
                  #                  All rights reserved                #
                  #                        -***-                        #
                  #######################################################


                         Program Version 5.0.0 -  RELEASE  -
                                (SVN: $Rev: 19529$)
                ($Date: 2021-06-28 11:36:33 +0200 (Mo, 28 Jun 2021) $)


 With contributions from (in alphabetic order):
   Daniel Aravena         : Magnetic Suceptibility
   Michael Atanasov       : Ab Initio Ligand Field Theory (pilot matlab implementation)
   Alexander A. Auer      : GIAO ZORA, VPT2 properties, NMR spectrum
   Ute Becker             : Parallelization
   Giovanni Bistoni       : ED, misc. LED, open-shell LED, HFLD
   Martin Brehm           : Molecular dynamics
   Dmytro Bykov           : SCF Hessian
   Vijay G. Chilkuri      : MRCI spin determinant printing, contributions to CSF-ICE
   Dipayan Datta          : RHF DLPNO-CCSD density
   Achintya Kumar Dutta   : EOM-CC, STEOM-CC
   Dmitry Ganyushin       : Spin-Orbit,Spin-Spin,Magnetic field MRCI
   Miquel Garcia          : C-PCM Hessian, Gaussian charge scheme
   Yang Guo               : DLPNO-NEVPT2, F12-NEVPT2, CIM, IAO-localization
   Andreas Hansen         : Spin unrestricted coupled pair/coupled cluster methods
   Benjamin Helmich-Paris : MC-RPA, TRAH-SCF, COSX integrals
   Lee Huntington         : MR-EOM, pCC
   Robert Izsak           : Overlap fitted RIJCOSX, COSX-SCS-MP3, EOM
   Marcus Kettner         : VPT2
   Christian Kollmar      : KDIIS, OOCD, Brueckner-CCSD(T), CCSD density, CASPT2, CASPT2-K
   Simone Kossmann        : Meta GGA functionals, TD-DFT gradient, OOMP2, MP2 Hessian
   Martin Krupicka        : Initial AUTO-CI
   Lucas Lang             : DCDCAS
   Marvin Lechner         : AUTO-CI (C++ implementation), FIC-MRCC
   Dagmar Lenk            : GEPOL surface, SMD
   Dimitrios Liakos       : Extrapolation schemes; Compound Job, initial MDCI parallelization
   Dimitrios Manganas     : Further ROCIS development; embedding schemes
   Dimitrios Pantazis     : SARC Basis sets
   Anastasios Papadopoulos: AUTO-CI, single reference methods and gradients
   Taras Petrenko         : DFT Hessian,TD-DFT gradient, ASA, ECA, R-Raman, ABS, FL, XAS/XES, NRVS
   Peter Pinski           : DLPNO-MP2, DLPNO-MP2 Gradient
   Christoph Reimann      : Effective Core Potentials
   Marius Retegan         : Local ZFS, SOC
   Christoph Riplinger    : Optimizer, TS searches, QM/MM, DLPNO-CCSD(T), (RO)-DLPNO pert. Triples
   Tobias Risthaus        : Range-separated hybrids, TD-DFT gradient, RPA, STAB
   Michael Roemelt        : Original ROCIS implementation
   Masaaki Saitow         : Open-shell DLPNO-CCSD energy and density
   Barbara Sandhoefer     : DKH picture change effects
   Avijit Sen             : IP-ROCIS
   Kantharuban Sivalingam : CASSCF convergence, NEVPT2, FIC-MRCI
   Bernardo de Souza      : ESD, SOC TD-DFT
   Georgi Stoychev        : AutoAux, RI-MP2 NMR
   Willem Van den Heuvel  : Paramagnetic NMR
   Boris Wezisla          : Elementary symmetry handling
   Frank Wennmohs         : Technical directorship


 We gratefully acknowledge several colleagues who have allowed us to
 interface, adapt or use parts of their codes:
   Stefan Grimme, W. Hujo, H. Kruse, P. Pracht,  : VdW corrections, initial TS optimization,
                  C. Bannwarth, S. Ehlert          DFT functionals, gCP, sTDA/sTD-DF
   Ed Valeev, F. Pavosevic, A. Kumar             : LibInt (2-el integral package), F12 methods
   Garnet Chan, S. Sharma, J. Yang, R. Olivares  : DMRG
   Ulf Ekstrom                                   : XCFun DFT Library
   Mihaly Kallay                                 : mrcc  (arbitrary order and MRCC methods)
   Jiri Pittner, Ondrej Demel                    : Mk-CCSD
   Frank Weinhold                                : gennbo (NPA and NBO analysis)
   Christopher J. Cramer and Donald G. Truhlar   : smd solvation model
   Lars Goerigk                                  : TD-DFT with DH, B97 family of functionals
   V. Asgeirsson, H. Jonsson                     : NEB implementation
   FAccTs GmbH                                   : IRC, NEB, NEB-TS, DLPNO-Multilevel, CI-OPT
                                                   MM, QMMM, 2- and 3-layer-ONIOM, Crystal-QMMM,
                                                   LR-CPCM, SF, NACMEs, symmetry and pop. for TD-DFT,
                                                   nearIR, NL-DFT gradient (VV10), updates on ESD,
                                                   ML-optimized integration grids
   S Lehtola, MJT Oliveira, MAL Marques          : LibXC Library
   Liviu Ungur et al                             : ANISO software


 Your calculation uses the libint2 library for the computation of 2-el integrals
 For citations please refer to: http://libint.valeyev.net

 Your ORCA version has been built with support for libXC version: 5.1.0
 For citations please refer to: https://tddft.org/programs/libxc/

 This ORCA versions uses:
   CBLAS   interface :  Fast vector & matrix operations
   LAPACKE interface :  Fast linear algebra routines
   SCALAPACK package :  Parallel linear algebra routines
   Shared memory     :  Shared parallel matrices
   BLAS/LAPACK       :  OpenBLAS 0.3.15  USE64BITINT DYNAMIC_ARCH NO_AFFINITY Haswell SINGLE_THREADED
        Core in use  :  Haswell
   Copyright (c) 2011-2014, The OpenBLAS Project




***************************************
The coordinates will be read from file: D2.xyz
***************************************


Your calculation utilizes the atom-pairwise dispersion correction
with the Becke-Johnson damping scheme (D3BJ)
Cite in your paper:
S.Grimme, S.Ehrlich, L.Goerigk, J Comput Chem, (2011), 32, 1456–1465 
S.Grimme, J.Antony, S.Ehrlich and H.Krieg, J.Chem.Phys., 132, (2010), 154104 
   

================================================================================

----- Orbital basis set information -----
Your calculation utilizes the basis: def2-TZVPD
   F. Weigend and R. Ahlrichs, Phys. Chem. Chem. Phys. 7, 3297 (2005).
   D. Rappoport and F. Furche, J. Chem. Phys. 133 134105 (2010).

----- AuxJ basis set information -----
Your calculation utilizes the auxiliary basis: def2/J
   F. Weigend, Phys. Chem. Chem. Phys. 8, 1057 (2006).

================================================================================
                                        WARNINGS
                       Please study these warnings very carefully!
================================================================================


INFO   : the flag for use of the SHARK integral package has been found!

================================================================================
                                       INPUT FILE
================================================================================
NAME = 28Oct_TZVPD_B3LYP_D2_wb97.com
|  1> !B3LYP D3BJ RIJCOSX def2-TZVPD def2/J TightSCF xyzfile                                                                                         
|  2> 
|  3> *xyzfile 0 1 D2.xyz
|  4> 
|  5> %MaxCore 64000
|  6> 
|  7> %pal nprocs 4                                                                                                                                                  
|  8> end  
|  9> 
| 10> %scf
| 11>   MaxIter 150
| 12> end
| 13> 
| 14> 
| 15>                          ****END OF INPUT****
================================================================================

                       ****************************
                       * Single Point Calculation *
                       ****************************

---------------------------------
CARTESIAN COORDINATES (ANGSTROEM)
---------------------------------
  C      1.635557   -1.670396   -5.292109
  C      0.338484   -1.500907   -4.505398
  N      2.484511   -0.507410   -5.140392
  C     -0.684873   -0.528026   -5.099889
  C     -0.290406    0.951335   -5.153423
  H      0.607991    1.070692   -5.764412
  C     -0.055168    1.619420   -3.788577
  H     -1.080912    1.483775   -5.689436
  H      0.045006    0.862302   -3.003015
  H     -0.922936    2.230329   -3.517028
  C      1.223022    2.469865   -3.756911
  H      1.114701    3.258074   -4.532999
  H      1.237732    3.011242   -2.792157
  F      2.353815    1.712032   -3.934477
  H      1.398337   -1.829239   -6.352591
  H      2.155864   -2.565398   -4.932091
  C      3.451149   -0.149530   -5.952589
  C      3.922667    1.089559   -5.850711
  N      3.966162   -1.006183   -6.867880
  H      3.521391   -1.906467   -6.995270
  H      4.444824   -0.623472   -7.670348
  H      2.251995    0.240804   -4.498792
  H      3.464277    1.640782   -5.136392
  H      4.834470    1.313745   -6.224653
  H     -0.937999   -0.869056   -6.110838
  H     -1.604638   -0.622496   -4.513132
  H      0.594887   -1.211578   -3.482312
  H     -0.126530   -2.487656   -4.434176

----------------------------
CARTESIAN COORDINATES (A.U.)
----------------------------
  NO LB      ZA    FRAG     MASS         X           Y           Z
   0 C     6.0000    0    12.011    3.090755   -3.156591  -10.000637
   1 C     6.0000    0    12.011    0.639642   -2.836304   -8.513969
   2 N     7.0000    0    14.007    4.695045   -0.958866   -9.713933
   3 C     6.0000    0    12.011   -1.294222   -0.997824   -9.637394
   4 C     6.0000    0    12.011   -0.548788    1.797763   -9.738559
   5 H     1.0000    0     1.008    1.148937    2.023315  -10.893161
   6 C     6.0000    0    12.011   -0.104252    3.060259   -7.159373
   7 H     1.0000    0     1.008   -2.042628    2.803928  -10.751477
   8 H     1.0000    0     1.008    0.085049    1.629515   -5.674875
   9 H     1.0000    0     1.008   -1.744097    4.214711   -6.646220
  10 C     6.0000    0    12.011    2.311176    4.667369   -7.099534
  11 H     1.0000    0     1.008    2.106480    6.156868   -8.566127
  12 H     1.0000    0     1.008    2.338974    5.690423   -5.276413
  13 F     9.0000    0    18.998    4.448065    3.235272   -7.435084
  14 H     1.0000    0     1.008    2.642475   -3.456761  -12.004657
  15 H     1.0000    0     1.008    4.073993   -4.847900   -9.320301
  16 C     6.0000    0    12.011    6.521727   -0.282570  -11.248764
  17 C     6.0000    0    12.011    7.412767    2.058969  -11.056241
  18 N     7.0000    0    14.007    7.494960   -1.901411  -12.978412
  19 H     1.0000    0     1.008    6.654464   -3.602700  -13.219144
  20 H     1.0000    0     1.008    8.399500   -1.178191  -14.494857
  21 H     1.0000    0     1.008    4.255654    0.455053   -8.501485
  22 H     1.0000    0     1.008    6.546536    3.100628   -9.706375
  23 H     1.0000    0     1.008    9.135824    2.482619  -11.762890
  24 H     1.0000    0     1.008   -1.772561   -1.642279  -11.547810
  25 H     1.0000    0     1.008   -3.032327   -1.176347   -8.528583
  26 H     1.0000    0     1.008    1.124173   -2.289551   -6.580616
  27 H     1.0000    0     1.008   -0.239107   -4.700989   -8.379377

--------------------------------
INTERNAL COORDINATES (ANGSTROEM)
--------------------------------
 C      0   0   0     0.000000000000     0.00000000     0.00000000
 C      1   0   0     1.526446564606     0.00000000     0.00000000
 N      1   2   0     1.447852215851   110.79649503     0.00000000
 C      2   1   3     1.532050126827   115.98355805    73.88134336
 C      4   2   1     1.531985209839   117.05035103   294.25093978
 H      5   4   2     1.093010368020   109.67131612    60.27178293
 C      5   4   2     1.537686181312   115.33587299   296.99032406
 H      5   4   2     1.093481368076   107.52852158   174.49482797
 H      7   5   4     1.095613895338   110.49711467    14.75911837
 H      7   5   4     1.095432023380   109.94643100   257.77435548
 C      7   5   4     1.535587476479   112.72226713   134.38342113
 H     11   7   5     1.111449288059   107.29161220    59.92231464
 H     11   7   5     1.106370663614   107.46061474   172.68128646
 F     11   7   5     1.372782654881   112.16331516   295.99152082
 H      1   2   3     1.098237559984   109.28005509   238.48583558
 H      1   2   3     1.096066912761   108.95054944   121.23115729
 C      3   1   2     1.312300492796   125.88136429   201.13080389
 C     17   3   1     1.329680483842   117.89920394   164.56315122
 N     17   3   1     1.355304613286   121.70234033   344.31591677
 H     19  17   3     1.012205623696   118.69874526     7.01882245
 H     19  17   3     1.009722845945   118.50832590   158.08572771
 H      3   1   2     1.012688751903   121.68392847     6.65839441
 H     18  17   3     1.012036768540   113.64200219   359.66432921
 H     18  17   3     1.010680773111   119.88584993   160.18207126
 H      4   2   1     1.096536331544   108.32744596    58.07038410
 H      4   2   1     1.095069540724   107.35765807   171.97123094
 H      2   1   3     1.093690758198   108.19667119   308.99661974
 H      2   1   3     1.093153226019   107.14667354   194.96774393

---------------------------
INTERNAL COORDINATES (A.U.)
---------------------------
 C      0   0   0     0.000000000000     0.00000000     0.00000000
 C      1   0   0     2.884565965171     0.00000000     0.00000000
 N      1   2   0     2.736044170349   110.79649503     0.00000000
 C      2   1   3     2.895155163142   115.98355805    73.88134336
 C      4   2   1     2.895032487814   117.05035103   294.25093978
 H      5   4   2     2.065490257094   109.67131612    60.27178293
 C      5   4   2     2.905805762595   115.33587299   296.99032406
 H      5   4   2     2.066380318209   107.52852158   174.49482797
 H      7   5   4     2.070410210708   110.49711467    14.75911837
 H      7   5   4     2.070066522516   109.94643100   257.77435548
 C      7   5   4     2.901839785224   112.72226713   134.38342113
 H     11   7   5     2.100334766174   107.29161220    59.92231464
 H     11   7   5     2.090737556835   107.46061474   172.68128646
 F     11   7   5     2.594183259122   112.16331516   295.99152082
 H      1   2   3     2.075368218356   109.28005509   238.48583558
 H      1   2   3     2.071266289571   108.95054944   121.23115729
 C      3   1   2     2.479888536794   125.88136429   201.13080389
 C     17   3   1     2.512731960081   117.89920394   164.56315122
 N     17   3   1     2.561154547150   121.70234033   344.31591677
 H     19  17   3     1.912791420000   118.69874526     7.01882245
 H     19  17   3     1.908099650000   118.50832590   158.08572771
 H      3   1   2     1.913704400000   121.68392847     6.65839441
 H     18  17   3     1.912472330000   113.64200219   359.66432921
 H     18  17   3     1.909909870000   119.88584993   160.18207126
 H      4   2   1     2.072153362513   108.32744596    58.07038410
 H      4   2   1     2.069381529567   107.35765807   171.97123094
 H      2   1   3     2.066776008195   108.19667119   308.99661974
 H      2   1   3     2.065760219588   107.14667354   194.96774393

---------------------
BASIS SET INFORMATION
---------------------
There are 4 groups of distinct atoms

 Group   1 Type C   : 12s6p3d1f contracted to 6s3p3d1f pattern {621111/411/111/1}
 Group   2 Type N   : 12s6p3d1f contracted to 6s3p3d1f pattern {621111/411/111/1}
 Group   3 Type H   : 5s2p contracted to 3s2p pattern {311/11}
 Group   4 Type F   : 12s7p3d1f contracted to 6s4p3d1f pattern {621111/4111/111/1}

Atom   0C    basis set group =>   1
Atom   1C    basis set group =>   1
Atom   2N    basis set group =>   2
Atom   3C    basis set group =>   1
Atom   4C    basis set group =>   1
Atom   5H    basis set group =>   3
Atom   6C    basis set group =>   1
Atom   7H    basis set group =>   3
Atom   8H    basis set group =>   3
Atom   9H    basis set group =>   3
Atom  10C    basis set group =>   1
Atom  11H    basis set group =>   3
Atom  12H    basis set group =>   3
Atom  13F    basis set group =>   4
Atom  14H    basis set group =>   3
Atom  15H    basis set group =>   3
Atom  16C    basis set group =>   1
Atom  17C    basis set group =>   1
Atom  18N    basis set group =>   2
Atom  19H    basis set group =>   3
Atom  20H    basis set group =>   3
Atom  21H    basis set group =>   3
Atom  22H    basis set group =>   3
Atom  23H    basis set group =>   3
Atom  24H    basis set group =>   3
Atom  25H    basis set group =>   3
Atom  26H    basis set group =>   3
Atom  27H    basis set group =>   3
---------------------------------
AUXILIARY/J BASIS SET INFORMATION
---------------------------------
There are 4 groups of distinct atoms

 Group   1 Type C   : 12s5p4d2f1g contracted to 6s4p3d1f1g pattern {711111/2111/211/2/1}
 Group   2 Type N   : 12s5p4d2f1g contracted to 6s4p3d1f1g pattern {711111/2111/211/2/1}
 Group   3 Type H   : 5s2p1d contracted to 3s1p1d pattern {311/2/1}
 Group   4 Type F   : 12s5p4d2f1g contracted to 6s4p3d1f1g pattern {711111/2111/211/2/1}

Atom   0C    basis set group =>   1
Atom   1C    basis set group =>   1
Atom   2N    basis set group =>   2
Atom   3C    basis set group =>   1
Atom   4C    basis set group =>   1
Atom   5H    basis set group =>   3
Atom   6C    basis set group =>   1
Atom   7H    basis set group =>   3
Atom   8H    basis set group =>   3
Atom   9H    basis set group =>   3
Atom  10C    basis set group =>   1
Atom  11H    basis set group =>   3
Atom  12H    basis set group =>   3
Atom  13F    basis set group =>   4
Atom  14H    basis set group =>   3
Atom  15H    basis set group =>   3
Atom  16C    basis set group =>   1
Atom  17C    basis set group =>   1
Atom  18N    basis set group =>   2
Atom  19H    basis set group =>   3
Atom  20H    basis set group =>   3
Atom  21H    basis set group =>   3
Atom  22H    basis set group =>   3
Atom  23H    basis set group =>   3
Atom  24H    basis set group =>   3
Atom  25H    basis set group =>   3
Atom  26H    basis set group =>   3
Atom  27H    basis set group =>   3


           ************************************************************
           *        Program running with 4 parallel MPI-processes     *
           *              working on a common directory               *
           ************************************************************
------------------------------------------------------------------------------
                           ORCA GTO INTEGRAL CALCULATION
                           -- RI-GTO INTEGRALS CHOSEN --
------------------------------------------------------------------------------
------------------------------------------------------------------------------
                   ___                                                        
                  /   \      - P O W E R E D   B Y -                         
                 /     \                                                     
                 |  |  |   _    _      __       _____    __    __             
                 |  |  |  | |  | |    /  \     |  _  \  |  |  /  |          
                  \  \/   | |  | |   /    \    | | | |  |  | /  /          
                 / \  \   | |__| |  /  /\  \   | |_| |  |  |/  /          
                |  |  |   |  __  | /  /__\  \  |    /   |      \           
                |  |  |   | |  | | |   __   |  |    \   |  |\   \          
                \     /   | |  | | |  |  |  |  | |\  \  |  | \   \       
                 \___/    |_|  |_| |__|  |__|  |_| \__\ |__|  \__/        
                                                                              
                      - O R C A' S   B I G   F R I E N D -                    
                                      &                                       
                       - I N T E G R A L  F E E D E R -                       
                                                                              
 v1 FN, 2020, v2 2021                                                         
------------------------------------------------------------------------------


Reading SHARK input file 28Oct_TZVPD_B3LYP_D2_wb97.SHARKINP.tmp ... ok
----------------------
SHARK INTEGRAL PACKAGE
----------------------

Number of atoms                             ...     28
Number of basis functions                   ...    563
Number of shells                            ...    229
Maximum angular momentum                    ...      3
Integral batch strategy                     ... SHARK/LIBINT Hybrid
RI-J (if used) integral strategy            ... SPLIT-RIJ (Revised 2003 algorithm where possible)
Printlevel                                  ...      1
Contraction scheme used                     ... SEGMENTED contraction
Coulomb Range Separation                    ... NOT USED
Exchange Range Separation                   ... NOT USED
Finite Nucleus Model                        ... NOT USED
Auxiliary Coulomb fitting basis             ... AVAILABLE
   # of basis functions in Aux-J            ...    726
   # of shells in Aux-J                     ...    250
   Maximum angular momentum in Aux-J        ...      4
Auxiliary J/K fitting basis                 ... NOT available
Auxiliary Correlation fitting basis         ... NOT available
Auxiliary 'external' fitting basis          ... NOT available
Integral threshold                          ...     2.500000e-11
Primitive cut-off                           ...     2.500000e-12
Primitive pair pre-selection threshold      ...     2.500000e-12

Calculating pre-screening integrals         ... done (  0.2 sec) Dimension = 229
Organizing shell pair data                  ... done (  0.2 sec)
Shell pair information
Total number of shell pairs                 ...     26335
Shell pairs after pre-screening             ...     23959
Total number of primitive shell pairs       ...     65996
Primitive shell pairs kept                  ...     46388
          la=0 lb=0:   6022 shell pairs
          la=1 lb=0:   7271 shell pairs
          la=1 lb=1:   2224 shell pairs
          la=2 lb=0:   3569 shell pairs
          la=2 lb=1:   2132 shell pairs
          la=2 lb=2:    541 shell pairs
          la=3 lb=0:   1101 shell pairs
          la=3 lb=1:    692 shell pairs
          la=3 lb=2:    346 shell pairs
          la=3 lb=3:     61 shell pairs

Calculating one electron integrals          ... done (  0.1 sec)
Calculating RI/J V-Matrix + Cholesky decomp.... done (  0.0 sec)
Calculating Nuclear repulsion               ... done (  0.0 sec) ENN=    694.622436692108 Eh

SHARK setup successfully completed in   0.6 seconds

Maximum memory used throughout the entire GTOINT-calculation: 35.1 MB


           ************************************************************
           *        Program running with 4 parallel MPI-processes     *
           *              working on a common directory               *
           ************************************************************
-------------------------------------------------------------------------------
                                 ORCA SCF
-------------------------------------------------------------------------------

------------
SCF SETTINGS
------------
Hamiltonian:
 Density Functional     Method          .... DFT(GTOs)
 Exchange Functional    Exchange        .... B88
   X-Alpha parameter    XAlpha          ....  0.666667
   Becke's b parameter  XBeta           ....  0.004200
 Correlation Functional Correlation     .... LYP
 LDA part of GGA corr.  LDAOpt          .... VWN-5
 Gradients option       PostSCFGGA      .... off
 Hybrid DFT is turned on
   Fraction HF Exchange ScalHFX         ....  0.200000
   Scaling of DF-GGA-X  ScalDFX         ....  0.720000
   Scaling of DF-GGA-C  ScalDFC         ....  0.810000
   Scaling of DF-LDA-C  ScalLDAC        ....  1.000000
   Perturbative correction              ....  0.000000
   Density functional embedding theory  .... OFF
   NL short-range parameter             ....  4.800000
 RI-approximation to the Coulomb term is turned on
   Number of AuxJ basis functions       .... 726
   RIJ-COSX (HFX calculated with COS-X)).... on


General Settings:
 Integral files         IntName         .... 28Oct_TZVPD_B3LYP_D2_wb97
 Hartree-Fock type      HFTyp           .... RHF
 Total Charge           Charge          ....    0
 Multiplicity           Mult            ....    1
 Number of Electrons    NEL             ....   88
 Basis Dimension        Dim             ....  563
 Nuclear Repulsion      ENuc            ....    694.6224366921 Eh

Convergence Acceleration:
 DIIS                   CNVDIIS         .... on
   Start iteration      DIISMaxIt       ....    12
   Startup error        DIISStart       ....  0.200000
   # of expansion vecs  DIISMaxEq       ....     5
   Bias factor          DIISBfac        ....   1.050
   Max. coefficient     DIISMaxC        ....  10.000
 Trust-Rad. Augm. Hess. CNVTRAH         .... auto
   Auto Start mean grad. ratio tolernc. ....  1.125000
   Auto Start start iteration           ....    20
   Auto Start num. interpolation iter.  ....    10
   Max. Number of Micro iterations      ....    16
   Max. Number of Macro iterations      .... Maxiter - #DIIS iter
   Number of Davidson start vectors     ....     2
   Converg. threshold I  (grad. norm)   ....   1.000e-05
   Converg. threshold II (energy diff.) ....   1.000e-08
   Grad. Scal. Fac. for Micro threshold ....   0.100
   Minimum threshold for Micro iter.    ....   0.010
   NR start threshold (gradient norm)   ....   0.001
   Initial trust radius                 ....   0.400
   Minimum AH scaling param. (alpha)    ....   1.000
   Maximum AH scaling param. (alpha)    .... 1000.000
   Orbital update algorithm             .... Taylor
   White noise on init. David. guess    .... on
   Maximum white noise                  ....   0.010
   Quad. conv. algorithm                .... NR
 SOSCF                  CNVSOSCF        .... on
   Start iteration      SOSCFMaxIt      ....   150
   Startup grad/error   SOSCFStart      ....  0.003300
 Level Shifting         CNVShift        .... on
   Level shift para.    LevelShift      ....    0.2500
   Turn off err/grad.   ShiftErr        ....    0.0010
 Zerner damping         CNVZerner       .... off
 Static damping         CNVDamp         .... on
   Fraction old density DampFac         ....    0.7000
   Max. Damping (<1)    DampMax         ....    0.9800
   Min. Damping (>=0)   DampMin         ....    0.0000
   Turn off err/grad.   DampErr         ....    0.1000
 Fernandez-Rico         CNVRico         .... off

SCF Procedure:
 Maximum # iterations   MaxIter         ....   150
 SCF integral mode      SCFMode         .... Direct
   Integral package                     .... SHARK and LIBINT hybrid scheme
 Reset frequency        DirectResetFreq ....    20
 Integral Threshold     Thresh          ....  2.500e-11 Eh
 Primitive CutOff       TCut            ....  2.500e-12 Eh

Convergence Tolerance:
 Convergence Check Mode ConvCheckMode   .... Total+1el-Energy
 Convergence forced     ConvForced      .... 0
 Energy Change          TolE            ....  1.000e-08 Eh
 1-El. energy change                    ....  1.000e-05 Eh
 Orbital Gradient       TolG            ....  1.000e-05
 Orbital Rotation angle TolX            ....  1.000e-05
 DIIS Error             TolErr          ....  5.000e-07


Diagonalization of the overlap matrix:
Smallest eigenvalue                        ... 2.256e-06
Time for diagonalization                   ...    0.075 sec
Threshold for overlap eigenvalues          ... 1.000e-08
Number of eigenvalues below threshold      ... 0
Time for construction of square roots      ...    0.092 sec
Total time needed                          ...    0.170 sec

Time for model grid setup =    0.310 sec

------------------------------
INITIAL GUESS: MODEL POTENTIAL
------------------------------
Loading Hartree-Fock densities                     ... done
Calculating cut-offs                               ... done
Initializing the effective Hamiltonian             ... done
Setting up the integral package (SHARK)            ... done
Starting the Coulomb interaction                   ... done (   0.5 sec)
Reading the grid                                   ... done
Mapping shells                                     ... done
Starting the XC term evaluation                    ... done (   0.7 sec)
  promolecular density results
     # of electrons  =     87.988948178
     EX              =    -69.528260651
     EC              =     -2.948106964
     EX+EC           =    -72.476367615
Transforming the Hamiltonian                       ... done (   0.0 sec)
Diagonalizing the Hamiltonian                      ... done (   0.1 sec)
Back transforming the eigenvectors                 ... done (   0.0 sec)
Now organizing SCF variables                       ... done
                      ------------------
                      INITIAL GUESS DONE (   1.7 sec)
                      ------------------
-------------------
DFT GRID GENERATION
-------------------

General Integration Accuracy     IntAcc      ... 4.388
Radial Grid Type                 RadialGrid  ... OptM3 with GC (2021)
Angular Grid (max. ang.)         AngularGrid ... 4 (Lebedev-302)
Angular grid pruning method      GridPruning ... 4 (adaptive)
Weight generation scheme         WeightScheme... Becke
Basis function cutoff            BFCut       ... 1.0000e-11
Integration weight cutoff        WCut        ... 1.0000e-14
Angular grids for H and He will be reduced by one unit
Partially contracted basis set               ... off
Rotationally invariant grid construction     ... off

Total number of grid points                  ...   125231
Total number of batches                      ...     1971
Average number of points per batch           ...       63
Average number of grid points per atom       ...     4473
Time for grid setup =    1.210 sec

--------------------
COSX GRID GENERATION
--------------------

GRIDX 1
-------
General Integration Accuracy     IntAcc      ... 3.816
Radial Grid Type                 RadialGrid  ... OptM3 with GC (2021)
Angular Grid (max. ang.)         AngularGrid ... 1 (Lebedev-50)
Angular grid pruning method      GridPruning ... 4 (adaptive)
Weight generation scheme         WeightScheme... Becke
Basis function cutoff            BFCut       ... 1.0000e-11
Integration weight cutoff        WCut        ... 1.0000e-14
Angular grids for H and He will be reduced by one unit
Partially contracted basis set               ... on
Rotationally invariant grid construction     ... off

Total number of grid points                  ...    15656
Total number of batches                      ...      259
Average number of points per batch           ...       60
Average number of grid points per atom       ...      559
UseSFitting                                  ... on

GRIDX 2
-------
General Integration Accuracy     IntAcc      ... 4.020
Radial Grid Type                 RadialGrid  ... OptM3 with GC (2021)
Angular Grid (max. ang.)         AngularGrid ... 2 (Lebedev-110)
Angular grid pruning method      GridPruning ... 4 (adaptive)
Weight generation scheme         WeightScheme... Becke
Basis function cutoff            BFCut       ... 1.0000e-11
Integration weight cutoff        WCut        ... 1.0000e-14
Angular grids for H and He will be reduced by one unit
Partially contracted basis set               ... on
Rotationally invariant grid construction     ... off

Total number of grid points                  ...    36029
Total number of batches                      ...      575
Average number of points per batch           ...       62
Average number of grid points per atom       ...     1287
UseSFitting                                  ... on

GRIDX 3
-------
General Integration Accuracy     IntAcc      ... 4.338
Radial Grid Type                 RadialGrid  ... OptM3 with GC (2021)
Angular Grid (max. ang.)         AngularGrid ... 3 (Lebedev-194)
Angular grid pruning method      GridPruning ... 4 (adaptive)
Weight generation scheme         WeightScheme... Becke
Basis function cutoff            BFCut       ... 1.0000e-11
Integration weight cutoff        WCut        ... 1.0000e-14
Angular grids for H and He will be reduced by one unit
Partially contracted basis set               ... on
Rotationally invariant grid construction     ... off

Total number of grid points                  ...    80327
Total number of batches                      ...     1268
Average number of points per batch           ...       63
Average number of grid points per atom       ...     2869
UseSFitting                                  ... on

Time for X-Grid setup             =    1.955 sec

--------------
SCF ITERATIONS
--------------
ITER       Energy         Delta-E        Max-DP      RMS-DP      [F,P]     Damp
               ***  Starting incremental Fock matrix formation  ***
  0   -523.7833564540   0.000000000000 0.15006673  0.00242701  0.2665615 0.7000
  1   -523.9985969376  -0.215240483650 0.22338323  0.00289885  0.1382959 0.7000
                               ***Turning on DIIS***
  2   -524.0853727497  -0.086775812051 0.58776367  0.00634493  0.0492332 0.0000
  3   -524.2064839878  -0.121111238143 0.22491133  0.00265003  0.0863766 0.0000
  4   -524.2431967369  -0.036712749048 0.16325811  0.00146176  0.0179126 0.0000
  5   -524.2449586024  -0.001761865584 0.07440958  0.00070918  0.0050083 0.0000
                      *** Initiating the SOSCF procedure ***
                           *** Shutting down DIIS ***
                      *** Re-Reading the Fockian *** 
                      *** Removing any level shift *** 
ITER      Energy       Delta-E        Grad      Rot      Max-DP    RMS-DP
  6   -524.24511413  -0.0001555275  0.000454  0.000454  0.038192  0.000372
               *** Restarting incremental Fock matrix formation ***
  7   -524.24514491  -0.0000307754  0.000222  0.001371  0.039993  0.000376
  8   -524.24514851  -0.0000036077  0.000062  0.000437  0.011980  0.000119
  9   -524.24514906  -0.0000005460  0.000066  0.000228  0.007694  0.000074
 10   -524.24514953  -0.0000004742  0.000025  0.000072  0.002134  0.000017
 11   -524.24514956  -0.0000000247  0.000016  0.000051  0.001730  0.000015
                  ***Gradient check signals convergence***
              ***Rediagonalizing the Fockian in SOSCF/NRSCF***

               *****************************************************
               *                     SUCCESS                       *
               *           SCF CONVERGED AFTER  12 CYCLES          *
               *****************************************************

Old exchange energy                            =    -14.209174243 Eh
New exchange energy                            =    -14.209184450 Eh
Exchange energy change after final integration =     -0.000010207 Eh
Total energy after final integration           =   -524.245159800 Eh
Final COS-X integration done in                =    33.627 sec

----------------
TOTAL SCF ENERGY
----------------

Total Energy       :         -524.24515980 Eh          -14265.43604 eV

Components:
Nuclear Repulsion  :          694.62243669 Eh           18901.63744 eV
Electronic Energy  :        -1218.86759649 Eh          -33167.07348 eV
One Electron Energy:        -2091.09940874 Eh          -56901.70774 eV
Two Electron Energy:          872.23181225 Eh           23734.63426 eV
Max COSX asymmetry :            0.00000192 Eh               0.00005 eV

Virial components:
Potential Energy   :        -1046.91588063 Eh          -28488.02942 eV
Kinetic Energy     :          522.67072083 Eh           14222.59338 eV
Virial Ratio       :            2.00301230


DFT components:
N(Alpha)           :       44.000098053410 electrons
N(Beta)            :       44.000098053410 electrons
N(Total)           :       88.000196106819 electrons
E(X)               :      -56.401565013462 Eh       
E(C)               :       -3.476402856842 Eh       
E(XC)              :      -59.877967870305 Eh       
DFET-embed. en.    :        0.000000000000 Eh       

---------------
SCF CONVERGENCE
---------------

  Last Energy change         ...   -3.5910e-08  Tolerance :   1.0000e-08
  Last MAX-Density change    ...    2.1094e-15  Tolerance :   1.0000e-07
  Last RMS-Density change    ...    1.5818e-17  Tolerance :   5.0000e-09
  Last Orbital Gradient      ...    2.1882e-06  Tolerance :   1.0000e-05
  Last Orbital Rotation      ...    6.1651e-06  Tolerance :   1.0000e-05

             **** THE GBW FILE WAS UPDATED (28Oct_TZVPD_B3LYP_D2_wb97.gbw) ****
             **** DENSITY 28Oct_TZVPD_B3LYP_D2_wb97.scfp WAS UPDATED ****
             **** ENERGY FILE WAS UPDATED (28Oct_TZVPD_B3LYP_D2_wb97.en.tmp) ****
             **** THE GBW FILE WAS UPDATED (28Oct_TZVPD_B3LYP_D2_wb97.gbw) ****
             **** DENSITY 28Oct_TZVPD_B3LYP_D2_wb97.scfp WAS UPDATED ****
----------------
ORBITAL ENERGIES
----------------

  NO   OCC          E(Eh)            E(eV) 
   0   2.0000     -24.696653      -672.0301 
   1   2.0000     -14.299882      -389.1196 
   2   2.0000     -14.288459      -388.8087 
   3   2.0000     -10.258612      -279.1510 
   4   2.0000     -10.197693      -277.4933 
   5   2.0000     -10.193017      -277.3661 
   6   2.0000     -10.183112      -277.0966 
   7   2.0000     -10.171952      -276.7929 
   8   2.0000     -10.171604      -276.7834 
   9   2.0000     -10.169596      -276.7288 
  10   2.0000     -10.052592      -273.5449 
  11   2.0000      -1.236352       -33.6429 
  12   2.0000      -0.952162       -25.9096 
  13   2.0000      -0.869088       -23.6491 
  14   2.0000      -0.817886       -22.2558 
  15   2.0000      -0.776559       -21.1313 
  16   2.0000      -0.736892       -20.0518 
  17   2.0000      -0.685252       -18.6466 
  18   2.0000      -0.651693       -17.7335 
  19   2.0000      -0.622238       -16.9319 
  20   2.0000      -0.584323       -15.9002 
  21   2.0000      -0.568510       -15.4699 
  22   2.0000      -0.543386       -14.7863 
  23   2.0000      -0.517257       -14.0753 
  24   2.0000      -0.510207       -13.8834 
  25   2.0000      -0.502856       -13.6834 
  26   2.0000      -0.485849       -13.2206 
  27   2.0000      -0.471718       -12.8361 
  28   2.0000      -0.450731       -12.2650 
  29   2.0000      -0.441835       -12.0229 
  30   2.0000      -0.423340       -11.5197 
  31   2.0000      -0.410712       -11.1760 
  32   2.0000      -0.400552       -10.8996 
  33   2.0000      -0.381522       -10.3817 
  34   2.0000      -0.371106       -10.0983 
  35   2.0000      -0.364228        -9.9112 
  36   2.0000      -0.352501        -9.5920 
  37   2.0000      -0.349368        -9.5068 
  38   2.0000      -0.333966        -9.0877 
  39   2.0000      -0.324994        -8.8435 
  40   2.0000      -0.324042        -8.8176 
  41   2.0000      -0.319471        -8.6933 
  42   2.0000      -0.240671        -6.5490 
  43   2.0000      -0.144088        -3.9208 
  44   0.0000      -0.000379        -0.0103 
  45   0.0000       0.008914         0.2426 
  46   0.0000       0.017519         0.4767 
  47   0.0000       0.020519         0.5583 
  48   0.0000       0.036512         0.9936 
  49   0.0000       0.042082         1.1451 
  50   0.0000       0.047812         1.3010 
  51   0.0000       0.052000         1.4150 
  52   0.0000       0.057835         1.5738 
  53   0.0000       0.071030         1.9328 
  54   0.0000       0.074391         2.0243 
  55   0.0000       0.076311         2.0765 
  56   0.0000       0.078656         2.1404 
  57   0.0000       0.087475         2.3803 
  58   0.0000       0.092876         2.5273 
  59   0.0000       0.099905         2.7186 
  60   0.0000       0.111553         3.0355 
  61   0.0000       0.115601         3.1457 
  62   0.0000       0.119861         3.2616 
  63   0.0000       0.132409         3.6030 
  64   0.0000       0.132730         3.6118 
  65   0.0000       0.141504         3.8505 
  66   0.0000       0.144274         3.9259 
  67   0.0000       0.144982         3.9452 
  68   0.0000       0.152907         4.1608 
  69   0.0000       0.156853         4.2682 
  70   0.0000       0.158130         4.3029 
  71   0.0000       0.169456         4.6111 
  72   0.0000       0.173670         4.7258 
  73   0.0000       0.175694         4.7809 
  74   0.0000       0.182288         4.9603 
  75   0.0000       0.188145         5.1197 
  76   0.0000       0.194884         5.3031 
  77   0.0000       0.198924         5.4130 
  78   0.0000       0.201039         5.4706 
  79   0.0000       0.206992         5.6325 
  80   0.0000       0.209010         5.6875 
  81   0.0000       0.214680         5.8418 
  82   0.0000       0.218937         5.9576 
  83   0.0000       0.222011         6.0412 
  84   0.0000       0.223784         6.0895 
  85   0.0000       0.228183         6.2092 
  86   0.0000       0.230272         6.2660 
  87   0.0000       0.239574         6.5191 
  88   0.0000       0.240834         6.5534 
  89   0.0000       0.246251         6.7008 
  90   0.0000       0.250093         6.8054 
  91   0.0000       0.254534         6.9262 
  92   0.0000       0.259997         7.0749 
  93   0.0000       0.263854         7.1798 
  94   0.0000       0.266243         7.2448 
  95   0.0000       0.270936         7.3725 
  96   0.0000       0.273011         7.4290 
  97   0.0000       0.276852         7.5335 
  98   0.0000       0.280844         7.6422 
  99   0.0000       0.284306         7.7363 
 100   0.0000       0.286880         7.8064 
 101   0.0000       0.291095         7.9211 
 102   0.0000       0.297458         8.0942 
 103   0.0000       0.299732         8.1561 
 104   0.0000       0.303146         8.2490 
 105   0.0000       0.305149         8.3035 
 106   0.0000       0.313773         8.5382 
 107   0.0000       0.315224         8.5777 
 108   0.0000       0.319083         8.6827 
 109   0.0000       0.320941         8.7332 
 110   0.0000       0.327871         8.9218 
 111   0.0000       0.330325         8.9886 
 112   0.0000       0.337082         9.1725 
 113   0.0000       0.341741         9.2992 
 114   0.0000       0.347000         9.4424 
 115   0.0000       0.348083         9.4718 
 116   0.0000       0.352116         9.5816 
 117   0.0000       0.354761         9.6535 
 118   0.0000       0.360285         9.8039 
 119   0.0000       0.367274         9.9940 
 120   0.0000       0.367521        10.0008 
 121   0.0000       0.372453        10.1350 
 122   0.0000       0.376617        10.2483 
 123   0.0000       0.381556        10.3827 
 124   0.0000       0.385472        10.4892 
 125   0.0000       0.387953        10.5567 
 126   0.0000       0.392193        10.6721 
 127   0.0000       0.397010        10.8032 
 128   0.0000       0.398459        10.8426 
 129   0.0000       0.400470        10.8973 
 130   0.0000       0.403898        10.9906 
 131   0.0000       0.408839        11.1251 
 132   0.0000       0.410115        11.1598 
 133   0.0000       0.417713        11.3666 
 134   0.0000       0.423451        11.5227 
 135   0.0000       0.426224        11.5981 
 136   0.0000       0.433765        11.8033 
 137   0.0000       0.435949        11.8628 
 138   0.0000       0.437444        11.9035 
 139   0.0000       0.444659        12.0998 
 140   0.0000       0.447958        12.1896 
 141   0.0000       0.451700        12.2914 
 142   0.0000       0.457947        12.4614 
 143   0.0000       0.465347        12.6627 
 144   0.0000       0.469285        12.7699 
 145   0.0000       0.472715        12.8632 
 146   0.0000       0.475554        12.9405 
 147   0.0000       0.482835        13.1386 
 148   0.0000       0.485498        13.2111 
 149   0.0000       0.488760        13.2998 
 150   0.0000       0.492199        13.3934 
 151   0.0000       0.498866        13.5748 
 152   0.0000       0.503285        13.6951 
 153   0.0000       0.507033        13.7971 
 154   0.0000       0.510669        13.8960 
 155   0.0000       0.513065        13.9612 
 156   0.0000       0.518773        14.1165 
 157   0.0000       0.529024        14.3955 
 158   0.0000       0.531115        14.4524 
 159   0.0000       0.533615        14.5204 
 160   0.0000       0.543234        14.7821 
 161   0.0000       0.548272        14.9192 
 162   0.0000       0.550736        14.9863 
 163   0.0000       0.553475        15.0608 
 164   0.0000       0.558237        15.1904 
 165   0.0000       0.569338        15.4925 
 166   0.0000       0.574849        15.6424 
 167   0.0000       0.576662        15.6918 
 168   0.0000       0.578197        15.7335 
 169   0.0000       0.585651        15.9364 
 170   0.0000       0.593964        16.1626 
 171   0.0000       0.600460        16.3394 
 172   0.0000       0.603008        16.4087 
 173   0.0000       0.607284        16.5250 
 174   0.0000       0.608884        16.5686 
 175   0.0000       0.615133        16.7386 
 176   0.0000       0.624186        16.9850 
 177   0.0000       0.625291        17.0150 
 178   0.0000       0.628998        17.1159 
 179   0.0000       0.636723        17.3261 
 180   0.0000       0.643133        17.5005 
 181   0.0000       0.645821        17.5737 
 182   0.0000       0.650864        17.7109 
 183   0.0000       0.653872        17.7928 
 184   0.0000       0.662889        18.0381 
 185   0.0000       0.666203        18.1283 
 186   0.0000       0.668115        18.1803 
 187   0.0000       0.677812        18.4442 
 188   0.0000       0.679922        18.5016 
 189   0.0000       0.683504        18.5991 
 190   0.0000       0.688830        18.7440 
 191   0.0000       0.691092        18.8056 
 192   0.0000       0.691829        18.8256 
 193   0.0000       0.700090        19.0504 
 194   0.0000       0.702261        19.1095 
 195   0.0000       0.706172        19.2159 
 196   0.0000       0.708720        19.2852 
 197   0.0000       0.717184        19.5156 
 198   0.0000       0.721723        19.6391 
 199   0.0000       0.726517        19.7695 
 200   0.0000       0.736374        20.0378 
 201   0.0000       0.736723        20.0473 
 202   0.0000       0.740763        20.1572 
 203   0.0000       0.748170        20.3587 
 204   0.0000       0.750626        20.4256 
 205   0.0000       0.757964        20.6252 
 206   0.0000       0.767087        20.8735 
 207   0.0000       0.768037        20.8994 
 208   0.0000       0.780076        21.2270 
 209   0.0000       0.782901        21.3038 
 210   0.0000       0.789619        21.4866 
 211   0.0000       0.791989        21.5511 
 212   0.0000       0.802068        21.8254 
 213   0.0000       0.803904        21.8753 
 214   0.0000       0.809389        22.0246 
 215   0.0000       0.818087        22.2613 
 216   0.0000       0.823741        22.4151 
 217   0.0000       0.827779        22.5250 
 218   0.0000       0.831802        22.6345 
 219   0.0000       0.837279        22.7835 
 220   0.0000       0.843926        22.9644 
 221   0.0000       0.860619        23.4186 
 222   0.0000       0.862793        23.4778 
 223   0.0000       0.870090        23.6764 
 224   0.0000       0.884017        24.0553 
 225   0.0000       0.886958        24.1354 
 226   0.0000       0.890089        24.2206 
 227   0.0000       0.906628        24.6706 
 228   0.0000       0.909749        24.7555 
 229   0.0000       0.918790        25.0015 
 230   0.0000       0.925708        25.1898 
 231   0.0000       0.931891        25.3580 
 232   0.0000       0.939338        25.5607 
 233   0.0000       0.950216        25.8567 
 234   0.0000       0.958841        26.0914 
 235   0.0000       0.968769        26.3616 
 236   0.0000       0.980768        26.6881 
 237   0.0000       0.989396        26.9228 
 238   0.0000       0.993042        27.0220 
 239   0.0000       1.009011        27.4566 
 240   0.0000       1.013642        27.5826 
 241   0.0000       1.023121        27.8405 
 242   0.0000       1.033950        28.1352 
 243   0.0000       1.048393        28.5282 
 244   0.0000       1.049416        28.5561 
 245   0.0000       1.056249        28.7420 
 246   0.0000       1.069375        29.0992 
 247   0.0000       1.086360        29.5614 
 248   0.0000       1.093073        29.7440 
 249   0.0000       1.103324        30.0230 
 250   0.0000       1.119833        30.4722 
 251   0.0000       1.129321        30.7304 
 252   0.0000       1.145691        31.1758 
 253   0.0000       1.159001        31.5380 
 254   0.0000       1.168067        31.7847 
 255   0.0000       1.168329        31.7918 
 256   0.0000       1.181093        32.1392 
 257   0.0000       1.199081        32.6287 
 258   0.0000       1.201742        32.7011 
 259   0.0000       1.220252        33.2048 
 260   0.0000       1.235565        33.6214 
 261   0.0000       1.250458        34.0267 
 262   0.0000       1.257835        34.2274 
 263   0.0000       1.266096        34.4522 
 264   0.0000       1.278430        34.7879 
 265   0.0000       1.283733        34.9322 
 266   0.0000       1.307405        35.5763 
 267   0.0000       1.309411        35.6309 
 268   0.0000       1.320576        35.9347 
 269   0.0000       1.333919        36.2978 
 270   0.0000       1.342400        36.5286 
 271   0.0000       1.363712        37.1085 
 272   0.0000       1.368844        37.2481 
 273   0.0000       1.373149        37.3653 
 274   0.0000       1.379548        37.5394 
 275   0.0000       1.389463        37.8092 
 276   0.0000       1.399782        38.0900 
 277   0.0000       1.412783        38.4438 
 278   0.0000       1.427976        38.8572 
 279   0.0000       1.436395        39.0863 
 280   0.0000       1.446721        39.3673 
 281   0.0000       1.457360        39.6568 
 282   0.0000       1.469958        39.9996 
 283   0.0000       1.479377        40.2559 
 284   0.0000       1.490436        40.5568 
 285   0.0000       1.497291        40.7434 
 286   0.0000       1.517136        41.2834 
 287   0.0000       1.537373        41.8340 
 288   0.0000       1.539930        41.9036 
 289   0.0000       1.549510        42.1643 
 290   0.0000       1.559968        42.4489 
 291   0.0000       1.575257        42.8649 
 292   0.0000       1.583590        43.0917 
 293   0.0000       1.592933        43.3459 
 294   0.0000       1.612849        43.8878 
 295   0.0000       1.692237        46.0481 
 296   0.0000       1.696305        46.1588 
 297   0.0000       1.730094        47.0782 
 298   0.0000       1.769679        48.1554 
 299   0.0000       1.794699        48.8362 
 300   0.0000       1.802677        49.0533 
 301   0.0000       1.810775        49.2737 
 302   0.0000       1.814493        49.3749 
 303   0.0000       1.825459        49.6733 
 304   0.0000       1.838902        50.0391 
 305   0.0000       1.848896        50.3110 
 306   0.0000       1.851823        50.3907 
 307   0.0000       1.862112        50.6706 
 308   0.0000       1.864392        50.7327 
 309   0.0000       1.872404        50.9507 
 310   0.0000       1.879993        51.1572 
 311   0.0000       1.883249        51.2458 
 312   0.0000       1.894362        51.5482 
 313   0.0000       1.908677        51.9377 
 314   0.0000       1.927860        52.4597 
 315   0.0000       1.942274        52.8520 
 316   0.0000       1.950721        53.0818 
 317   0.0000       1.953852        53.1670 
 318   0.0000       1.959009        53.3073 
 319   0.0000       1.962401        53.3996 
 320   0.0000       1.986296        54.0499 
 321   0.0000       1.992743        54.2253 
 322   0.0000       2.000734        54.4427 
 323   0.0000       2.016295        54.8662 
 324   0.0000       2.028299        55.1928 
 325   0.0000       2.051285        55.8183 
 326   0.0000       2.062623        56.1268 
 327   0.0000       2.068918        56.2981 
 328   0.0000       2.084395        56.7193 
 329   0.0000       2.091523        56.9132 
 330   0.0000       2.107670        57.3526 
 331   0.0000       2.112175        57.4752 
 332   0.0000       2.122646        57.7601 
 333   0.0000       2.131476        58.0004 
 334   0.0000       2.142654        58.3046 
 335   0.0000       2.154669        58.6315 
 336   0.0000       2.161149        58.8078 
 337   0.0000       2.180863        59.3443 
 338   0.0000       2.194763        59.7225 
 339   0.0000       2.209397        60.1207 
 340   0.0000       2.222845        60.4867 
 341   0.0000       2.241336        60.9899 
 342   0.0000       2.263089        61.5818 
 343   0.0000       2.271289        61.8049 
 344   0.0000       2.275103        61.9087 
 345   0.0000       2.284618        62.1676 
 346   0.0000       2.315749        63.0147 
 347   0.0000       2.331330        63.4387 
 348   0.0000       2.335651        63.5563 
 349   0.0000       2.353734        64.0484 
 350   0.0000       2.360064        64.2206 
 351   0.0000       2.383162        64.8491 
 352   0.0000       2.401188        65.3397 
 353   0.0000       2.418887        65.8213 
 354   0.0000       2.431738        66.1709 
 355   0.0000       2.462296        67.0025 
 356   0.0000       2.467457        67.1429 
 357   0.0000       2.477148        67.4066 
 358   0.0000       2.488327        67.7108 
 359   0.0000       2.514016        68.4099 
 360   0.0000       2.522538        68.6417 
 361   0.0000       2.550734        69.4090 
 362   0.0000       2.565307        69.8056 
 363   0.0000       2.572714        70.0071 
 364   0.0000       2.581041        70.2337 
 365   0.0000       2.589709        70.4696 
 366   0.0000       2.595932        70.6389 
 367   0.0000       2.603553        70.8463 
 368   0.0000       2.614329        71.1395 
 369   0.0000       2.631997        71.6203 
 370   0.0000       2.639710        71.8302 
 371   0.0000       2.645358        71.9839 
 372   0.0000       2.669951        72.6531 
 373   0.0000       2.677750        72.8653 
 374   0.0000       2.694878        73.3313 
 375   0.0000       2.707632        73.6784 
 376   0.0000       2.721702        74.0613 
 377   0.0000       2.726740        74.1984 
 378   0.0000       2.728716        74.2521 
 379   0.0000       2.747534        74.7642 
 380   0.0000       2.749926        74.8293 
 381   0.0000       2.755699        74.9864 
 382   0.0000       2.763207        75.1907 
 383   0.0000       2.786136        75.8146 
 384   0.0000       2.799484        76.1778 
 385   0.0000       2.802056        76.2478 
 386   0.0000       2.808402        76.4205 
 387   0.0000       2.827398        76.9374 
 388   0.0000       2.839800        77.2749 
 389   0.0000       2.852255        77.6138 
 390   0.0000       2.873198        78.1837 
 391   0.0000       2.884594        78.4938 
 392   0.0000       2.886087        78.5344 
 393   0.0000       2.887814        78.5814 
 394   0.0000       2.901623        78.9572 
 395   0.0000       2.911132        79.2159 
 396   0.0000       2.921197        79.4898 
 397   0.0000       2.927111        79.6507 
 398   0.0000       2.951509        80.3146 
 399   0.0000       2.959227        80.5247 
 400   0.0000       2.973789        80.9209 
 401   0.0000       2.987760        81.3011 
 402   0.0000       2.994881        81.4949 
 403   0.0000       3.012941        81.9863 
 404   0.0000       3.015572        82.0579 
 405   0.0000       3.040398        82.7334 
 406   0.0000       3.046184        82.8909 
 407   0.0000       3.068274        83.4920 
 408   0.0000       3.078628        83.7737 
 409   0.0000       3.103647        84.4545 
 410   0.0000       3.127577        85.1057 
 411   0.0000       3.135940        85.3333 
 412   0.0000       3.159805        85.9827 
 413   0.0000       3.163504        86.0833 
 414   0.0000       3.184992        86.6680 
 415   0.0000       3.192358        86.8685 
 416   0.0000       3.212568        87.4184 
 417   0.0000       3.237405        88.0943 
 418   0.0000       3.253527        88.5330 
 419   0.0000       3.258144        88.6586 
 420   0.0000       3.271980        89.0351 
 421   0.0000       3.282688        89.3265 
 422   0.0000       3.288078        89.4731 
 423   0.0000       3.314864        90.2020 
 424   0.0000       3.335850        90.7731 
 425   0.0000       3.338391        90.8422 
 426   0.0000       3.347567        91.0919 
 427   0.0000       3.349231        91.1372 
 428   0.0000       3.359415        91.4143 
 429   0.0000       3.382010        92.0292 
 430   0.0000       3.388574        92.2078 
 431   0.0000       3.399397        92.5023 
 432   0.0000       3.406933        92.7073 
 433   0.0000       3.413456        92.8849 
 434   0.0000       3.419576        93.0514 
 435   0.0000       3.440985        93.6340 
 436   0.0000       3.449571        93.8676 
 437   0.0000       3.453311        93.9694 
 438   0.0000       3.470090        94.4259 
 439   0.0000       3.471005        94.4509 
 440   0.0000       3.488047        94.9146 
 441   0.0000       3.503495        95.3349 
 442   0.0000       3.511984        95.5659 
 443   0.0000       3.522352        95.8481 
 444   0.0000       3.529079        96.0311 
 445   0.0000       3.532657        96.1285 
 446   0.0000       3.553595        96.6982 
 447   0.0000       3.556350        96.7732 
 448   0.0000       3.568952        97.1161 
 449   0.0000       3.581451        97.4562 
 450   0.0000       3.592036        97.7443 
 451   0.0000       3.621850        98.5556 
 452   0.0000       3.629953        98.7761 
 453   0.0000       3.648436        99.2790 
 454   0.0000       3.652322        99.3847 
 455   0.0000       3.670012        99.8661 
 456   0.0000       3.684439       100.2587 
 457   0.0000       3.699347       100.6643 
 458   0.0000       3.703956       100.7898 
 459   0.0000       3.740248       101.7773 
 460   0.0000       3.750615       102.0594 
 461   0.0000       3.769834       102.5824 
 462   0.0000       3.777770       102.7984 
 463   0.0000       3.801564       103.4458 
 464   0.0000       3.815231       103.8177 
 465   0.0000       3.833524       104.3155 
 466   0.0000       3.845464       104.6404 
 467   0.0000       3.871411       105.3465 
 468   0.0000       3.921641       106.7133 
 469   0.0000       3.935287       107.0846 
 470   0.0000       3.946706       107.3953 
 471   0.0000       3.957724       107.6952 
 472   0.0000       3.986390       108.4752 
 473   0.0000       3.996458       108.7491 
 474   0.0000       4.027065       109.5820 
 475   0.0000       4.043269       110.0229 
 476   0.0000       4.055934       110.3676 
 477   0.0000       4.078893       110.9923 
 478   0.0000       4.091470       111.3346 
 479   0.0000       4.115523       111.9891 
 480   0.0000       4.132272       112.4448 
 481   0.0000       4.145775       112.8123 
 482   0.0000       4.166390       113.3732 
 483   0.0000       4.177709       113.6812 
 484   0.0000       4.189037       113.9895 
 485   0.0000       4.208799       114.5272 
 486   0.0000       4.237724       115.3143 
 487   0.0000       4.255518       115.7985 
 488   0.0000       4.274466       116.3141 
 489   0.0000       4.297690       116.9461 
 490   0.0000       4.338678       118.0614 
 491   0.0000       4.349841       118.3652 
 492   0.0000       4.365657       118.7956 
 493   0.0000       4.413386       120.0943 
 494   0.0000       4.444843       120.9503 
 495   0.0000       4.456412       121.2651 
 496   0.0000       4.486073       122.0723 
 497   0.0000       4.497584       122.3855 
 498   0.0000       4.513195       122.8103 
 499   0.0000       4.535110       123.4066 
 500   0.0000       4.560401       124.0948 
 501   0.0000       4.571584       124.3991 
 502   0.0000       4.605820       125.3307 
 503   0.0000       4.627265       125.9143 
 504   0.0000       4.659462       126.7904 
 505   0.0000       4.712610       128.2366 
 506   0.0000       4.719956       128.4365 
 507   0.0000       4.782712       130.1442 
 508   0.0000       4.783628       130.1691 
 509   0.0000       4.805988       130.7776 
 510   0.0000       4.840102       131.7059 
 511   0.0000       4.862928       132.3270 
 512   0.0000       4.881681       132.8373 
 513   0.0000       4.913556       133.7047 
 514   0.0000       4.920446       133.8921 
 515   0.0000       4.951757       134.7442 
 516   0.0000       5.002326       136.1202 
 517   0.0000       5.047175       137.3406 
 518   0.0000       5.081704       138.2802 
 519   0.0000       5.112097       139.1072 
 520   0.0000       5.139540       139.8540 
 521   0.0000       5.141716       139.9132 
 522   0.0000       5.198003       141.4449 
 523   0.0000       5.222579       142.1136 
 524   0.0000       5.244309       142.7049 
 525   0.0000       5.284642       143.8024 
 526   0.0000       5.318114       144.7132 
 527   0.0000       5.384786       146.5275 
 528   0.0000       5.461398       148.6122 
 529   0.0000       5.482943       149.1985 
 530   0.0000       5.494447       149.5115 
 531   0.0000       5.543449       150.8449 
 532   0.0000       5.590642       152.1291 
 533   0.0000       5.618400       152.8844 
 534   0.0000       5.742315       156.2563 
 535   0.0000       5.822455       158.4371 
 536   0.0000       5.946320       161.8076 
 537   0.0000       6.072310       165.2359 
 538   0.0000       6.214137       169.0953 
 539   0.0000       6.350835       172.8150 
 540   0.0000       6.882923       187.2939 
 541   0.0000       6.926172       188.4707 
 542   0.0000       6.981000       189.9627 
 543   0.0000       7.071917       192.4366 
 544   0.0000       7.347977       199.9486 
 545   0.0000       7.355306       200.1480 
 546   0.0000       7.472071       203.3254 
 547   0.0000       8.619938       234.5605 
 548   0.0000       8.672738       235.9972 
 549   0.0000       8.904304       242.2984 
 550   0.0000       8.941500       243.3106 
 551   0.0000       9.451160       257.1791 
 552   0.0000      22.645417       616.2131 
 553   0.0000      22.692228       617.4869 
 554   0.0000      22.747944       619.0030 
 555   0.0000      22.805691       620.5744 
 556   0.0000      22.814904       620.8251 
 557   0.0000      22.856452       621.9557 
 558   0.0000      22.941457       624.2688 
 559   0.0000      23.639485       643.2631 
 560   0.0000      32.432810       882.5416 
 561   0.0000      33.010909       898.2725 
 562   0.0000      57.751271      1571.4920 

                    ********************************
                    * MULLIKEN POPULATION ANALYSIS *
                    ********************************

-----------------------
MULLIKEN ATOMIC CHARGES
-----------------------
   0 C :   -0.649702
   1 C :   -0.616803
   2 N :   -0.229286
   3 C :   -0.421666
   4 C :   -0.603192
   5 H :    0.376313
   6 C :   -0.464001
   7 H :    0.264021
   8 H :    0.231702
   9 H :    0.276122
  10 C :   -0.279313
  11 H :    0.244977
  12 H :    0.238555
  13 F :   -0.464409
  14 H :    0.342769
  15 H :    0.307316
  16 C :    0.548538
  17 C :   -1.403288
  18 N :   -0.400995
  19 H :    0.179065
  20 H :    0.184769
  21 H :    0.482073
  22 H :    0.680089
  23 H :    0.283188
  24 H :    0.261611
  25 H :    0.179919
  26 H :    0.241196
  27 H :    0.210431
Sum of atomic charges:   -0.0000000

--------------------------------
MULLIKEN REDUCED ORBITAL CHARGES
--------------------------------
  0 C s       :     3.549390  s :     3.549390
      pz      :     1.151748  p :     2.987781
      px      :     0.837844
      py      :     0.998190
      dz2     :     0.040186  d :     0.104095
      dxz     :     0.012962
      dyz     :     0.003224
      dx2y2   :     0.025437
      dxy     :     0.022285
      f0      :     0.001269  f :     0.008436
      f+1     :     0.001151
      f-1     :     0.000416
      f+2     :     0.000324
      f-2     :     0.001545
      f+3     :     0.001813
      f-3     :     0.001918
  1 C s       :     3.405272  s :     3.405272
      pz      :     1.092932  p :     3.157803
      px      :     0.953752
      py      :     1.111118
      dz2     :     0.032837  d :     0.047904
      dxz     :    -0.003292
      dyz     :    -0.008316
      dx2y2   :     0.012929
      dxy     :     0.013746
      f0      :     0.000523  f :     0.005824
      f+1     :     0.001339
      f-1     :     0.000482
      f+2     :     0.000596
      f-2     :     0.000886
      f+3     :     0.001159
      f-3     :     0.000840
  2 N s       :     3.522152  s :     3.522152
      pz      :     1.253574  p :     3.579567
      px      :     1.193699
      py      :     1.132294
      dz2     :     0.052200  d :     0.123372
      dxz     :     0.007854
      dyz     :     0.009546
      dx2y2   :     0.008035
      dxy     :     0.045736
      f0      :     0.000453  f :     0.004194
      f+1     :     0.000733
      f-1     :     0.000354
      f+2     :     0.000671
      f-2     :     0.000790
      f+3     :     0.000590
      f-3     :     0.000602
  3 C s       :     3.313424  s :     3.313424
      pz      :     1.103785  p :     3.065516
      px      :     1.025928
      py      :     0.935802
      dz2     :    -0.006809  d :     0.036996
      dxz     :     0.030446
      dyz     :     0.013591
      dx2y2   :     0.016470
      dxy     :    -0.016702
      f0      :     0.000773  f :     0.005730
      f+1     :     0.000556
      f-1     :     0.000633
      f+2     :     0.000802
      f-2     :     0.000482
      f+3     :     0.001275
      f-3     :     0.001209
  4 C s       :     3.459793  s :     3.459793
      pz      :     0.843598  p :     3.095476
      px      :     1.240727
      py      :     1.011152
      dz2     :    -0.011642  d :     0.042306
      dxz     :     0.019652
      dyz     :     0.009652
      dx2y2   :     0.000754
      dxy     :     0.023890
      f0      :     0.001270  f :     0.005616
      f+1     :     0.000432
      f-1     :     0.000834
      f+2     :     0.000925
      f-2     :     0.000603
      f+3     :     0.000763
      f-3     :     0.000791
  5 H s       :     0.519969  s :     0.519969
      pz      :     0.022192  p :     0.103718
      px      :     0.070920
      py      :     0.010605
  6 C s       :     3.264493  s :     3.264493
      pz      :     0.958093  p :     3.120522
      px      :     1.002829
      py      :     1.159600
      dz2     :    -0.014609  d :     0.073411
      dxz     :     0.014243
      dyz     :     0.017353
      dx2y2   :     0.032513
      dxy     :     0.023911
      f0      :     0.001087  f :     0.005575
      f+1     :     0.000729
      f-1     :     0.001059
      f+2     :     0.000371
      f-2     :     0.000862
      f+3     :     0.000567
      f-3     :     0.000899
  7 H s       :     0.710803  s :     0.710803
      pz      :    -0.005442  p :     0.025176
      px      :     0.015345
      py      :     0.015274
  8 H s       :     0.707184  s :     0.707184
      pz      :     0.020295  p :     0.061114
      px      :    -0.014824
      py      :     0.055644
  9 H s       :     0.698940  s :     0.698940
      pz      :    -0.004273  p :     0.024938
      px      :     0.022428
      py      :     0.006783
 10 C s       :     3.422942  s :     3.422942
      pz      :     1.116952  p :     2.711703
      px      :     0.664623
      py      :     0.930128
      dz2     :    -0.008411  d :     0.131612
      dxz     :     0.037874
      dyz     :     0.039151
      dx2y2   :     0.042008
      dxy     :     0.020991
      f0      :     0.001645  f :     0.013055
      f+1     :     0.000815
      f-1     :     0.001452
      f+2     :     0.000513
      f-2     :     0.002309
      f+3     :     0.003963
      f-3     :     0.002359
 11 H s       :     0.715256  s :     0.715256
      pz      :     0.015847  p :     0.039767
      px      :     0.010493
      py      :     0.013427
 12 H s       :     0.726484  s :     0.726484
      pz      :     0.019627  p :     0.034962
      px      :     0.010777
      py      :     0.004558
 13 F s       :     4.061278  s :     4.061278
      pz      :     1.928188  p :     5.359424
      px      :     1.646045
      py      :     1.785191
      dz2     :     0.006605  d :     0.043096
      dxz     :     0.010147
      dyz     :     0.010547
      dx2y2   :     0.010742
      dxy     :     0.005055
      f0      :     0.000061  f :     0.000611
      f+1     :     0.000089
      f-1     :     0.000046
      f+2     :     0.000026
      f-2     :     0.000087
      f+3     :     0.000124
      f-3     :     0.000178
 14 H s       :     0.625778  s :     0.625778
      pz      :     0.038120  p :     0.031454
      px      :    -0.015084
      py      :     0.008417
 15 H s       :     0.632347  s :     0.632347
      pz      :     0.018708  p :     0.060336
      px      :     0.009571
      py      :     0.032057
 16 C s       :     3.302287  s :     3.302287
      pz      :     0.651924  p :     2.024141
      px      :     0.613200
      py      :     0.759016
      dz2     :     0.069090  d :     0.105772
      dxz     :    -0.025618
      dyz     :    -0.001334
      dx2y2   :     0.078219
      dxy     :    -0.014585
      f0      :     0.002683  f :     0.019263
      f+1     :     0.002820
      f-1     :     0.002243
      f+2     :     0.003372
      f-2     :     0.003271
      f+3     :     0.002082
      f-3     :     0.002792
 17 C s       :     3.587630  s :     3.587630
      pz      :     1.206639  p :     3.721191
      px      :     1.368315
      py      :     1.146237
      dz2     :     0.005052  d :     0.089378
      dxz     :     0.030395
      dyz     :     0.019918
      dx2y2   :     0.002433
      dxy     :     0.031580
      f0      :     0.000611  f :     0.005088
      f+1     :     0.000470
      f-1     :     0.000486
      f+2     :     0.000828
      f-2     :     0.000994
      f+3     :     0.000630
      f-3     :     0.001070
 18 N s       :     3.488624  s :     3.488624
      pz      :     1.238071  p :     3.863088
      px      :     1.503715
      py      :     1.121302
      dz2     :     0.012918  d :     0.046111
      dxz     :     0.011523
      dyz     :     0.001099
      dx2y2   :     0.009010
      dxy     :     0.011560
      f0      :     0.000240  f :     0.003173
      f+1     :     0.000604
      f-1     :     0.000529
      f+2     :     0.000464
      f-2     :     0.000624
      f+3     :     0.000528
      f-3     :     0.000183
 19 H s       :     0.780480  s :     0.780480
      pz      :     0.008430  p :     0.040455
      px      :     0.009411
      py      :     0.022614
 20 H s       :     0.756848  s :     0.756848
      pz      :     0.025030  p :     0.058383
      px      :     0.030448
      py      :     0.002905
 21 H s       :     0.573146  s :     0.573146
      pz      :     0.027672  p :    -0.055219
      px      :    -0.028715
      py      :    -0.054175
 22 H s       :     0.318879  s :     0.318879
      pz      :    -0.073594  p :     0.001032
      px      :     0.017268
      py      :     0.057358
 23 H s       :     0.610014  s :     0.610014
      pz      :     0.016421  p :     0.106798
      px      :     0.078771
      py      :     0.011606
 24 H s       :     0.709414  s :     0.709414
      pz      :     0.027706  p :     0.028976
      px      :    -0.012697
      py      :     0.013967
 25 H s       :     0.759545  s :     0.759545
      pz      :     0.018853  p :     0.060535
      px      :     0.030628
      py      :     0.011054
 26 H s       :     0.712192  s :     0.712192
      pz      :     0.027456  p :     0.046612
      px      :     0.020519
      py      :    -0.001363
 27 H s       :     0.731788  s :     0.731788
      pz      :     0.005914  p :     0.057781
      px      :     0.014331
      py      :     0.037536


                     *******************************
                     * LOEWDIN POPULATION ANALYSIS *
                     *******************************

----------------------
LOEWDIN ATOMIC CHARGES
----------------------
   0 C :   -0.193571
   1 C :   -0.191092
   2 N :    0.029423
   3 C :   -0.199953
   4 C :   -0.201789
   5 H :    0.104151
   6 C :   -0.169130
   7 H :    0.108272
   8 H :    0.104728
   9 H :    0.115134
  10 C :   -0.188589
  11 H :    0.131818
  12 H :    0.120410
  13 F :   -0.076548
  14 H :    0.115808
  15 H :    0.112558
  16 C :   -0.545721
  17 C :    0.008335
  18 N :    0.124565
  19 H :    0.080346
  20 H :    0.101780
  21 H :    0.087564
  22 H :   -0.014944
  23 H :    0.007087
  24 H :    0.109512
  25 H :    0.107914
  26 H :    0.104188
  27 H :    0.107744

-------------------------------
LOEWDIN REDUCED ORBITAL CHARGES
-------------------------------
  0 C s       :     2.662896  s :     2.662896
      pz      :     0.917772  p :     2.654334
      px      :     0.879040
      py      :     0.857522
      dz2     :     0.169530  d :     0.819144
      dxz     :     0.144809
      dyz     :     0.109497
      dx2y2   :     0.187731
      dxy     :     0.207577
      f0      :     0.007367  f :     0.057197
      f+1     :     0.006739
      f-1     :     0.003906
      f+2     :     0.005466
      f-2     :     0.010958
      f+3     :     0.011255
      f-3     :     0.011506
  1 C s       :     2.675657  s :     2.675657
      pz      :     0.919969  p :     2.739205
      px      :     0.907911
      py      :     0.911324
      dz2     :     0.181310  d :     0.736694
      dxz     :     0.146726
      dyz     :     0.076138
      dx2y2   :     0.157090
      dxy     :     0.175431
      f0      :     0.003589  f :     0.039536
      f+1     :     0.007695
      f-1     :     0.004644
      f+2     :     0.005197
      f-2     :     0.005624
      f+3     :     0.007558
      f-3     :     0.005229
  2 N s       :     2.816203  s :     2.816203
      pz      :     1.177299  p :     3.428149
      px      :     1.157464
      py      :     1.093386
      dz2     :     0.112733  d :     0.708917
      dxz     :     0.115740
      dyz     :     0.145591
      dx2y2   :     0.169080
      dxy     :     0.165774
      f0      :     0.002113  f :     0.017307
      f+1     :     0.002962
      f-1     :     0.001230
      f+2     :     0.002917
      f-2     :     0.002916
      f+3     :     0.002139
      f-3     :     0.003030
  3 C s       :     2.677906  s :     2.677906
      pz      :     0.919636  p :     2.744142
      px      :     0.910805
      py      :     0.913701
      dz2     :     0.114459  d :     0.738656
      dxz     :     0.119806
      dyz     :     0.148024
      dx2y2   :     0.195761
      dxy     :     0.160606
      f0      :     0.004703  f :     0.039249
      f+1     :     0.002996
      f-1     :     0.005639
      f+2     :     0.006673
      f-2     :     0.004425
      f+3     :     0.007928
      f-3     :     0.006886
  4 C s       :     2.672971  s :     2.672971
      pz      :     0.911685  p :     2.744274
      px      :     0.922606
      py      :     0.909983
      dz2     :     0.130219  d :     0.744819
      dxz     :     0.150729
      dyz     :     0.192142
      dx2y2   :     0.120439
      dxy     :     0.151291
      f0      :     0.008284  f :     0.039725
      f+1     :     0.002857
      f-1     :     0.006096
      f+2     :     0.006092
      f-2     :     0.005655
      f+3     :     0.005187
      f-3     :     0.005554
  5 H s       :     0.658163  s :     0.658163
      pz      :     0.069614  p :     0.237686
      px      :     0.106552
      py      :     0.061520
  6 C s       :     2.681463  s :     2.681463
      pz      :     0.928491  p :     2.744360
      px      :     0.903096
      py      :     0.912773
      dz2     :     0.147581  d :     0.704338
      dxz     :     0.143669
      dyz     :     0.176072
      dx2y2   :     0.083646
      dxy     :     0.153370
      f0      :     0.006775  f :     0.038970
      f+1     :     0.006734
      f-1     :     0.005126
      f+2     :     0.005724
      f-2     :     0.005123
      f+3     :     0.003808
      f-3     :     0.005678
  7 H s       :     0.688809  s :     0.688809
      pz      :     0.062889  p :     0.202919
      px      :     0.076487
      py      :     0.063543
  8 H s       :     0.671957  s :     0.671957
      pz      :     0.072746  p :     0.223315
      px      :     0.055413
      py      :     0.095156
  9 H s       :     0.685113  s :     0.685113
      pz      :     0.056540  p :     0.199752
      px      :     0.078792
      py      :     0.064420
 10 C s       :     2.683592  s :     2.683592
      pz      :     0.939731  p :     2.560490
      px      :     0.760452
      py      :     0.860307
      dz2     :     0.101291  d :     0.854219
      dxz     :     0.131264
      dyz     :     0.190135
      dx2y2   :     0.222483
      dxy     :     0.209046
      f0      :     0.009544  f :     0.090289
      f+1     :     0.009763
      f-1     :     0.007156
      f+2     :     0.007616
      f-2     :     0.013078
      f+3     :     0.023219
      f-3     :     0.019913
 11 H s       :     0.682665  s :     0.682665
      pz      :     0.082354  p :     0.185517
      px      :     0.036943
      py      :     0.066220
 12 H s       :     0.692737  s :     0.692737
      pz      :     0.093748  p :     0.186853
      px      :     0.038802
      py      :     0.054302
 13 F s       :     3.527786  s :     3.527786
      pz      :     1.825177  p :     5.188879
      px      :     1.645354
      py      :     1.718348
      dz2     :     0.037782  d :     0.358278
      dxz     :     0.091497
      dyz     :     0.052640
      dx2y2   :     0.108740
      dxy     :     0.067618
      f0      :     0.000165  f :     0.001605
      f+1     :     0.000215
      f-1     :     0.000089
      f+2     :     0.000083
      f-2     :     0.000261
      f+3     :     0.000417
      f-3     :     0.000375
 14 H s       :     0.675714  s :     0.675714
      pz      :     0.100051  p :     0.208478
      px      :     0.063253
      py      :     0.045175
 15 H s       :     0.691057  s :     0.691057
      pz      :     0.056873  p :     0.196385
      px      :     0.060967
      py      :     0.078544
 16 C s       :     2.592443  s :     2.592443
      pz      :     0.786330  p :     2.517784
      px      :     0.799899
      py      :     0.931556
      dz2     :     0.247778  d :     1.316216
      dxz     :     0.190182
      dyz     :     0.319921
      dx2y2   :     0.271994
      dxy     :     0.286341
      f0      :     0.017642  f :     0.119277
      f+1     :     0.017119
      f-1     :     0.015176
      f+2     :     0.018791
      f-2     :     0.015931
      f+3     :     0.016158
      f-3     :     0.018460
 17 C s       :     2.708969  s :     2.708969
      pz      :     0.945420  p :     2.853349
      px      :     0.941592
      py      :     0.966337
      dz2     :     0.042095  d :     0.397303
      dxz     :     0.050662
      dyz     :     0.097289
      dx2y2   :     0.107560
      dxy     :     0.099697
      f0      :     0.003398  f :     0.032043
      f+1     :     0.002006
      f-1     :     0.004194
      f+2     :     0.004461
      f-2     :     0.003970
      f+3     :     0.006854
      f-3     :     0.007161
 18 N s       :     2.912912  s :     2.912912
      pz      :     1.171342  p :     3.575358
      px      :     1.284401
      py      :     1.119614
      dz2     :     0.092203  d :     0.375802
      dxz     :     0.066498
      dyz     :     0.079321
      dx2y2   :     0.071438
      dxy     :     0.066342
      f0      :     0.000992  f :     0.011363
      f+1     :     0.001884
      f-1     :     0.002073
      f+2     :     0.001668
      f-2     :     0.001912
      f+3     :     0.002042
      f-3     :     0.000792
 19 H s       :     0.628751  s :     0.628751
      pz      :     0.071917  p :     0.290903
      px      :     0.112475
      py      :     0.106510
 20 H s       :     0.630291  s :     0.630291
      pz      :     0.103310  p :     0.267929
      px      :     0.091308
      py      :     0.073311
 21 H s       :     0.544084  s :     0.544084
      pz      :     0.112260  p :     0.368352
      px      :     0.090148
      py      :     0.165944
 22 H s       :     0.663040  s :     0.663040
      pz      :     0.149983  p :     0.351905
      px      :     0.117757
      py      :     0.084164
 23 H s       :     0.729836  s :     0.729836
      pz      :     0.095268  p :     0.263078
      px      :     0.103828
      py      :     0.063982
 24 H s       :     0.684793  s :     0.684793
      pz      :     0.094238  p :     0.205695
      px      :     0.055768
      py      :     0.055689
 25 H s       :     0.686237  s :     0.686237
      pz      :     0.068998  p :     0.205850
      px      :     0.084500
      py      :     0.052352
 26 H s       :     0.676024  s :     0.676024
      pz      :     0.091702  p :     0.219788
      px      :     0.055136
      py      :     0.072949
 27 H s       :     0.686886  s :     0.686886
      pz      :     0.052110  p :     0.205370
      px      :     0.062388
      py      :     0.090873


                      *****************************
                      * MAYER POPULATION ANALYSIS *
                      *****************************

  NA   - Mulliken gross atomic population
  ZA   - Total nuclear charge
  QA   - Mulliken gross atomic charge
  VA   - Mayer's total valence
  BVA  - Mayer's bonded valence
  FA   - Mayer's free valence

  ATOM       NA         ZA         QA         VA         BVA        FA
  0 C      6.6497     6.0000    -0.6497     3.6966     3.6966     0.0000
  1 C      6.6168     6.0000    -0.6168     3.8547     3.8547    -0.0000
  2 N      7.2293     7.0000    -0.2293     2.8519     2.8519     0.0000
  3 C      6.4217     6.0000    -0.4217     3.7658     3.7658    -0.0000
  4 C      6.6032     6.0000    -0.6032     3.6113     3.6113    -0.0000
  5 H      0.6237     1.0000     0.3763     0.9312     0.9312    -0.0000
  6 C      6.4640     6.0000    -0.4640     3.5855     3.5855    -0.0000
  7 H      0.7360     1.0000     0.2640     0.9203     0.9203    -0.0000
  8 H      0.7683     1.0000     0.2317     1.0067     1.0067    -0.0000
  9 H      0.7239     1.0000     0.2761     0.9272     0.9272    -0.0000
 10 C      6.2793     6.0000    -0.2793     3.7531     3.7531    -0.0000
 11 H      0.7550     1.0000     0.2450     0.9673     0.9673    -0.0000
 12 H      0.7614     1.0000     0.2386     0.9449     0.9449     0.0000
 13 F      9.4644     9.0000    -0.4644     0.9182     0.9182    -0.0000
 14 H      0.6572     1.0000     0.3428     0.8425     0.8425     0.0000
 15 H      0.6927     1.0000     0.3073     0.8519     0.8519     0.0000
 16 C      5.4515     6.0000     0.5485     3.0659     3.0659    -0.0000
 17 C      7.4033     6.0000    -1.4033     3.3193     3.3193    -0.0000
 18 N      7.4010     7.0000    -0.4010     3.0972     3.0972    -0.0000
 19 H      0.8209     1.0000     0.1791     0.9786     0.9786    -0.0000
 20 H      0.8152     1.0000     0.1848     0.9777     0.9777    -0.0000
 21 H      0.5179     1.0000     0.4821     0.5841     0.5841    -0.0000
 22 H      0.3199     1.0000     0.6801     0.4571     0.4571     0.0000
 23 H      0.7168     1.0000     0.2832     1.0830     1.0830     0.0000
 24 H      0.7384     1.0000     0.2616     0.9064     0.9064     0.0000
 25 H      0.8201     1.0000     0.1799     1.0016     1.0016     0.0000
 26 H      0.7588     1.0000     0.2412     0.9738     0.9738     0.0000
 27 H      0.7896     1.0000     0.2104     0.9965     0.9965    -0.0000

  Mayer bond orders larger than 0.100000
B(  0-C ,  1-C ) :   0.9373 B(  0-C ,  2-N ) :   1.0096 B(  0-C , 14-H ) :   0.8507 
B(  0-C , 15-H ) :   0.8669 B(  0-C , 16-C ) :  -0.1651 B(  1-C ,  3-C ) :   0.8528 
B(  1-C , 26-H ) :   0.9351 B(  1-C , 27-H ) :   1.0395 B(  2-N , 16-C ) :   1.0615 
B(  2-N , 21-H ) :   0.6916 B(  3-C ,  4-C ) :   0.8404 B(  3-C ,  6-C ) :   0.1698 
B(  3-C , 24-H ) :   0.9504 B(  3-C , 25-H ) :   1.0232 B(  4-C ,  5-H ) :   0.9433 
B(  4-C ,  6-C ) :   0.6484 B(  4-C ,  7-H ) :   0.9548 B(  4-C , 10-C ) :   0.1873 
B(  6-C ,  8-H ) :   0.9993 B(  6-C ,  9-H ) :   0.9768 B(  6-C , 10-C ) :   0.8193 
B( 10-C , 11-H ) :   0.9878 B( 10-C , 12-H ) :   0.9543 B( 10-C , 13-F ) :   0.7736 
B( 13-F , 17-C ) :   0.1279 B( 13-F , 22-H ) :  -0.1271 B( 16-C , 17-C ) :   1.3220 
B( 16-C , 18-N ) :   0.9905 B( 16-C , 22-H ) :  -0.1011 B( 16-C , 23-H ) :  -0.1055 
B( 17-C , 22-H ) :   0.5992 B( 17-C , 23-H ) :   1.1037 B( 18-N , 19-H ) :   0.9887 
B( 18-N , 20-H ) :   0.9865 

-------
TIMINGS
-------

Total SCF time: 0 days 0 hours 3 min 38 sec 

Total time                  ....     218.625 sec
Sum of individual times     ....     217.701 sec  ( 99.6%)

Fock matrix formation       ....     210.935 sec  ( 96.5%)
  Split-RI-J                ....      13.602 sec  (  6.4% of F)
  Chain of spheres X        ....     168.609 sec  ( 79.9% of F)
  XC integration            ....      28.425 sec  ( 13.5% of F)
    Basis function eval.    ....       5.955 sec  ( 20.9% of XC)
    Density eval.           ....       9.904 sec  ( 34.8% of XC)
    XC-Functional eval.     ....       0.450 sec  (  1.6% of XC)
    XC-Potential eval.      ....      11.440 sec  ( 40.2% of XC)
Diagonalization             ....       0.830 sec  (  0.4%)
Density matrix formation    ....       0.050 sec  (  0.0%)
Population analysis         ....       0.110 sec  (  0.1%)
Initial guess               ....       1.357 sec  (  0.6%)
Orbital Transformation      ....       0.000 sec  (  0.0%)
Orbital Orthonormalization  ....       0.000 sec  (  0.0%)
DIIS solution               ....       0.441 sec  (  0.2%)
SOSCF solution              ....       0.503 sec  (  0.2%)
Grid generation             ....       3.474 sec  (  1.6%)

Maximum memory used throughout the entire SCF-calculation: 126.6 MB


-------------------------------------------------------------------------------
                          DFT DISPERSION CORRECTION                            
                                                                               
                              DFTD3 V3.1  Rev 1                                
                          USING Becke-Johnson damping                          
-------------------------------------------------------------------------------
The B3LYP functional is recognized
Active option DFTDOPT                   ...         4   

molecular C6(AA) [au] = 5752.508575 


            DFT-D V3
 parameters
 s6 scaling factor         :     1.0000 
 a1 scaling factor         :     0.3981 
 s8 scaling factor         :     1.9889 
 a2 scaling factor         :     4.4211 
 ad hoc parameters k1-k3   :    16.0000     1.3333    -4.0000 

 Edisp/kcal,au: -29.409270781578  -0.046866651198 
 E6   /kcal   : -14.691932051 
 E8   /kcal   : -14.717338730 
 % E8         :  50.043195017 

-------------------------   ----------------
Dispersion correction           -0.046866651
-------------------------   ----------------


-------------------------   --------------------
FINAL SINGLE POINT ENERGY      -524.292026451642
-------------------------   --------------------


                            ***************************************
                            *     ORCA property calculations      *
                            ***************************************

                                    ---------------------
                                    Active property flags
                                    ---------------------
   (+) Dipole Moment


------------------------------------------------------------------------------
                       ORCA ELECTRIC PROPERTIES CALCULATION
------------------------------------------------------------------------------

Dipole Moment Calculation                       ... on
Quadrupole Moment Calculation                   ... off
Polarizability Calculation                      ... off
GBWName                                         ... 28Oct_TZVPD_B3LYP_D2_wb97.gbw
Electron density file                           ... 28Oct_TZVPD_B3LYP_D2_wb97.scfp
The origin for moment calculation is the CENTER OF MASS  = ( 3.193992,  0.492322 -9.464323)

-------------
DIPOLE MOMENT
-------------
                                X             Y             Z
Electronic contribution:      6.35782       2.44379       1.72842
Nuclear contribution   :     -7.85451      -2.70006      -1.48294
                        -----------------------------------------
Total Dipole Moment    :     -1.49669      -0.25627       0.24548
                        -----------------------------------------
Magnitude (a.u.)       :      1.53818
Magnitude (Debye)      :      3.90975



--------------------
Rotational spectrum 
--------------------
 
Rotational constants in cm-1:     0.044065     0.029250     0.019826 
Rotational constants in MHz :  1321.026981   876.903192   594.367265 

 Dipole components along the rotational axes: 
x,y,z [a.u.] :     1.233611    -0.905475    -0.155968 
x,y,z [Debye]:     3.135591    -2.301536    -0.396439 

 

Timings for individual modules:

Sum of individual times         ...      219.967 sec (=   3.666 min)
GTO integral calculation        ...        0.961 sec (=   0.016 min)   0.4 %
SCF iterations                  ...      219.006 sec (=   3.650 min)  99.6 %
                             ****ORCA TERMINATED NORMALLY****
TOTAL RUN TIME: 0 days 0 hours 3 minutes 40 seconds 782 msec
