
                                        *****************
                                        * O   R   C   A *
                                        *****************

                                            #,                                       
                                            ###                                      
                                            ####                                     
                                            #####                                    
                                            ######                                   
                                           ########,                                 
                                     ,,################,,,,,                         
                               ,,#################################,,                 
                          ,,##########################################,,             
                       ,#########################################, ''#####,          
                    ,#############################################,,   '####,        
                  ,##################################################,,,,####,       
                ,###########''''           ''''###############################       
              ,#####''   ,,,,##########,,,,          '''####'''          '####       
            ,##' ,,,,###########################,,,                        '##       
           ' ,,###''''                  '''############,,,                           
         ,,##''                                '''############,,,,        ,,,,,,###''
      ,#''                                            '''#######################'''  
     '                                                          ''''####''''         
             ,#######,   #######,   ,#######,      ##                                
            ,#'     '#,  ##    ##  ,#'     '#,    #''#        ######   ,####,        
            ##       ##  ##   ,#'  ##            #'  '#       #        #'  '#        
            ##       ##  #######   ##           ,######,      #####,   #    #        
            '#,     ,#'  ##    ##  '#,     ,#' ,#      #,         ##   #,  ,#        
             '#######'   ##     ##  '#######'  #'      '#     #####' # '####'        



                  #######################################################
                  #                        -***-                        #
                  #          Department of theory and spectroscopy      #
                  #    Directorship and core code : Frank Neese         #
                  #        Max Planck Institute fuer Kohlenforschung    #
                  #                Kaiser Wilhelm Platz 1               #
                  #                 D-45470 Muelheim/Ruhr               #
                  #                      Germany                        #
                  #                                                     #
                  #                  All rights reserved                #
                  #                        -***-                        #
                  #######################################################


                         Program Version 5.0.0 -  RELEASE  -
                                (SVN: $Rev: 19529$)
                ($Date: 2021-06-28 11:36:33 +0200 (Mo, 28 Jun 2021) $)


 With contributions from (in alphabetic order):
   Daniel Aravena         : Magnetic Suceptibility
   Michael Atanasov       : Ab Initio Ligand Field Theory (pilot matlab implementation)
   Alexander A. Auer      : GIAO ZORA, VPT2 properties, NMR spectrum
   Ute Becker             : Parallelization
   Giovanni Bistoni       : ED, misc. LED, open-shell LED, HFLD
   Martin Brehm           : Molecular dynamics
   Dmytro Bykov           : SCF Hessian
   Vijay G. Chilkuri      : MRCI spin determinant printing, contributions to CSF-ICE
   Dipayan Datta          : RHF DLPNO-CCSD density
   Achintya Kumar Dutta   : EOM-CC, STEOM-CC
   Dmitry Ganyushin       : Spin-Orbit,Spin-Spin,Magnetic field MRCI
   Miquel Garcia          : C-PCM Hessian, Gaussian charge scheme
   Yang Guo               : DLPNO-NEVPT2, F12-NEVPT2, CIM, IAO-localization
   Andreas Hansen         : Spin unrestricted coupled pair/coupled cluster methods
   Benjamin Helmich-Paris : MC-RPA, TRAH-SCF, COSX integrals
   Lee Huntington         : MR-EOM, pCC
   Robert Izsak           : Overlap fitted RIJCOSX, COSX-SCS-MP3, EOM
   Marcus Kettner         : VPT2
   Christian Kollmar      : KDIIS, OOCD, Brueckner-CCSD(T), CCSD density, CASPT2, CASPT2-K
   Simone Kossmann        : Meta GGA functionals, TD-DFT gradient, OOMP2, MP2 Hessian
   Martin Krupicka        : Initial AUTO-CI
   Lucas Lang             : DCDCAS
   Marvin Lechner         : AUTO-CI (C++ implementation), FIC-MRCC
   Dagmar Lenk            : GEPOL surface, SMD
   Dimitrios Liakos       : Extrapolation schemes; Compound Job, initial MDCI parallelization
   Dimitrios Manganas     : Further ROCIS development; embedding schemes
   Dimitrios Pantazis     : SARC Basis sets
   Anastasios Papadopoulos: AUTO-CI, single reference methods and gradients
   Taras Petrenko         : DFT Hessian,TD-DFT gradient, ASA, ECA, R-Raman, ABS, FL, XAS/XES, NRVS
   Peter Pinski           : DLPNO-MP2, DLPNO-MP2 Gradient
   Christoph Reimann      : Effective Core Potentials
   Marius Retegan         : Local ZFS, SOC
   Christoph Riplinger    : Optimizer, TS searches, QM/MM, DLPNO-CCSD(T), (RO)-DLPNO pert. Triples
   Tobias Risthaus        : Range-separated hybrids, TD-DFT gradient, RPA, STAB
   Michael Roemelt        : Original ROCIS implementation
   Masaaki Saitow         : Open-shell DLPNO-CCSD energy and density
   Barbara Sandhoefer     : DKH picture change effects
   Avijit Sen             : IP-ROCIS
   Kantharuban Sivalingam : CASSCF convergence, NEVPT2, FIC-MRCI
   Bernardo de Souza      : ESD, SOC TD-DFT
   Georgi Stoychev        : AutoAux, RI-MP2 NMR
   Willem Van den Heuvel  : Paramagnetic NMR
   Boris Wezisla          : Elementary symmetry handling
   Frank Wennmohs         : Technical directorship


 We gratefully acknowledge several colleagues who have allowed us to
 interface, adapt or use parts of their codes:
   Stefan Grimme, W. Hujo, H. Kruse, P. Pracht,  : VdW corrections, initial TS optimization,
                  C. Bannwarth, S. Ehlert          DFT functionals, gCP, sTDA/sTD-DF
   Ed Valeev, F. Pavosevic, A. Kumar             : LibInt (2-el integral package), F12 methods
   Garnet Chan, S. Sharma, J. Yang, R. Olivares  : DMRG
   Ulf Ekstrom                                   : XCFun DFT Library
   Mihaly Kallay                                 : mrcc  (arbitrary order and MRCC methods)
   Jiri Pittner, Ondrej Demel                    : Mk-CCSD
   Frank Weinhold                                : gennbo (NPA and NBO analysis)
   Christopher J. Cramer and Donald G. Truhlar   : smd solvation model
   Lars Goerigk                                  : TD-DFT with DH, B97 family of functionals
   V. Asgeirsson, H. Jonsson                     : NEB implementation
   FAccTs GmbH                                   : IRC, NEB, NEB-TS, DLPNO-Multilevel, CI-OPT
                                                   MM, QMMM, 2- and 3-layer-ONIOM, Crystal-QMMM,
                                                   LR-CPCM, SF, NACMEs, symmetry and pop. for TD-DFT,
                                                   nearIR, NL-DFT gradient (VV10), updates on ESD,
                                                   ML-optimized integration grids
   S Lehtola, MJT Oliveira, MAL Marques          : LibXC Library
   Liviu Ungur et al                             : ANISO software


 Your calculation uses the libint2 library for the computation of 2-el integrals
 For citations please refer to: http://libint.valeyev.net

 Your ORCA version has been built with support for libXC version: 5.1.0
 For citations please refer to: https://tddft.org/programs/libxc/

 This ORCA versions uses:
   CBLAS   interface :  Fast vector & matrix operations
   LAPACKE interface :  Fast linear algebra routines
   SCALAPACK package :  Parallel linear algebra routines
   Shared memory     :  Shared parallel matrices
   BLAS/LAPACK       :  OpenBLAS 0.3.15  USE64BITINT DYNAMIC_ARCH NO_AFFINITY Haswell SINGLE_THREADED
        Core in use  :  Haswell
   Copyright (c) 2011-2014, The OpenBLAS Project


Your calculation utilizes the atom-pairwise dispersion correction
with the zero-damping scheme (D30)
Cite in your paper:
S.Grimme, J.Antony, S.Ehrlich and H.Krieg, J.Chem.Phys., 132, (2010), 154104 
   

XCFun DFT library Copyright 2009-2010 Ulf Ekstrom and contributors.
See http://admol.org/xcfun for more information.
This is free software; see the source code for copying conditions.
There is ABSOLUTELY NO WARRANTY; not even for MERCHANTABILITY or FITNESS FOR A PARTICULAR PURPOSE.
For details see the documentation.
Scientific users of this library should cite U. Ekstrom, L. Visscher, R. Bast, A. J. Thorvaldsen and K. Ruud;
J.Chem.Theor.Comp. 2010, DOI: 10.1021/ct100117s
XCFun Version 0.99 

================================================================================

----- Orbital basis set information -----
Your calculation utilizes the basis: def2-SVP
   F. Weigend and R. Ahlrichs, Phys. Chem. Chem. Phys. 7, 3297 (2005).

----- AuxJ basis set information -----
Your calculation utilizes the auxiliary basis: def2/J
   F. Weigend, Phys. Chem. Chem. Phys. 8, 1057 (2006).

================================================================================
                                        WARNINGS
                       Please study these warnings very carefully!
================================================================================


INFO   : the flag for use of the SHARK integral package has been found!

================================================================================
                                       INPUT FILE
================================================================================
NAME = C3_pos.com
|  1> !wB97X-D3 RIJCOSX def2-SVP def2/J TightSCF 
|  2> *xyz 0 1 
|  3> C          3.48828        1.60092       -1.52204
|  4> N          2.81029        0.42878       -1.01420
|  5> C          3.29098       -0.41802       -0.12908
|  6> N          2.51754       -1.43202        0.23936
|  7> C          4.53549       -0.28441        0.39580
|  8> H          5.04363        0.57189        0.22290
|  9> H          4.72335       -0.73327        1.28180
| 10> H          1.93479        0.10230       -1.40379
| 11> H          1.67464       -1.50562       -0.31610
| 12> H          2.92850       -2.21850        0.72549
| 13> H          2.85802        2.09943       -2.22855
| 14> H          4.39853        1.30677       -2.00144
| 15> H          3.70992        2.26379       -0.71187
| 16> *
| 17> %MaxCore 64000
| 18> 
| 19> %pal nprocs 18
| 20> end  
| 21> 
| 22> %scf
| 23>   MaxIter 150
| 24> end
| 25> 
| 26> 
| 27>                          ****END OF INPUT****
================================================================================

                       ****************************
                       * Single Point Calculation *
                       ****************************

---------------------------------
CARTESIAN COORDINATES (ANGSTROEM)
---------------------------------
  C      3.488280    1.600920   -1.522040
  N      2.810290    0.428780   -1.014200
  C      3.290980   -0.418020   -0.129080
  N      2.517540   -1.432020    0.239360
  C      4.535490   -0.284410    0.395800
  H      5.043630    0.571890    0.222900
  H      4.723350   -0.733270    1.281800
  H      1.934790    0.102300   -1.403790
  H      1.674640   -1.505620   -0.316100
  H      2.928500   -2.218500    0.725490
  H      2.858020    2.099430   -2.228550
  H      4.398530    1.306770   -2.001440
  H      3.709920    2.263790   -0.711870

----------------------------
CARTESIAN COORDINATES (A.U.)
----------------------------
  NO LB      ZA    FRAG     MASS         X           Y           Z
   0 C     6.0000    0    12.011    6.591894    3.025300   -2.876239
   1 N     7.0000    0    14.007    5.310678    0.810277   -1.916560
   2 C     6.0000    0    12.011    6.219051   -0.789943   -0.243926
   3 N     7.0000    0    14.007    4.757461   -2.706126    0.452325
   4 C     6.0000    0    12.011    8.570834   -0.537457    0.747954
   5 H     1.0000    0     1.008    9.531079    1.080715    0.421220
   6 H     1.0000    0     1.008    8.925838   -1.385679    2.422251
   7 H     1.0000    0     1.008    3.656223    0.193319   -2.652779
   8 H     1.0000    0     1.008    3.164611   -2.845209   -0.597342
   9 H     1.0000    0     1.008    5.534063   -4.192357    1.370977
  10 H     1.0000    0     1.008    5.400875    3.967348   -4.211349
  11 H     1.0000    0     1.008    8.312017    2.469437   -3.782173
  12 H     1.0000    0     1.008    7.010733    4.277943   -1.345239

--------------------------------
INTERNAL COORDINATES (ANGSTROEM)
--------------------------------
 C      0   0   0     0.000000000000     0.00000000     0.00000000
 N      1   0   0     1.446196420027     0.00000000     0.00000000
 C      2   1   0     1.315891534474   125.91025238     0.00000000
 N      3   2   1     1.327461286516   117.73705795   178.95874270
 C      3   2   1     1.357260397492   122.12206254   358.50918587
 H      5   3   2     1.010618800340   118.57313099    10.64293628
 H      5   3   2     1.010822773388   117.75308784   158.14426892
 H      2   1   3     1.012358537525   122.11879420   188.13379612
 H      4   3   2     1.012142866200   112.85787808     8.15033951
 H      4   3   2     1.011810895820   119.37039034   164.55796622
 H      1   2   3     1.069998255980   109.47115610   180.00010433
 H      1   2   3     1.070001703270   109.47133982    60.00028743
 H      1   2   3     1.069998296915   109.47122759   300.00036847

---------------------------
INTERNAL COORDINATES (A.U.)
---------------------------
 C      0   0   0     0.000000000000     0.00000000     0.00000000
 N      1   0   0     2.732915169709     0.00000000     0.00000000
 C      2   1   0     2.486674622101   125.91025238     0.00000000
 N      3   2   1     2.508538284899   117.73705795   178.95874270
 C      3   2   1     2.564850443677   122.12206254   358.50918587
 H      5   3   2     1.909792758434   118.57313099    10.64293628
 H      5   3   2     1.910178211634   117.75308784   158.14426892
 H      2   1   3     1.913080385260   122.11879420   188.13379612
 H      4   3   2     1.912672825521   112.85787808     8.15033951
 H      4   3   2     1.912045492417   119.37039034   164.55796622
 H      1   2   3     2.022003667575   109.47115610   180.00010433
 H      1   2   3     2.022010182009   109.47133982    60.00028743
 H      1   2   3     2.022003744931   109.47122759   300.00036847

---------------------
BASIS SET INFORMATION
---------------------
There are 3 groups of distinct atoms

 Group   1 Type C   : 7s4p1d contracted to 3s2p1d pattern {511/31/1}
 Group   2 Type N   : 7s4p1d contracted to 3s2p1d pattern {511/31/1}
 Group   3 Type H   : 4s1p contracted to 2s1p pattern {31/1}

Atom   0C    basis set group =>   1
Atom   1N    basis set group =>   2
Atom   2C    basis set group =>   1
Atom   3N    basis set group =>   2
Atom   4C    basis set group =>   1
Atom   5H    basis set group =>   3
Atom   6H    basis set group =>   3
Atom   7H    basis set group =>   3
Atom   8H    basis set group =>   3
Atom   9H    basis set group =>   3
Atom  10H    basis set group =>   3
Atom  11H    basis set group =>   3
Atom  12H    basis set group =>   3
---------------------------------
AUXILIARY/J BASIS SET INFORMATION
---------------------------------
There are 3 groups of distinct atoms

 Group   1 Type C   : 12s5p4d2f1g contracted to 6s4p3d1f1g pattern {711111/2111/211/2/1}
 Group   2 Type N   : 12s5p4d2f1g contracted to 6s4p3d1f1g pattern {711111/2111/211/2/1}
 Group   3 Type H   : 5s2p1d contracted to 3s1p1d pattern {311/2/1}

Atom   0C    basis set group =>   1
Atom   1N    basis set group =>   2
Atom   2C    basis set group =>   1
Atom   3N    basis set group =>   2
Atom   4C    basis set group =>   1
Atom   5H    basis set group =>   3
Atom   6H    basis set group =>   3
Atom   7H    basis set group =>   3
Atom   8H    basis set group =>   3
Atom   9H    basis set group =>   3
Atom  10H    basis set group =>   3
Atom  11H    basis set group =>   3
Atom  12H    basis set group =>   3


           ************************************************************
           *        Program running with 18 parallel MPI-processes    *
           *              working on a common directory               *
           ************************************************************
------------------------------------------------------------------------------
                           ORCA GTO INTEGRAL CALCULATION
                           -- RI-GTO INTEGRALS CHOSEN --
------------------------------------------------------------------------------
------------------------------------------------------------------------------
                   ___                                                        
                  /   \      - P O W E R E D   B Y -                         
                 /     \                                                     
                 |  |  |   _    _      __       _____    __    __             
                 |  |  |  | |  | |    /  \     |  _  \  |  |  /  |          
                  \  \/   | |  | |   /    \    | | | |  |  | /  /          
                 / \  \   | |__| |  /  /\  \   | |_| |  |  |/  /          
                |  |  |   |  __  | /  /__\  \  |    /   |      \           
                |  |  |   | |  | | |   __   |  |    \   |  |\   \          
                \     /   | |  | | |  |  |  |  | |\  \  |  | \   \       
                 \___/    |_|  |_| |__|  |__|  |_| \__\ |__|  \__/        
                                                                              
                      - O R C A' S   B I G   F R I E N D -                    
                                      &                                       
                       - I N T E G R A L  F E E D E R -                       
                                                                              
 v1 FN, 2020, v2 2021                                                         
------------------------------------------------------------------------------


Reading SHARK input file C3_pos.SHARKINP.tmp ... ok
----------------------
SHARK INTEGRAL PACKAGE
----------------------

Number of atoms                             ...     13
Number of basis functions                   ...    110
Number of shells                            ...     54
Maximum angular momentum                    ...      2
Integral batch strategy                     ... SHARK/LIBINT Hybrid
RI-J (if used) integral strategy            ... SPLIT-RIJ (Revised 2003 algorithm where possible)
Printlevel                                  ...      1
Contraction scheme used                     ... SEGMENTED contraction
Coulomb Range Separation                    ... NOT USED
Exchange Range Separation                   ... Long Range
   Mu parameter                             ...  0.250000
   Scaling (regular/separated)              ...  0.195728  0.804272
Finite Nucleus Model                        ... NOT USED
Auxiliary Coulomb fitting basis             ... AVAILABLE
   # of basis functions in Aux-J            ...    333
   # of shells in Aux-J                     ...    115
   Maximum angular momentum in Aux-J        ...      4
Auxiliary J/K fitting basis                 ... NOT available
Auxiliary Correlation fitting basis         ... NOT available
Auxiliary 'external' fitting basis          ... NOT available
Integral threshold                          ...     2.500000e-11
Primitive cut-off                           ...     2.500000e-12
Primitive pair pre-selection threshold      ...     2.500000e-12

Calculating pre-screening integrals         ... done (  0.0 sec) Dimension = 54
Organizing shell pair data                  ... done (  0.0 sec)
Shell pair information
Total number of shell pairs                 ...      1485
Shell pairs after pre-screening             ...      1463
Total number of primitive shell pairs       ...      5139
Primitive shell pairs kept                  ...      4043
          la=0 lb=0:    488 shell pairs
          la=1 lb=0:    550 shell pairs
          la=1 lb=1:    167 shell pairs
          la=2 lb=0:    153 shell pairs
          la=2 lb=1:     90 shell pairs
          la=2 lb=2:     15 shell pairs

Calculating one electron integrals          ... done (  0.0 sec)
Calculating RI/J V-Matrix + Cholesky decomp.... done (  0.0 sec)
Calculating Nuclear repulsion               ... done (  0.0 sec) ENN=    185.483186708216 Eh

SHARK setup successfully completed in   0.2 seconds

Maximum memory used throughout the entire GTOINT-calculation: 8.8 MB


           ************************************************************
           *        Program running with 18 parallel MPI-processes    *
           *              working on a common directory               *
           ************************************************************
-------------------------------------------------------------------------------
                                 ORCA SCF
-------------------------------------------------------------------------------

------------
SCF SETTINGS
------------
Hamiltonian:
 Density Functional     Method          .... DFT(GTOs)
 Exchange Functional    Exchange        .... WB97X-D3
 Correlation Functional Correlation     .... WB97X-D3
 Gradients option       PostSCFGGA      .... off
 Hybrid DFT is turned on
   Fraction HF Exchange ScalHFX         ....  0.195728
   Scaling of DF-GGA-X  ScalDFX         ....  0.000000
   Scaling of DF-GGA-C  ScalDFC         ....  1.000000
   Scaling of DF-LDA-C  ScalLDAC        ....  1.000000
   Perturbative correction              ....  0.000000
   Density functional embedding theory  .... OFF
 Long-range corrected/Screened/Range-Separated Hybrid DFT is turned on
   Amount of maximum screened exact exchange              ....  0.804272
   Range separation parameter mu (erf(mu*r12)/r12)        ....  0.250000
 RI-approximation to the Coulomb term is turned on
   Number of AuxJ basis functions       .... 333
   RIJ-COSX (HFX calculated with COS-X)).... on


General Settings:
 Integral files         IntName         .... C3_pos
 Hartree-Fock type      HFTyp           .... RHF
 Total Charge           Charge          ....    0
 Multiplicity           Mult            ....    1
 Number of Electrons    NEL             ....   40
 Basis Dimension        Dim             ....  110
 Nuclear Repulsion      ENuc            ....    185.4831867082 Eh

Convergence Acceleration:
 DIIS                   CNVDIIS         .... on
   Start iteration      DIISMaxIt       ....    12
   Startup error        DIISStart       ....  0.200000
   # of expansion vecs  DIISMaxEq       ....     5
   Bias factor          DIISBfac        ....   1.050
   Max. coefficient     DIISMaxC        ....  10.000
 Trust-Rad. Augm. Hess. CNVTRAH         .... auto
   Auto Start mean grad. ratio tolernc. ....  1.125000
   Auto Start start iteration           ....    20
   Auto Start num. interpolation iter.  ....    10
   Max. Number of Micro iterations      ....    16
   Max. Number of Macro iterations      .... Maxiter - #DIIS iter
   Number of Davidson start vectors     ....     2
   Converg. threshold I  (grad. norm)   ....   1.000e-05
   Converg. threshold II (energy diff.) ....   1.000e-08
   Grad. Scal. Fac. for Micro threshold ....   0.100
   Minimum threshold for Micro iter.    ....   0.010
   NR start threshold (gradient norm)   ....   0.001
   Initial trust radius                 ....   0.400
   Minimum AH scaling param. (alpha)    ....   1.000
   Maximum AH scaling param. (alpha)    .... 1000.000
   Orbital update algorithm             .... Taylor
   White noise on init. David. guess    .... on
   Maximum white noise                  ....   0.010
   Quad. conv. algorithm                .... NR
 SOSCF                  CNVSOSCF        .... on
   Start iteration      SOSCFMaxIt      ....   150
   Startup grad/error   SOSCFStart      ....  0.003300
 Level Shifting         CNVShift        .... on
   Level shift para.    LevelShift      ....    0.2500
   Turn off err/grad.   ShiftErr        ....    0.0010
 Zerner damping         CNVZerner       .... off
 Static damping         CNVDamp         .... on
   Fraction old density DampFac         ....    0.7000
   Max. Damping (<1)    DampMax         ....    0.9800
   Min. Damping (>=0)   DampMin         ....    0.0000
   Turn off err/grad.   DampErr         ....    0.1000
 Fernandez-Rico         CNVRico         .... off

SCF Procedure:
 Maximum # iterations   MaxIter         ....   150
 SCF integral mode      SCFMode         .... Direct
   Integral package                     .... SHARK and LIBINT hybrid scheme
 Reset frequency        DirectResetFreq ....    20
 Integral Threshold     Thresh          ....  2.500e-11 Eh
 Primitive CutOff       TCut            ....  2.500e-12 Eh

Convergence Tolerance:
 Convergence Check Mode ConvCheckMode   .... Total+1el-Energy
 Convergence forced     ConvForced      .... 0
 Energy Change          TolE            ....  1.000e-08 Eh
 1-El. energy change                    ....  1.000e-05 Eh
 Orbital Gradient       TolG            ....  1.000e-05
 Orbital Rotation angle TolX            ....  1.000e-05
 DIIS Error             TolErr          ....  5.000e-07


Diagonalization of the overlap matrix:
Smallest eigenvalue                        ... 1.861e-03
Time for diagonalization                   ...    0.004 sec
Threshold for overlap eigenvalues          ... 1.000e-08
Number of eigenvalues below threshold      ... 0
Time for construction of square roots      ...    0.007 sec
Total time needed                          ...    0.012 sec

Time for model grid setup =    0.055 sec

------------------------------
INITIAL GUESS: MODEL POTENTIAL
------------------------------
Loading Hartree-Fock densities                     ... done
Calculating cut-offs                               ... done
Initializing the effective Hamiltonian             ... done
Setting up the integral package (SHARK)            ... done
Starting the Coulomb interaction                   ... done (   0.0 sec)
Reading the grid                                   ... done
Mapping shells                                     ... done
Starting the XC term evaluation                    ... done (   0.0 sec)
  promolecular density results
     # of electrons  =     39.996663650
     EX              =    -30.872927610
     EC              =     -1.314820300
     EX+EC           =    -32.187747910
Transforming the Hamiltonian                       ... done (   0.0 sec)
Diagonalizing the Hamiltonian                      ... done (   0.0 sec)
Back transforming the eigenvectors                 ... done (   0.0 sec)
Now organizing SCF variables                       ... done
                      ------------------
                      INITIAL GUESS DONE (   0.1 sec)
                      ------------------
-------------------
DFT GRID GENERATION
-------------------

General Integration Accuracy     IntAcc      ... 4.388
Radial Grid Type                 RadialGrid  ... OptM3 with GC (2021)
Angular Grid (max. ang.)         AngularGrid ... 4 (Lebedev-302)
Angular grid pruning method      GridPruning ... 4 (adaptive)
Weight generation scheme         WeightScheme... Becke
Basis function cutoff            BFCut       ... 1.0000e-11
Integration weight cutoff        WCut        ... 1.0000e-14
Angular grids for H and He will be reduced by one unit
Partially contracted basis set               ... off
Rotationally invariant grid construction     ... off

Total number of grid points                  ...    56136
Total number of batches                      ...      885
Average number of points per batch           ...       63
Average number of grid points per atom       ...     4318
Time for grid setup =    0.367 sec

--------------------
COSX GRID GENERATION
--------------------

GRIDX 1
-------
General Integration Accuracy     IntAcc      ... 3.816
Radial Grid Type                 RadialGrid  ... OptM3 with GC (2021)
Angular Grid (max. ang.)         AngularGrid ... 1 (Lebedev-50)
Angular grid pruning method      GridPruning ... 4 (adaptive)
Weight generation scheme         WeightScheme... Becke
Basis function cutoff            BFCut       ... 1.0000e-11
Integration weight cutoff        WCut        ... 1.0000e-14
Angular grids for H and He will be reduced by one unit
Partially contracted basis set               ... on
Rotationally invariant grid construction     ... off

Total number of grid points                  ...     7227
Total number of batches                      ...      121
Average number of points per batch           ...       59
Average number of grid points per atom       ...      556
UseSFitting                                  ... on

GRIDX 2
-------
General Integration Accuracy     IntAcc      ... 4.020
Radial Grid Type                 RadialGrid  ... OptM3 with GC (2021)
Angular Grid (max. ang.)         AngularGrid ... 2 (Lebedev-110)
Angular grid pruning method      GridPruning ... 4 (adaptive)
Weight generation scheme         WeightScheme... Becke
Basis function cutoff            BFCut       ... 1.0000e-11
Integration weight cutoff        WCut        ... 1.0000e-14
Angular grids for H and He will be reduced by one unit
Partially contracted basis set               ... on
Rotationally invariant grid construction     ... off

Total number of grid points                  ...    15296
Total number of batches                      ...      246
Average number of points per batch           ...       62
Average number of grid points per atom       ...     1177
UseSFitting                                  ... on

GRIDX 3
-------
General Integration Accuracy     IntAcc      ... 4.338
Radial Grid Type                 RadialGrid  ... OptM3 with GC (2021)
Angular Grid (max. ang.)         AngularGrid ... 3 (Lebedev-194)
Angular grid pruning method      GridPruning ... 4 (adaptive)
Weight generation scheme         WeightScheme... Becke
Basis function cutoff            BFCut       ... 1.0000e-11
Integration weight cutoff        WCut        ... 1.0000e-14
Angular grids for H and He will be reduced by one unit
Partially contracted basis set               ... on
Rotationally invariant grid construction     ... off

Total number of grid points                  ...    33498
Total number of batches                      ...      532
Average number of points per batch           ...       62
Average number of grid points per atom       ...     2577
UseSFitting                                  ... on

Time for X-Grid setup             =    0.204 sec

--------------
SCF ITERATIONS
--------------
ITER       Energy         Delta-E        Max-DP      RMS-DP      [F,P]     Damp
               ***  Starting incremental Fock matrix formation  ***
  0   -228.1281255079   0.000000000000 0.08731796  0.00274056  0.2280455 0.7000
  1   -228.2193143473  -0.091188839421 0.05863579  0.00199031  0.1367327 0.7000
                               ***Turning on DIIS***
  2   -228.2666470227  -0.047332675417 0.10136894  0.00384655  0.0693153 0.0000
  3   -228.3412412176  -0.074594194913 0.04535779  0.00129899  0.0550563 0.0000
  4   -228.3527507653  -0.011509547664 0.00695899  0.00024809  0.0092456 0.0000
                      *** Initiating the SOSCF procedure ***
                           *** Shutting down DIIS ***
                      *** Re-Reading the Fockian *** 
                      *** Removing any level shift *** 
ITER      Energy       Delta-E        Grad      Rot      Max-DP    RMS-DP
  5   -228.35307283  -0.0003220622  0.000840  0.000840  0.001880  0.000094
               *** Restarting incremental Fock matrix formation ***
  6   -228.35297195   0.0001008782  0.000391  0.000912  0.000975  0.000067
  7   -228.35297946  -0.0000075122  0.000293  0.001073  0.000773  0.000048
  8   -228.35298114  -0.0000016804  0.000095  0.000206  0.000178  0.000009
  9   -228.35298130  -0.0000001573  0.000026  0.000034  0.000062  0.000003
 10   -228.35298132  -0.0000000168  0.000009  0.000016  0.000034  0.000001
                  ***Gradient check signals convergence***
              ***Rediagonalizing the Fockian in SOSCF/NRSCF***

               *****************************************************
               *                     SUCCESS                       *
               *           SCF CONVERGED AFTER  11 CYCLES          *
               *****************************************************

Old exchange energy                            =    -10.500165813 Eh
New exchange energy                            =    -10.500207253 Eh
Exchange energy change after final integration =     -0.000041440 Eh
Total energy after final integration           =   -228.353022759 Eh
Final COS-X integration done in                =     0.464 sec

----------------
TOTAL SCF ENERGY
----------------

Total Energy       :         -228.35302276 Eh           -6213.80165 eV

Components:
Nuclear Repulsion  :          185.48318671 Eh            5047.25411 eV
Electronic Energy  :         -413.83620947 Eh          -11261.05576 eV
One Electron Energy:         -674.70341907 Eh          -18359.61342 eV
Two Electron Energy:          260.86720960 Eh            7098.55766 eV
Max COSX asymmetry :            0.00000256 Eh               0.00007 eV

Virial components:
Potential Energy   :         -454.73681567 Eh          -12374.01784 eV
Kinetic Energy     :          226.38379291 Eh            6160.21618 eV
Virial Ratio       :            2.00869863


DFT components:
N(Alpha)           :       20.000063939017 electrons
N(Beta)            :       20.000063939017 electrons
N(Total)           :       40.000127878034 electrons
E(XC)              :      -22.678966365344 Eh       
DFET-embed. en.    :        0.000000000000 Eh       

---------------
SCF CONVERGENCE
---------------

  Last Energy change         ...   -3.0526e-09  Tolerance :   1.0000e-08
  Last MAX-Density change    ...    3.1086e-15  Tolerance :   1.0000e-07
  Last RMS-Density change    ...    6.7336e-17  Tolerance :   5.0000e-09
  Last Orbital Gradient      ...    1.6913e-06  Tolerance :   1.0000e-05
  Last Orbital Rotation      ...    3.1662e-06  Tolerance :   1.0000e-05

             **** THE GBW FILE WAS UPDATED (C3_pos.gbw) ****
             **** DENSITY C3_pos.scfp WAS UPDATED ****
             **** ENERGY FILE WAS UPDATED (C3_pos.en.tmp) ****
             **** THE GBW FILE WAS UPDATED (C3_pos.gbw) ****
             **** DENSITY C3_pos.scfp WAS UPDATED ****
----------------
ORBITAL ENERGIES
----------------

  NO   OCC          E(Eh)            E(eV) 
   0   2.0000     -14.437273      -392.8582 
   1   2.0000     -14.430502      -392.6739 
   2   2.0000     -10.330052      -281.0950 
   3   2.0000     -10.314385      -280.6687 
   4   2.0000     -10.191321      -277.3200 
   5   2.0000      -1.081752       -29.4360 
   6   2.0000      -0.988045       -26.8861 
   7   2.0000      -0.821919       -22.3656 
   8   2.0000      -0.801075       -21.7984 
   9   2.0000      -0.665309       -18.1040 
  10   2.0000      -0.639875       -17.4119 
  11   2.0000      -0.624953       -17.0058 
  12   2.0000      -0.553784       -15.0692 
  13   2.0000      -0.545152       -14.8343 
  14   2.0000      -0.508646       -13.8410 
  15   2.0000      -0.478020       -13.0076 
  16   2.0000      -0.460363       -12.5271 
  17   2.0000      -0.454214       -12.3598 
  18   2.0000      -0.339154        -9.2288 
  19   2.0000      -0.243408        -6.6235 
  20   0.0000       0.126876         3.4525 
  21   0.0000       0.167103         4.5471 
  22   0.0000       0.179906         4.8955 
  23   0.0000       0.186031         5.0622 
  24   0.0000       0.211944         5.7673 
  25   0.0000       0.239506         6.5173 
  26   0.0000       0.241997         6.5851 
  27   0.0000       0.260162         7.0794 
  28   0.0000       0.284365         7.7380 
  29   0.0000       0.306822         8.3491 
  30   0.0000       0.384224        10.4553 
  31   0.0000       0.422661        11.5012 
  32   0.0000       0.476910        12.9774 
  33   0.0000       0.510164        13.8823 
  34   0.0000       0.553765        15.0687 
  35   0.0000       0.569592        15.4994 
  36   0.0000       0.576682        15.6923 
  37   0.0000       0.641607        17.4590 
  38   0.0000       0.659806        17.9542 
  39   0.0000       0.668427        18.1888 
  40   0.0000       0.680591        18.5198 
  41   0.0000       0.711753        19.3678 
  42   0.0000       0.764241        20.7961 
  43   0.0000       0.772419        21.0186 
  44   0.0000       0.774940        21.0872 
  45   0.0000       0.782093        21.2818 
  46   0.0000       0.792550        21.5664 
  47   0.0000       0.834379        22.7046 
  48   0.0000       0.851019        23.1574 
  49   0.0000       0.888300        24.1719 
  50   0.0000       0.894317        24.3356 
  51   0.0000       0.914165        24.8757 
  52   0.0000       0.942658        25.6510 
  53   0.0000       0.958441        26.0805 
  54   0.0000       0.981923        26.7195 
  55   0.0000       1.022906        27.8347 
  56   0.0000       1.038656        28.2633 
  57   0.0000       1.191548        32.4237 
  58   0.0000       1.216478        33.1021 
  59   0.0000       1.257329        34.2137 
  60   0.0000       1.290216        35.1086 
  61   0.0000       1.381269        37.5862 
  62   0.0000       1.422732        38.7145 
  63   0.0000       1.451769        39.5046 
  64   0.0000       1.514780        41.2193 
  65   0.0000       1.611855        43.8608 
  66   0.0000       1.634286        44.4712 
  67   0.0000       1.659095        45.1463 
  68   0.0000       1.698122        46.2082 
  69   0.0000       1.724795        46.9341 
  70   0.0000       1.780818        48.4585 
  71   0.0000       1.831814        49.8462 
  72   0.0000       1.884683        51.2848 
  73   0.0000       1.895938        51.5911 
  74   0.0000       1.922347        52.3097 
  75   0.0000       1.932996        52.5995 
  76   0.0000       1.949837        53.0578 
  77   0.0000       1.976320        53.7784 
  78   0.0000       2.022044        55.0226 
  79   0.0000       2.047854        55.7250 
  80   0.0000       2.083966        56.7076 
  81   0.0000       2.099580        57.1325 
  82   0.0000       2.116567        57.5947 
  83   0.0000       2.171282        59.0836 
  84   0.0000       2.273657        61.8693 
  85   0.0000       2.283408        62.1347 
  86   0.0000       2.324080        63.2414 
  87   0.0000       2.389460        65.0205 
  88   0.0000       2.419638        65.8417 
  89   0.0000       2.429966        66.1227 
  90   0.0000       2.464486        67.0621 
  91   0.0000       2.555408        69.5362 
  92   0.0000       2.573911        70.0397 
  93   0.0000       2.641315        71.8738 
  94   0.0000       2.694177        73.3123 
  95   0.0000       2.785513        75.7977 
  96   0.0000       2.819751        76.7293 
  97   0.0000       2.904183        79.0268 
  98   0.0000       2.929119        79.7054 
  99   0.0000       2.956802        80.4587 
 100   0.0000       3.056026        83.1587 
 101   0.0000       3.084988        83.9468 
 102   0.0000       3.102916        84.4346 
 103   0.0000       3.136938        85.3604 
 104   0.0000       3.186202        86.7010 
 105   0.0000       3.248167        88.3871 
 106   0.0000       3.351566        91.2007 
 107   0.0000       3.368383        91.6584 
 108   0.0000       3.698147       100.6317 
 109   0.0000       3.742751       101.8454 

                    ********************************
                    * MULLIKEN POPULATION ANALYSIS *
                    ********************************

-----------------------
MULLIKEN ATOMIC CHARGES
-----------------------
   0 C :    0.125580
   1 N :   -0.223302
   2 C :   -0.006645
   3 N :   -0.112679
   4 C :   -0.164385
   5 H :   -0.044230
   6 H :   -0.037892
   7 H :    0.106703
   8 H :    0.106335
   9 H :    0.143034
  10 H :    0.028037
  11 H :    0.038835
  12 H :    0.040609
Sum of atomic charges:    0.0000000

--------------------------------
MULLIKEN REDUCED ORBITAL CHARGES
--------------------------------
  0 C s       :     2.953698  s :     2.953698
      pz      :     1.010307  p :     2.878044
      px      :     0.990948
      py      :     0.876789
      dz2     :     0.003762  d :     0.042678
      dxz     :     0.009656
      dyz     :     0.010820
      dx2y2   :     0.009512
      dxy     :     0.008928
  1 N s       :     3.318210  s :     3.318210
      pz      :     1.410558  p :     3.882404
      px      :     1.214661
      py      :     1.257184
      dz2     :     0.003771  d :     0.022688
      dxz     :     0.003467
      dyz     :     0.005501
      dx2y2   :     0.004803
      dxy     :     0.005146
  2 C s       :     3.008642  s :     3.008642
      pz      :     0.950687  p :     2.901741
      px      :     1.036306
      py      :     0.914749
      dz2     :     0.020595  d :     0.096262
      dxz     :     0.017348
      dyz     :     0.015056
      dx2y2   :     0.018345
      dxy     :     0.024918
  3 N s       :     3.268166  s :     3.268166
      pz      :     1.480095  p :     3.827954
      px      :     1.158469
      py      :     1.189389
      dz2     :     0.001393  d :     0.016559
      dxz     :     0.004403
      dyz     :     0.002710
      dx2y2   :     0.003769
      dxy     :     0.004283
  4 C s       :     3.009246  s :     3.009246
      pz      :     1.064521  p :     3.130725
      px      :     1.021209
      py      :     1.044995
      dz2     :     0.006526  d :     0.024413
      dxz     :     0.004178
      dyz     :     0.002272
      dx2y2   :     0.006941
      dxy     :     0.004496
  5 H s       :     1.013720  s :     1.013720
      pz      :     0.007504  p :     0.030510
      px      :     0.009236
      py      :     0.013770
  6 H s       :     1.007627  s :     1.007627
      pz      :     0.014010  p :     0.030265
      px      :     0.006727
      py      :     0.009528
  7 H s       :     0.847787  s :     0.847787
      pz      :     0.013739  p :     0.045509
      px      :     0.021716
      py      :     0.010054
  8 H s       :     0.847199  s :     0.847199
      pz      :     0.015919  p :     0.046466
      px      :     0.021337
      py      :     0.009210
  9 H s       :     0.811813  s :     0.811813
      pz      :     0.016015  p :     0.045153
      px      :     0.010709
      py      :     0.018430
 10 H s       :     0.947837  s :     0.947837
      pz      :     0.009758  p :     0.024126
      px      :     0.008046
      py      :     0.006322
 11 H s       :     0.937326  s :     0.937326
      pz      :     0.007006  p :     0.023839
      px      :     0.012442
      py      :     0.004390
 12 H s       :     0.935485  s :     0.935485
      pz      :     0.011177  p :     0.023906
      px      :     0.005194
      py      :     0.007535


                     *******************************
                     * LOEWDIN POPULATION ANALYSIS *
                     *******************************

----------------------
LOEWDIN ATOMIC CHARGES
----------------------
   0 C :    0.042038
   1 N :   -0.037306
   2 C :    0.042654
   3 N :   -0.026786
   4 C :   -0.287435
   5 H :   -0.011168
   6 H :   -0.008805
   7 H :    0.064709
   8 H :    0.063545
   9 H :    0.088793
  10 H :    0.025918
  11 H :    0.020670
  12 H :    0.023172

-------------------------------
LOEWDIN REDUCED ORBITAL CHARGES
-------------------------------
  0 C s       :     2.806561  s :     2.806561
      pz      :     1.057621  p :     3.046681
      px      :     1.043751
      py      :     0.945309
      dz2     :     0.007977  d :     0.104720
      dxz     :     0.025108
      dyz     :     0.027067
      dx2y2   :     0.022988
      dxy     :     0.021580
  1 N s       :     3.015801  s :     3.015801
      pz      :     1.412505  p :     3.964328
      px      :     1.259325
      py      :     1.292498
      dz2     :     0.008228  d :     0.057177
      dxz     :     0.009745
      dyz     :     0.013253
      dx2y2   :     0.013141
      dxy     :     0.012810
  2 C s       :     2.798012  s :     2.798012
      pz      :     0.944316  p :     2.937342
      px      :     1.054990
      py      :     0.938037
      dz2     :     0.044921  d :     0.221991
      dxz     :     0.039302
      dyz     :     0.035951
      dx2y2   :     0.043130
      dxy     :     0.058687
  3 N s       :     3.011386  s :     3.011386
      pz      :     1.484498  p :     3.970520
      px      :     1.234864
      py      :     1.251158
      dz2     :     0.002815  d :     0.044880
      dxz     :     0.010399
      dyz     :     0.007310
      dx2y2   :     0.011636
      dxy     :     0.012720
  4 C s       :     2.829834  s :     2.829834
      pz      :     1.145629  p :     3.387893
      px      :     1.090647
      py      :     1.151617
      dz2     :     0.017031  d :     0.069708
      dxz     :     0.012032
      dyz     :     0.008225
      dx2y2   :     0.018955
      dxy     :     0.013466
  5 H s       :     0.919901  s :     0.919901
      pz      :     0.023169  p :     0.091267
      px      :     0.028234
      py      :     0.039864
  6 H s       :     0.919162  s :     0.919162
      pz      :     0.039695  p :     0.089643
      px      :     0.021925
      py      :     0.028023
  7 H s       :     0.808501  s :     0.808501
      pz      :     0.038554  p :     0.126790
      px      :     0.058690
      py      :     0.029546
  8 H s       :     0.810935  s :     0.810935
      pz      :     0.047564  p :     0.125520
      px      :     0.055900
      py      :     0.022056
  9 H s       :     0.787654  s :     0.787654
      pz      :     0.046180  p :     0.123553
      px      :     0.028270
      py      :     0.049104
 10 H s       :     0.906776  s :     0.906776
      pz      :     0.026330  p :     0.067305
      px      :     0.022676
      py      :     0.018300
 11 H s       :     0.910086  s :     0.910086
      pz      :     0.019717  p :     0.069244
      px      :     0.035887
      py      :     0.013640
 12 H s       :     0.907888  s :     0.907888
      pz      :     0.030986  p :     0.068940
      px      :     0.014589
      py      :     0.023365


                      *****************************
                      * MAYER POPULATION ANALYSIS *
                      *****************************

  NA   - Mulliken gross atomic population
  ZA   - Total nuclear charge
  QA   - Mulliken gross atomic charge
  VA   - Mayer's total valence
  BVA  - Mayer's bonded valence
  FA   - Mayer's free valence

  ATOM       NA         ZA         QA         VA         BVA        FA
  0 C      5.8744     6.0000     0.1256     3.9469     3.9469     0.0000
  1 N      7.2233     7.0000    -0.2233     3.1906     3.1906     0.0000
  2 C      6.0066     6.0000    -0.0066     4.3663     4.3663     0.0000
  3 N      7.1127     7.0000    -0.1127     3.1608     3.1608     0.0000
  4 C      6.1644     6.0000    -0.1644     3.7877     3.7877    -0.0000
  5 H      1.0442     1.0000    -0.0442     1.0029     1.0029     0.0000
  6 H      1.0379     1.0000    -0.0379     1.0022     1.0022     0.0000
  7 H      0.8933     1.0000     0.1067     1.0036     1.0036     0.0000
  8 H      0.8937     1.0000     0.1063     1.0122     1.0122     0.0000
  9 H      0.8570     1.0000     0.1430     0.9982     0.9982    -0.0000
 10 H      0.9720     1.0000     0.0280     0.9924     0.9924     0.0000
 11 H      0.9612     1.0000     0.0388     0.9933     0.9933     0.0000
 12 H      0.9594     1.0000     0.0406     0.9941     0.9941     0.0000

  Mayer bond orders larger than 0.100000
B(  0-C ,  1-N ) :   0.9871 B(  0-C , 10-H ) :   0.9781 B(  0-C , 11-H ) :   0.9724 
B(  0-C , 12-H ) :   0.9720 B(  1-N ,  2-C ) :   1.1992 B(  1-N ,  7-H ) :   0.9399 
B(  2-C ,  3-N ) :   1.2311 B(  2-C ,  4-C ) :   1.7236 B(  3-N ,  8-H ) :   0.9528 
B(  3-N ,  9-H ) :   0.9446 B(  4-C ,  5-H ) :   0.9502 B(  4-C ,  6-H ) :   0.9564 


-------
TIMINGS
-------

Total SCF time: 0 days 0 hours 0 min 4 sec 

Total time                  ....       4.595 sec
Sum of individual times     ....       4.435 sec  ( 96.5%)

Fock matrix formation       ....       3.691 sec  ( 80.3%)
  Split-RI-J                ....       0.362 sec  (  9.8% of F)
  Chain of spheres X        ....       2.794 sec  ( 75.7% of F)
  XC integration            ....       0.502 sec  ( 13.6% of F)
    Basis function eval.    ....       0.135 sec  ( 26.9% of XC)
    Density eval.           ....       0.067 sec  ( 13.3% of XC)
    XC-Functional eval.     ....       0.062 sec  ( 12.3% of XC)
    XC-Potential eval.      ....       0.062 sec  ( 12.4% of XC)
Diagonalization             ....       0.026 sec  (  0.6%)
Density matrix formation    ....       0.003 sec  (  0.1%)
Population analysis         ....       0.006 sec  (  0.1%)
Initial guess               ....       0.038 sec  (  0.8%)
Orbital Transformation      ....       0.000 sec  (  0.0%)
Orbital Orthonormalization  ....       0.000 sec  (  0.0%)
DIIS solution               ....       0.024 sec  (  0.5%)
SOSCF solution              ....       0.021 sec  (  0.5%)
Grid generation             ....       0.626 sec  ( 13.6%)

Maximum memory used throughout the entire SCF-calculation: 48.0 MB


-------------------------------------------------------------------------------
                          DFT DISPERSION CORRECTION                            
                                                                               
                              DFTD3 V3.1  Rev 1                                
                              USING zero damping                               
-------------------------------------------------------------------------------
The omegaB97X-D3 functional is recognized. Fit by Chai et al.
Active option DFTDOPT                   ...         3   

molecular C6(AA) [au] = 1312.123432 


            DFT-D V3
 parameters
 s6 scaling factor         :     1.0000 
 rs6 scaling factor        :     1.2810 
 s8 scaling factor         :     1.0000 
 rs8 scaling factor        :     1.0940 
 Damping factor alpha6     :    14.0000 
 Damping factor alpha8     :    16.0000 
 ad hoc parameters k1-k3   :    16.0000     1.3333    -4.0000 

 Edisp/kcal,au: -1.492229297345  -0.002378018500 
 E6   /kcal   :  -0.588154573 
 E8   /kcal   :  -0.904074724 
 % E8         :  60.585509585 

-------------------------   ----------------
Dispersion correction           -0.002378018
-------------------------   ----------------


-------------------------   --------------------
FINAL SINGLE POINT ENERGY      -228.355400777455
-------------------------   --------------------


                            ***************************************
                            *     ORCA property calculations      *
                            ***************************************

                                    ---------------------
                                    Active property flags
                                    ---------------------
   (+) Dipole Moment


------------------------------------------------------------------------------
                       ORCA ELECTRIC PROPERTIES CALCULATION
------------------------------------------------------------------------------

Dipole Moment Calculation                       ... on
Quadrupole Moment Calculation                   ... off
Polarizability Calculation                      ... off
GBWName                                         ... C3_pos.gbw
Electron density file                           ... C3_pos.scfp
The origin for moment calculation is the CENTER OF MASS  = ( 6.237449, -0.035607 -0.796600)

-------------
DIPOLE MOMENT
-------------
                                X             Y             Z
Electronic contribution:     -1.95028      -2.00247       0.35777
Nuclear contribution   :      0.80512       1.90624      -0.99336
                        -----------------------------------------
Total Dipole Moment    :     -1.14516      -0.09623      -0.63559
                        -----------------------------------------
Magnitude (a.u.)       :      1.31325
Magnitude (Debye)      :      3.33802



--------------------
Rotational spectrum 
--------------------
 
Rotational constants in cm-1:     0.332728     0.136065     0.098521 
Rotational constants in MHz :  9974.927067  4079.126590  2953.598000 

 Dipole components along the rotational axes: 
x,y,z [a.u.] :     0.153885    -1.302955    -0.057056 
x,y,z [Debye]:     0.391145    -3.311849    -0.145024 

 

Timings for individual modules:

Sum of individual times         ...        5.524 sec (=   0.092 min)
GTO integral calculation        ...        0.562 sec (=   0.009 min)  10.2 %
SCF iterations                  ...        4.961 sec (=   0.083 min)  89.8 %
                             ****ORCA TERMINATED NORMALLY****
TOTAL RUN TIME: 0 days 0 hours 0 minutes 6 seconds 91 msec
