
                                        *****************
                                        * O   R   C   A *
                                        *****************

                                            #,                                       
                                            ###                                      
                                            ####                                     
                                            #####                                    
                                            ######                                   
                                           ########,                                 
                                     ,,################,,,,,                         
                               ,,#################################,,                 
                          ,,##########################################,,             
                       ,#########################################, ''#####,          
                    ,#############################################,,   '####,        
                  ,##################################################,,,,####,       
                ,###########''''           ''''###############################       
              ,#####''   ,,,,##########,,,,          '''####'''          '####       
            ,##' ,,,,###########################,,,                        '##       
           ' ,,###''''                  '''############,,,                           
         ,,##''                                '''############,,,,        ,,,,,,###''
      ,#''                                            '''#######################'''  
     '                                                          ''''####''''         
             ,#######,   #######,   ,#######,      ##                                
            ,#'     '#,  ##    ##  ,#'     '#,    #''#        ######   ,####,        
            ##       ##  ##   ,#'  ##            #'  '#       #        #'  '#        
            ##       ##  #######   ##           ,######,      #####,   #    #        
            '#,     ,#'  ##    ##  '#,     ,#' ,#      #,         ##   #,  ,#        
             '#######'   ##     ##  '#######'  #'      '#     #####' # '####'        



                  #######################################################
                  #                        -***-                        #
                  #          Department of theory and spectroscopy      #
                  #    Directorship and core code : Frank Neese         #
                  #        Max Planck Institute fuer Kohlenforschung    #
                  #                Kaiser Wilhelm Platz 1               #
                  #                 D-45470 Muelheim/Ruhr               #
                  #                      Germany                        #
                  #                                                     #
                  #                  All rights reserved                #
                  #                        -***-                        #
                  #######################################################


                         Program Version 5.0.0 -  RELEASE  -
                                (SVN: $Rev: 19529$)
                ($Date: 2021-06-28 11:36:33 +0200 (Mo, 28 Jun 2021) $)


 With contributions from (in alphabetic order):
   Daniel Aravena         : Magnetic Suceptibility
   Michael Atanasov       : Ab Initio Ligand Field Theory (pilot matlab implementation)
   Alexander A. Auer      : GIAO ZORA, VPT2 properties, NMR spectrum
   Ute Becker             : Parallelization
   Giovanni Bistoni       : ED, misc. LED, open-shell LED, HFLD
   Martin Brehm           : Molecular dynamics
   Dmytro Bykov           : SCF Hessian
   Vijay G. Chilkuri      : MRCI spin determinant printing, contributions to CSF-ICE
   Dipayan Datta          : RHF DLPNO-CCSD density
   Achintya Kumar Dutta   : EOM-CC, STEOM-CC
   Dmitry Ganyushin       : Spin-Orbit,Spin-Spin,Magnetic field MRCI
   Miquel Garcia          : C-PCM Hessian, Gaussian charge scheme
   Yang Guo               : DLPNO-NEVPT2, F12-NEVPT2, CIM, IAO-localization
   Andreas Hansen         : Spin unrestricted coupled pair/coupled cluster methods
   Benjamin Helmich-Paris : MC-RPA, TRAH-SCF, COSX integrals
   Lee Huntington         : MR-EOM, pCC
   Robert Izsak           : Overlap fitted RIJCOSX, COSX-SCS-MP3, EOM
   Marcus Kettner         : VPT2
   Christian Kollmar      : KDIIS, OOCD, Brueckner-CCSD(T), CCSD density, CASPT2, CASPT2-K
   Simone Kossmann        : Meta GGA functionals, TD-DFT gradient, OOMP2, MP2 Hessian
   Martin Krupicka        : Initial AUTO-CI
   Lucas Lang             : DCDCAS
   Marvin Lechner         : AUTO-CI (C++ implementation), FIC-MRCC
   Dagmar Lenk            : GEPOL surface, SMD
   Dimitrios Liakos       : Extrapolation schemes; Compound Job, initial MDCI parallelization
   Dimitrios Manganas     : Further ROCIS development; embedding schemes
   Dimitrios Pantazis     : SARC Basis sets
   Anastasios Papadopoulos: AUTO-CI, single reference methods and gradients
   Taras Petrenko         : DFT Hessian,TD-DFT gradient, ASA, ECA, R-Raman, ABS, FL, XAS/XES, NRVS
   Peter Pinski           : DLPNO-MP2, DLPNO-MP2 Gradient
   Christoph Reimann      : Effective Core Potentials
   Marius Retegan         : Local ZFS, SOC
   Christoph Riplinger    : Optimizer, TS searches, QM/MM, DLPNO-CCSD(T), (RO)-DLPNO pert. Triples
   Tobias Risthaus        : Range-separated hybrids, TD-DFT gradient, RPA, STAB
   Michael Roemelt        : Original ROCIS implementation
   Masaaki Saitow         : Open-shell DLPNO-CCSD energy and density
   Barbara Sandhoefer     : DKH picture change effects
   Avijit Sen             : IP-ROCIS
   Kantharuban Sivalingam : CASSCF convergence, NEVPT2, FIC-MRCI
   Bernardo de Souza      : ESD, SOC TD-DFT
   Georgi Stoychev        : AutoAux, RI-MP2 NMR
   Willem Van den Heuvel  : Paramagnetic NMR
   Boris Wezisla          : Elementary symmetry handling
   Frank Wennmohs         : Technical directorship


 We gratefully acknowledge several colleagues who have allowed us to
 interface, adapt or use parts of their codes:
   Stefan Grimme, W. Hujo, H. Kruse, P. Pracht,  : VdW corrections, initial TS optimization,
                  C. Bannwarth, S. Ehlert          DFT functionals, gCP, sTDA/sTD-DF
   Ed Valeev, F. Pavosevic, A. Kumar             : LibInt (2-el integral package), F12 methods
   Garnet Chan, S. Sharma, J. Yang, R. Olivares  : DMRG
   Ulf Ekstrom                                   : XCFun DFT Library
   Mihaly Kallay                                 : mrcc  (arbitrary order and MRCC methods)
   Jiri Pittner, Ondrej Demel                    : Mk-CCSD
   Frank Weinhold                                : gennbo (NPA and NBO analysis)
   Christopher J. Cramer and Donald G. Truhlar   : smd solvation model
   Lars Goerigk                                  : TD-DFT with DH, B97 family of functionals
   V. Asgeirsson, H. Jonsson                     : NEB implementation
   FAccTs GmbH                                   : IRC, NEB, NEB-TS, DLPNO-Multilevel, CI-OPT
                                                   MM, QMMM, 2- and 3-layer-ONIOM, Crystal-QMMM,
                                                   LR-CPCM, SF, NACMEs, symmetry and pop. for TD-DFT,
                                                   nearIR, NL-DFT gradient (VV10), updates on ESD,
                                                   ML-optimized integration grids
   S Lehtola, MJT Oliveira, MAL Marques          : LibXC Library
   Liviu Ungur et al                             : ANISO software


 Your calculation uses the libint2 library for the computation of 2-el integrals
 For citations please refer to: http://libint.valeyev.net

 Your ORCA version has been built with support for libXC version: 5.1.0
 For citations please refer to: https://tddft.org/programs/libxc/

 This ORCA versions uses:
   CBLAS   interface :  Fast vector & matrix operations
   LAPACKE interface :  Fast linear algebra routines
   SCALAPACK package :  Parallel linear algebra routines
   Shared memory     :  Shared parallel matrices
   BLAS/LAPACK       :  OpenBLAS 0.3.15  USE64BITINT DYNAMIC_ARCH NO_AFFINITY Haswell SINGLE_THREADED
        Core in use  :  Haswell
   Copyright (c) 2011-2014, The OpenBLAS Project


Your calculation utilizes the atom-pairwise dispersion correction
with the Becke-Johnson damping scheme (D3BJ)
Cite in your paper:
S.Grimme, S.Ehrlich, L.Goerigk, J Comput Chem, (2011), 32, 1456–1465 
S.Grimme, J.Antony, S.Ehrlich and H.Krieg, J.Chem.Phys., 132, (2010), 154104 
   

================================================================================

----- Orbital basis set information -----
Your calculation utilizes the basis: def2-SVPD
   F. Weigend and R. Ahlrichs, Phys. Chem. Chem. Phys. 7, 3297 (2005).
   D. Rappoport and F. Furche, J. Chem. Phys. 133 134105 (2010).

----- AuxJ basis set information -----
Your calculation utilizes the auxiliary basis: def2/J
   F. Weigend, Phys. Chem. Chem. Phys. 8, 1057 (2006).

================================================================================
                                        WARNINGS
                       Please study these warnings very carefully!
================================================================================


INFO   : the flag for use of the SHARK integral package has been found!

================================================================================
                                       INPUT FILE
================================================================================
NAME = SVPD_B3LYP_A_wt_dlpno_neg.com
|  1> !B3LYP D3BJ RIJCOSX def2-SVPD def2/J TightSCF
|  2> *xyz -1 1 
|  3> C          4.90646       -3.10282       -5.95484
|  4> C          3.51177       -2.80621       -6.49228
|  5> H          2.73604       -3.37345       -5.97374
|  6> H          3.44490       -3.04083       -7.55528
|  7> S          3.00462       -1.09621       -6.38926
|  8> O          4.12886       -0.32965       -6.95372
|  9> O          1.78128       -1.00078       -7.13640
| 10> O          2.85155       -0.78368       -4.95679
| 11> H          5.62703       -2.52424       -6.49422
| 12> H          5.12164       -4.14387       -6.07654
| 13> H          4.95004       -2.84862       -4.91639
| 14> *
| 15> 
| 16> %MaxCore 64000
| 17> 
| 18> %pal nprocs 4
| 19> end  
| 20> 
| 21> %scf
| 22>   MaxIter 150
| 23> end
| 24> 
| 25> 
| 26>                          ****END OF INPUT****
================================================================================

                       ****************************
                       * Single Point Calculation *
                       ****************************

---------------------------------
CARTESIAN COORDINATES (ANGSTROEM)
---------------------------------
  C      4.906460   -3.102820   -5.954840
  C      3.511770   -2.806210   -6.492280
  H      2.736040   -3.373450   -5.973740
  H      3.444900   -3.040830   -7.555280
  S      3.004620   -1.096210   -6.389260
  O      4.128860   -0.329650   -6.953720
  O      1.781280   -1.000780   -7.136400
  O      2.851550   -0.783680   -4.956790
  H      5.627030   -2.524240   -6.494220
  H      5.121640   -4.143870   -6.076540
  H      4.950040   -2.848620   -4.916390

----------------------------
CARTESIAN COORDINATES (A.U.)
----------------------------
  NO LB      ZA    FRAG     MASS         X           Y           Z
   0 C     6.0000    0    12.011    9.271866   -5.863480  -11.253017
   1 C     6.0000    0    12.011    6.636284   -5.302968  -12.268631
   2 H     1.0000    0     1.008    5.170366   -6.374897  -11.288733
   3 H     1.0000    0     1.008    6.509918   -5.746336  -14.277410
   4 S    16.0000    0    32.060    5.677909   -2.071537  -12.073952
   5 O     8.0000    0    15.999    7.802415   -0.622948  -13.140626
   6 O     8.0000    0    15.999    3.366131   -1.891200  -13.485842
   7 O     8.0000    0    15.999    5.388649   -1.480941   -9.366976
   8 H     1.0000    0     1.008   10.633546   -4.770122  -12.272297
   9 H     1.0000    0     1.008    9.678497   -7.830779  -11.482996
  10 H     1.0000    0     1.008    9.354220   -5.383112   -9.290631

--------------------------------
INTERNAL COORDINATES (ANGSTROEM)
--------------------------------
 C      0   0   0     0.000000000000     0.00000000     0.00000000
 C      1   0   0     1.523804266236     0.00000000     0.00000000
 H      2   1   0     1.091971603156   112.43304848     0.00000000
 H      2   1   3     1.090636117731   110.97760763   239.02835081
 S      2   1   3     1.786592914712   115.20009066   120.99053177
 O      5   2   1     1.473141168660   105.02979337    49.07237270
 O      5   2   1     1.436623061245   105.98059332   170.73836034
 O      5   2   1     1.474135586267   106.76390466   292.33415873
 H      1   2   3     1.070003142846   109.47058655   179.99921990
 H      1   2   3     1.069999263972   109.47118233    59.99951992
 H      1   2   3     1.069997784530   109.47113987   299.99930354

---------------------------
INTERNAL COORDINATES (A.U.)
---------------------------
 C      0   0   0     0.000000000000     0.00000000     0.00000000
 C      1   0   0     2.879572744887     0.00000000     0.00000000
 H      2   1   0     2.063527275985   112.43304848     0.00000000
 H      2   1   3     2.061003574275   110.97760763   239.02835081
 S      2   1   3     3.376171321610   115.20009066   120.99053177
 O      5   2   1     2.783833365371   105.02979337    49.07237270
 O      5   2   1     2.714824143428   105.98059332   170.73836034
 O      5   2   1     2.785712542313   106.76390466   292.33415873
 H      1   2   3     2.022012902414   109.47058655   179.99921990
 H      1   2   3     2.022005572404   109.47118233    59.99951992
 H      1   2   3     2.022002776665   109.47113987   299.99930354

---------------------
BASIS SET INFORMATION
---------------------
There are 4 groups of distinct atoms

 Group   1 Type C   : 8s4p2d contracted to 4s2p2d pattern {5111/31/11}
 Group   2 Type H   : 4s2p contracted to 2s2p pattern {31/11}
 Group   3 Type S   : 11s8p2d contracted to 5s4p2d pattern {53111/5111/11}
 Group   4 Type O   : 8s5p2d contracted to 4s3p2d pattern {5111/311/11}

Atom   0C    basis set group =>   1
Atom   1C    basis set group =>   1
Atom   2H    basis set group =>   2
Atom   3H    basis set group =>   2
Atom   4S    basis set group =>   3
Atom   5O    basis set group =>   4
Atom   6O    basis set group =>   4
Atom   7O    basis set group =>   4
Atom   8H    basis set group =>   2
Atom   9H    basis set group =>   2
Atom  10H    basis set group =>   2
---------------------------------
AUXILIARY/J BASIS SET INFORMATION
---------------------------------
There are 4 groups of distinct atoms

 Group   1 Type C   : 12s5p4d2f1g contracted to 6s4p3d1f1g pattern {711111/2111/211/2/1}
 Group   2 Type H   : 5s2p1d contracted to 3s1p1d pattern {311/2/1}
 Group   3 Type S   : 14s5p5d2f1g contracted to 8s4p3d1f1g pattern {71111111/2111/311/2/1}
 Group   4 Type O   : 12s5p4d2f1g contracted to 6s4p3d1f1g pattern {711111/2111/211/2/1}

Atom   0C    basis set group =>   1
Atom   1C    basis set group =>   1
Atom   2H    basis set group =>   2
Atom   3H    basis set group =>   2
Atom   4S    basis set group =>   3
Atom   5O    basis set group =>   4
Atom   6O    basis set group =>   4
Atom   7O    basis set group =>   4
Atom   8H    basis set group =>   2
Atom   9H    basis set group =>   2
Atom  10H    basis set group =>   2


           ************************************************************
           *        Program running with 4 parallel MPI-processes     *
           *              working on a common directory               *
           ************************************************************
------------------------------------------------------------------------------
                           ORCA GTO INTEGRAL CALCULATION
                           -- RI-GTO INTEGRALS CHOSEN --
------------------------------------------------------------------------------
------------------------------------------------------------------------------
                   ___                                                        
                  /   \      - P O W E R E D   B Y -                         
                 /     \                                                     
                 |  |  |   _    _      __       _____    __    __             
                 |  |  |  | |  | |    /  \     |  _  \  |  |  /  |          
                  \  \/   | |  | |   /    \    | | | |  |  | /  /          
                 / \  \   | |__| |  /  /\  \   | |_| |  |  |/  /          
                |  |  |   |  __  | /  /__\  \  |    /   |      \           
                |  |  |   | |  | | |   __   |  |    \   |  |\   \          
                \     /   | |  | | |  |  |  |  | |\  \  |  | \   \       
                 \___/    |_|  |_| |__|  |__|  |_| \__\ |__|  \__/        
                                                                              
                      - O R C A' S   B I G   F R I E N D -                    
                                      &                                       
                       - I N T E G R A L  F E E D E R -                       
                                                                              
 v1 FN, 2020, v2 2021                                                         
------------------------------------------------------------------------------


Reading SHARK input file SVPD_B3LYP_A_wt_dlpno_neg.SHARKINP.tmp ... ok
----------------------
SHARK INTEGRAL PACKAGE
----------------------

Number of atoms                             ...     11
Number of basis functions                   ...    176
Number of shells                            ...     74
Maximum angular momentum                    ...      2
Integral batch strategy                     ... SHARK/LIBINT Hybrid
RI-J (if used) integral strategy            ... SPLIT-RIJ (Revised 2003 algorithm where possible)
Printlevel                                  ...      1
Contraction scheme used                     ... SEGMENTED contraction
Coulomb Range Separation                    ... NOT USED
Exchange Range Separation                   ... NOT USED
Finite Nucleus Model                        ... NOT USED
Auxiliary Coulomb fitting basis             ... AVAILABLE
   # of basis functions in Aux-J            ...    351
   # of shells in Aux-J                     ...    117
   Maximum angular momentum in Aux-J        ...      4
Auxiliary J/K fitting basis                 ... NOT available
Auxiliary Correlation fitting basis         ... NOT available
Auxiliary 'external' fitting basis          ... NOT available
Integral threshold                          ...     2.500000e-11
Primitive cut-off                           ...     2.500000e-12
Primitive pair pre-selection threshold      ...     2.500000e-12

Calculating pre-screening integrals         ... done (  0.0 sec) Dimension = 74
Organizing shell pair data                  ... done (  0.0 sec)
Shell pair information
Total number of shell pairs                 ...      2775
Shell pairs after pre-screening             ...      2732
Total number of primitive shell pairs       ...      7853
Primitive shell pairs kept                  ...      6405
          la=0 lb=0:    610 shell pairs
          la=1 lb=0:    929 shell pairs
          la=1 lb=1:    376 shell pairs
          la=2 lb=0:    416 shell pairs
          la=2 lb=1:    323 shell pairs
          la=2 lb=2:     78 shell pairs

Calculating one electron integrals          ... done (  0.0 sec)
Calculating RI/J V-Matrix + Cholesky decomp.... done (  0.0 sec)
Calculating Nuclear repulsion               ... done (  0.0 sec) ENN=    350.447826763946 Eh

SHARK setup successfully completed in   0.2 seconds

Maximum memory used throughout the entire GTOINT-calculation: 8.9 MB


           ************************************************************
           *        Program running with 4 parallel MPI-processes     *
           *              working on a common directory               *
           ************************************************************
-------------------------------------------------------------------------------
                                 ORCA SCF
-------------------------------------------------------------------------------

------------
SCF SETTINGS
------------
Hamiltonian:
 Density Functional     Method          .... DFT(GTOs)
 Exchange Functional    Exchange        .... B88
   X-Alpha parameter    XAlpha          ....  0.666667
   Becke's b parameter  XBeta           ....  0.004200
 Correlation Functional Correlation     .... LYP
 LDA part of GGA corr.  LDAOpt          .... VWN-5
 Gradients option       PostSCFGGA      .... off
 Hybrid DFT is turned on
   Fraction HF Exchange ScalHFX         ....  0.200000
   Scaling of DF-GGA-X  ScalDFX         ....  0.720000
   Scaling of DF-GGA-C  ScalDFC         ....  0.810000
   Scaling of DF-LDA-C  ScalLDAC        ....  1.000000
   Perturbative correction              ....  0.000000
   Density functional embedding theory  .... OFF
   NL short-range parameter             ....  4.800000
 RI-approximation to the Coulomb term is turned on
   Number of AuxJ basis functions       .... 351
   RIJ-COSX (HFX calculated with COS-X)).... on


General Settings:
 Integral files         IntName         .... SVPD_B3LYP_A_wt_dlpno_neg
 Hartree-Fock type      HFTyp           .... RHF
 Total Charge           Charge          ....   -1
 Multiplicity           Mult            ....    1
 Number of Electrons    NEL             ....   58
 Basis Dimension        Dim             ....  176
 Nuclear Repulsion      ENuc            ....    350.4478267639 Eh

Convergence Acceleration:
 DIIS                   CNVDIIS         .... on
   Start iteration      DIISMaxIt       ....    12
   Startup error        DIISStart       ....  0.200000
   # of expansion vecs  DIISMaxEq       ....     5
   Bias factor          DIISBfac        ....   1.050
   Max. coefficient     DIISMaxC        ....  10.000
 Trust-Rad. Augm. Hess. CNVTRAH         .... auto
   Auto Start mean grad. ratio tolernc. ....  1.125000
   Auto Start start iteration           ....    20
   Auto Start num. interpolation iter.  ....    10
   Max. Number of Micro iterations      ....    16
   Max. Number of Macro iterations      .... Maxiter - #DIIS iter
   Number of Davidson start vectors     ....     2
   Converg. threshold I  (grad. norm)   ....   1.000e-05
   Converg. threshold II (energy diff.) ....   1.000e-08
   Grad. Scal. Fac. for Micro threshold ....   0.100
   Minimum threshold for Micro iter.    ....   0.010
   NR start threshold (gradient norm)   ....   0.001
   Initial trust radius                 ....   0.400
   Minimum AH scaling param. (alpha)    ....   1.000
   Maximum AH scaling param. (alpha)    .... 1000.000
   Orbital update algorithm             .... Taylor
   White noise on init. David. guess    .... on
   Maximum white noise                  ....   0.010
   Quad. conv. algorithm                .... NR
 SOSCF                  CNVSOSCF        .... on
   Start iteration      SOSCFMaxIt      ....   150
   Startup grad/error   SOSCFStart      ....  0.003300
 Level Shifting         CNVShift        .... on
   Level shift para.    LevelShift      ....    0.2500
   Turn off err/grad.   ShiftErr        ....    0.0010
 Zerner damping         CNVZerner       .... off
 Static damping         CNVDamp         .... on
   Fraction old density DampFac         ....    0.7000
   Max. Damping (<1)    DampMax         ....    0.9800
   Min. Damping (>=0)   DampMin         ....    0.0000
   Turn off err/grad.   DampErr         ....    0.1000
 Fernandez-Rico         CNVRico         .... off

SCF Procedure:
 Maximum # iterations   MaxIter         ....   150
 SCF integral mode      SCFMode         .... Direct
   Integral package                     .... SHARK and LIBINT hybrid scheme
 Reset frequency        DirectResetFreq ....    20
 Integral Threshold     Thresh          ....  2.500e-11 Eh
 Primitive CutOff       TCut            ....  2.500e-12 Eh

Convergence Tolerance:
 Convergence Check Mode ConvCheckMode   .... Total+1el-Energy
 Convergence forced     ConvForced      .... 0
 Energy Change          TolE            ....  1.000e-08 Eh
 1-El. energy change                    ....  1.000e-05 Eh
 Orbital Gradient       TolG            ....  1.000e-05
 Orbital Rotation angle TolX            ....  1.000e-05
 DIIS Error             TolErr          ....  5.000e-07


Diagonalization of the overlap matrix:
Smallest eigenvalue                        ... 2.343e-04
Time for diagonalization                   ...    0.009 sec
Threshold for overlap eigenvalues          ... 1.000e-08
Number of eigenvalues below threshold      ... 0
Time for construction of square roots      ...    0.005 sec
Total time needed                          ...    0.014 sec

Time for model grid setup =    0.077 sec

------------------------------
INITIAL GUESS: MODEL POTENTIAL
------------------------------
Loading Hartree-Fock densities                     ... done
Calculating cut-offs                               ... done
Initializing the effective Hamiltonian             ... done
Setting up the integral package (SHARK)            ... done
Starting the Coulomb interaction                   ... done (   0.0 sec)
Reading the grid                                   ... done
Mapping shells                                     ... done
Starting the XC term evaluation                    ... done (   0.1 sec)
  promolecular density results
     # of electrons  =     56.997393846
     EX              =    -61.492644188
     EC              =     -2.100072034
     EX+EC           =    -63.592716222
Transforming the Hamiltonian                       ... done (   0.0 sec)
Diagonalizing the Hamiltonian                      ... done (   0.0 sec)
Back transforming the eigenvectors                 ... done (   0.0 sec)
Now organizing SCF variables                       ... done
                      ------------------
                      INITIAL GUESS DONE (   0.2 sec)
                      ------------------
-------------------
DFT GRID GENERATION
-------------------

General Integration Accuracy     IntAcc      ... 4.388
Radial Grid Type                 RadialGrid  ... OptM3 with GC (2021)
Angular Grid (max. ang.)         AngularGrid ... 4 (Lebedev-302)
Angular grid pruning method      GridPruning ... 4 (adaptive)
Weight generation scheme         WeightScheme... Becke
Basis function cutoff            BFCut       ... 1.0000e-11
Integration weight cutoff        WCut        ... 1.0000e-14
Angular grids for H and He will be reduced by one unit
Partially contracted basis set               ... off
Rotationally invariant grid construction     ... off

Total number of grid points                  ...    55999
Total number of batches                      ...      881
Average number of points per batch           ...       63
Average number of grid points per atom       ...     5091
Time for grid setup =    0.358 sec

--------------------
COSX GRID GENERATION
--------------------

GRIDX 1
-------
General Integration Accuracy     IntAcc      ... 3.816
Radial Grid Type                 RadialGrid  ... OptM3 with GC (2021)
Angular Grid (max. ang.)         AngularGrid ... 1 (Lebedev-50)
Angular grid pruning method      GridPruning ... 4 (adaptive)
Weight generation scheme         WeightScheme... Becke
Basis function cutoff            BFCut       ... 1.0000e-11
Integration weight cutoff        WCut        ... 1.0000e-14
Angular grids for H and He will be reduced by one unit
Partially contracted basis set               ... on
Rotationally invariant grid construction     ... off

Total number of grid points                  ...     6952
Total number of batches                      ...      116
Average number of points per batch           ...       59
Average number of grid points per atom       ...      632
UseSFitting                                  ... on

GRIDX 2
-------
General Integration Accuracy     IntAcc      ... 4.020
Radial Grid Type                 RadialGrid  ... OptM3 with GC (2021)
Angular Grid (max. ang.)         AngularGrid ... 2 (Lebedev-110)
Angular grid pruning method      GridPruning ... 4 (adaptive)
Weight generation scheme         WeightScheme... Becke
Basis function cutoff            BFCut       ... 1.0000e-11
Integration weight cutoff        WCut        ... 1.0000e-14
Angular grids for H and He will be reduced by one unit
Partially contracted basis set               ... on
Rotationally invariant grid construction     ... off

Total number of grid points                  ...    16696
Total number of batches                      ...      268
Average number of points per batch           ...       62
Average number of grid points per atom       ...     1518
UseSFitting                                  ... on

GRIDX 3
-------
General Integration Accuracy     IntAcc      ... 4.338
Radial Grid Type                 RadialGrid  ... OptM3 with GC (2021)
Angular Grid (max. ang.)         AngularGrid ... 3 (Lebedev-194)
Angular grid pruning method      GridPruning ... 4 (adaptive)
Weight generation scheme         WeightScheme... Becke
Basis function cutoff            BFCut       ... 1.0000e-11
Integration weight cutoff        WCut        ... 1.0000e-14
Angular grids for H and He will be reduced by one unit
Partially contracted basis set               ... on
Rotationally invariant grid construction     ... off

Total number of grid points                  ...    38010
Total number of batches                      ...      599
Average number of points per batch           ...       63
Average number of grid points per atom       ...     3455
UseSFitting                                  ... on

Time for X-Grid setup             =    0.328 sec

--------------
SCF ITERATIONS
--------------
ITER       Energy         Delta-E        Max-DP      RMS-DP      [F,P]     Damp
               ***  Starting incremental Fock matrix formation  ***
  0   -702.1554620805   0.000000000000 0.17235481  0.00374504  0.3061527 0.7000
  1   -702.3618380989  -0.206376018406 0.08590294  0.00212350  0.1196868 0.7000
                               ***Turning on DIIS***
  2   -702.4293812959  -0.067543197052 0.15177005  0.00297408  0.0393407 0.0000
  3   -702.5482417119  -0.118860416004 0.05155524  0.00135352  0.0689739 0.0000
  4   -702.5714357284  -0.023194016448 0.01512380  0.00039412  0.0176510 0.0000
  5   -702.5728429499  -0.001407221550 0.00236897  0.00012963  0.0033547 0.0000
                      *** Initiating the SOSCF procedure ***
                           *** Shutting down DIIS ***
                      *** Re-Reading the Fockian *** 
                      *** Removing any level shift *** 
ITER      Energy       Delta-E        Grad      Rot      Max-DP    RMS-DP
  6   -702.57292208  -0.0000791305  0.000304  0.000304  0.003550  0.000109
               *** Restarting incremental Fock matrix formation ***
  7   -702.57301173  -0.0000896524  0.000227  0.000421  0.001443  0.000045
  8   -702.57300660   0.0000051311  0.000473  0.000293  0.000974  0.000021
  9   -702.57301349  -0.0000068907  0.000019  0.000032  0.000272  0.000004
 10   -702.57301348   0.0000000109  0.000026  0.000019  0.000157  0.000002
 11   -702.57301352  -0.0000000351  0.000003  0.000004  0.000010  0.000000
 12   -702.57301352  -0.0000000008  0.000005  0.000002  0.000007  0.000000
                  ***Gradient check signals convergence***
              ***Rediagonalizing the Fockian in SOSCF/NRSCF***

               *****************************************************
               *                     SUCCESS                       *
               *           SCF CONVERGED AFTER  13 CYCLES          *
               *****************************************************

Old exchange energy                            =    -12.430830589 Eh
New exchange energy                            =    -12.430834312 Eh
Exchange energy change after final integration =     -0.000003723 Eh
Total energy after final integration           =   -702.573017239 Eh
Final COS-X integration done in                =     1.813 sec

----------------
TOTAL SCF ENERGY
----------------

Total Energy       :         -702.57301724 Eh          -19117.98374 eV

Components:
Nuclear Repulsion  :          350.44782676 Eh            9536.17018 eV
Electronic Energy  :        -1053.02084400 Eh          -28654.15391 eV
One Electron Energy:        -1673.06223752 Eh          -45526.33800 eV
Two Electron Energy:          620.04139351 Eh           16872.18408 eV
Max COSX asymmetry :            0.00000429 Eh               0.00012 eV

Virial components:
Potential Energy   :        -1401.74080321 Eh          -38143.30642 eV
Kinetic Energy     :          699.16778597 Eh           19025.32268 eV
Virial Ratio       :            2.00487041


DFT components:
N(Alpha)           :       29.000232359947 electrons
N(Beta)            :       29.000232359947 electrons
N(Total)           :       58.000464719895 electrons
E(X)               :      -49.435521352272 Eh       
E(C)               :       -2.499635343520 Eh       
E(XC)              :      -51.935156695792 Eh       
DFET-embed. en.    :        0.000000000000 Eh       

---------------
SCF CONVERGENCE
---------------

  Last Energy change         ...    1.4621e-09  Tolerance :   1.0000e-08
  Last MAX-Density change    ...    2.6645e-15  Tolerance :   1.0000e-07
  Last RMS-Density change    ...    4.6597e-17  Tolerance :   5.0000e-09
  Last Orbital Gradient      ...    3.4411e-07  Tolerance :   1.0000e-05
  Last Orbital Rotation      ...    3.7756e-07  Tolerance :   1.0000e-05

             **** THE GBW FILE WAS UPDATED (SVPD_B3LYP_A_wt_dlpno_neg.gbw) ****
             **** DENSITY SVPD_B3LYP_A_wt_dlpno_neg.scfp WAS UPDATED ****
             **** ENERGY FILE WAS UPDATED (SVPD_B3LYP_A_wt_dlpno_neg.en.tmp) ****
             **** THE GBW FILE WAS UPDATED (SVPD_B3LYP_A_wt_dlpno_neg.gbw) ****
             **** DENSITY SVPD_B3LYP_A_wt_dlpno_neg.scfp WAS UPDATED ****
----------------
ORBITAL ENERGIES
----------------

  NO   OCC          E(Eh)            E(eV) 
   0   2.0000     -88.879928     -2418.5458 
   1   2.0000     -18.922382      -514.9042 
   2   2.0000     -18.910868      -514.5909 
   3   2.0000     -18.910539      -514.5819 
   4   2.0000     -10.049280      -273.4548 
   5   2.0000     -10.042595      -273.2729 
   6   2.0000      -7.933851      -215.8911 
   7   2.0000      -5.902794      -160.6232 
   8   2.0000      -5.902694      -160.6205 
   9   2.0000      -5.902051      -160.6030 
  10   2.0000      -0.928607       -25.2687 
  11   2.0000      -0.787852       -21.4385 
  12   2.0000      -0.766979       -20.8705 
  13   2.0000      -0.631265       -17.1776 
  14   2.0000      -0.508585       -13.8393 
  15   2.0000      -0.381662       -10.3855 
  16   2.0000      -0.322463        -8.7747 
  17   2.0000      -0.316055        -8.6003 
  18   2.0000      -0.279550        -7.6070 
  19   2.0000      -0.264223        -7.1899 
  20   2.0000      -0.257687        -7.0120 
  21   2.0000      -0.234315        -6.3760 
  22   2.0000      -0.218153        -5.9363 
  23   2.0000      -0.150853        -4.1049 
  24   2.0000      -0.150341        -4.0910 
  25   2.0000      -0.115811        -3.1514 
  26   2.0000      -0.107746        -2.9319 
  27   2.0000      -0.102520        -2.7897 
  28   2.0000      -0.064501        -1.7552 
  29   0.0000       0.140403         3.8206 
  30   0.0000       0.167931         4.5696 
  31   0.0000       0.178059         4.8452 
  32   0.0000       0.184777         5.0280 
  33   0.0000       0.205454         5.5907 
  34   0.0000       0.215120         5.8537 
  35   0.0000       0.227003         6.1771 
  36   0.0000       0.246853         6.7172 
  37   0.0000       0.249532         6.7901 
  38   0.0000       0.259465         7.0604 
  39   0.0000       0.277645         7.5551 
  40   0.0000       0.282545         7.6884 
  41   0.0000       0.285888         7.7794 
  42   0.0000       0.303198         8.2504 
  43   0.0000       0.314507         8.5582 
  44   0.0000       0.316894         8.6231 
  45   0.0000       0.323327         8.7982 
  46   0.0000       0.331764         9.0278 
  47   0.0000       0.342138         9.3101 
  48   0.0000       0.346712         9.4345 
  49   0.0000       0.361839         9.8461 
  50   0.0000       0.372739        10.1427 
  51   0.0000       0.377686        10.2774 
  52   0.0000       0.381993        10.3946 
  53   0.0000       0.387288        10.5386 
  54   0.0000       0.401692        10.9306 
  55   0.0000       0.404224        10.9995 
  56   0.0000       0.429494        11.6871 
  57   0.0000       0.434440        11.8217 
  58   0.0000       0.450159        12.2494 
  59   0.0000       0.459882        12.5140 
  60   0.0000       0.471212        12.8223 
  61   0.0000       0.486858        13.2481 
  62   0.0000       0.495751        13.4901 
  63   0.0000       0.501789        13.6544 
  64   0.0000       0.508978        13.8500 
  65   0.0000       0.515425        14.0254 
  66   0.0000       0.516661        14.0591 
  67   0.0000       0.523466        14.2442 
  68   0.0000       0.530548        14.4370 
  69   0.0000       0.537509        14.6264 
  70   0.0000       0.559268        15.2184 
  71   0.0000       0.571726        15.5575 
  72   0.0000       0.573519        15.6062 
  73   0.0000       0.602366        16.3912 
  74   0.0000       0.605855        16.4862 
  75   0.0000       0.620379        16.8814 
  76   0.0000       0.631023        17.1710 
  77   0.0000       0.642100        17.4724 
  78   0.0000       0.648519        17.6471 
  79   0.0000       0.652314        17.7504 
  80   0.0000       0.660623        17.9765 
  81   0.0000       0.665505        18.1093 
  82   0.0000       0.675205        18.3733 
  83   0.0000       0.680019        18.5042 
  84   0.0000       0.687430        18.7059 
  85   0.0000       0.715094        19.4587 
  86   0.0000       0.722068        19.6485 
  87   0.0000       0.757181        20.6040 
  88   0.0000       0.761402        20.7188 
  89   0.0000       0.793027        21.5794 
  90   0.0000       0.830714        22.6049 
  91   0.0000       0.837009        22.7762 
  92   0.0000       0.851521        23.1711 
  93   0.0000       0.860241        23.4083 
  94   0.0000       0.866267        23.5723 
  95   0.0000       0.872141        23.7322 
  96   0.0000       0.888237        24.1702 
  97   0.0000       0.900924        24.5154 
  98   0.0000       0.908293        24.7159 
  99   0.0000       0.930051        25.3080 
 100   0.0000       0.971168        26.4268 
 101   0.0000       0.981662        26.7124 
 102   0.0000       1.013108        27.5681 
 103   0.0000       1.087354        29.5884 
 104   0.0000       1.092582        29.7307 
 105   0.0000       1.123190        30.5636 
 106   0.0000       1.136357        30.9218 
 107   0.0000       1.139673        31.0121 
 108   0.0000       1.156363        31.4662 
 109   0.0000       1.162940        31.6452 
 110   0.0000       1.177289        32.0357 
 111   0.0000       1.184096        32.2209 
 112   0.0000       1.196237        32.5513 
 113   0.0000       1.255401        34.1612 
 114   0.0000       1.279016        34.8038 
 115   0.0000       1.323340        36.0099 
 116   0.0000       1.325365        36.0650 
 117   0.0000       1.364463        37.1289 
 118   0.0000       1.414753        38.4974 
 119   0.0000       1.428691        38.8767 
 120   0.0000       1.451928        39.5090 
 121   0.0000       1.460962        39.7548 
 122   0.0000       1.487605        40.4798 
 123   0.0000       1.539284        41.8860 
 124   0.0000       1.612200        43.8702 
 125   0.0000       1.682781        45.7908 
 126   0.0000       1.698009        46.2052 
 127   0.0000       1.709690        46.5230 
 128   0.0000       1.745211        47.4896 
 129   0.0000       1.751917        47.6721 
 130   0.0000       1.774483        48.2861 
 131   0.0000       1.802562        49.0502 
 132   0.0000       1.816126        49.4193 
 133   0.0000       1.831832        49.8467 
 134   0.0000       1.841046        50.0974 
 135   0.0000       1.851836        50.3910 
 136   0.0000       1.904402        51.8214 
 137   0.0000       1.917366        52.1742 
 138   0.0000       2.008103        54.6433 
 139   0.0000       2.041269        55.5457 
 140   0.0000       2.065359        56.2013 
 141   0.0000       2.102357        57.2080 
 142   0.0000       2.113229        57.5039 
 143   0.0000       2.164643        58.9029 
 144   0.0000       2.179929        59.3189 
 145   0.0000       2.193383        59.6850 
 146   0.0000       2.209205        60.1155 
 147   0.0000       2.303737        62.6879 
 148   0.0000       2.360205        64.2245 
 149   0.0000       2.396702        65.2176 
 150   0.0000       2.486998        67.6747 
 151   0.0000       2.588265        70.4303 
 152   0.0000       2.658356        72.3375 
 153   0.0000       2.716483        73.9193 
 154   0.0000       2.794372        76.0387 
 155   0.0000       2.804444        76.3128 
 156   0.0000       2.982358        81.1541 
 157   0.0000       3.022016        82.2332 
 158   0.0000       3.060985        83.2936 
 159   0.0000       3.066286        83.4379 
 160   0.0000       3.071745        83.5864 
 161   0.0000       3.094618        84.2088 
 162   0.0000       3.102302        84.4179 
 163   0.0000       3.111805        84.6765 
 164   0.0000       3.120799        84.9212 
 165   0.0000       3.139503        85.4302 
 166   0.0000       3.141786        85.4923 
 167   0.0000       3.172401        86.3254 
 168   0.0000       3.214886        87.4815 
 169   0.0000       3.274018        89.0906 
 170   0.0000       3.292062        89.5816 
 171   0.0000       3.326746        90.5254 
 172   0.0000       3.336755        90.7977 
 173   0.0000       3.516210        95.6810 
 174   0.0000       3.759131       102.2912 
 175   0.0000       3.794472       103.2528 

                    ********************************
                    * MULLIKEN POPULATION ANALYSIS *
                    ********************************

-----------------------
MULLIKEN ATOMIC CHARGES
-----------------------
   0 C :    0.995946
   1 C :   -0.190506
   2 H :   -0.153327
   3 H :   -0.120206
   4 S :    1.345401
   5 O :   -0.831181
   6 O :   -0.788459
   7 O :   -0.829749
   8 H :   -0.117154
   9 H :   -0.188131
  10 H :   -0.122635
Sum of atomic charges:   -1.0000000

--------------------------------
MULLIKEN REDUCED ORBITAL CHARGES
--------------------------------
  0 C s       :     2.259715  s :     2.259715
      pz      :     0.894414  p :     2.627773
      px      :     0.961154
      py      :     0.772205
      dz2     :     0.019881  d :     0.116566
      dxz     :     0.060646
      dyz     :    -0.016370
      dx2y2   :     0.038416
      dxy     :     0.013993
  1 C s       :     2.797844  s :     2.797844
      pz      :     0.941179  p :     2.933014
      px      :     1.025972
      py      :     0.965862
      dz2     :     0.100602  d :     0.459647
      dxz     :     0.123154
      dyz     :    -0.000279
      dx2y2   :     0.090807
      dxy     :     0.145363
  2 H s       :     1.102868  s :     1.102868
      pz      :    -0.010061  p :     0.050459
      px      :     0.028717
      py      :     0.031803
  3 H s       :     1.069200  s :     1.069200
      pz      :     0.057623  p :     0.051006
      px      :    -0.022187
      py      :     0.015569
  4 S s       :     4.934449  s :     4.934449
      pz      :     2.886895  p :     8.831057
      px      :     2.875241
      py      :     3.068920
      dz2     :     0.208498  d :     0.889094
      dxz     :     0.206938
      dyz     :     0.148883
      dx2y2   :     0.168545
      dxy     :     0.156230
  5 O s       :     3.962957  s :     3.962957
      pz      :     1.744376  p :     4.861611
      px      :     1.489596
      py      :     1.627639
      dz2     :    -0.002202  d :     0.006613
      dxz     :     0.000791
      dyz     :     0.003169
      dx2y2   :     0.002098
      dxy     :     0.002756
  6 O s       :     3.947764  s :     3.947764
      pz      :     1.654709  p :     4.830559
      px      :     1.400666
      py      :     1.775184
      dz2     :    -0.001425  d :     0.010136
      dxz     :     0.001081
      dyz     :     0.004505
      dx2y2   :     0.003183
      dxy     :     0.002792
  7 O s       :     3.965173  s :     3.965173
      pz      :     1.280904  p :     4.859257
      px      :     1.819625
      py      :     1.758728
      dz2     :     0.004319  d :     0.005319
      dxz     :    -0.003012
      dyz     :     0.001414
      dx2y2   :     0.000736
      dxy     :     0.001861
  8 H s       :     1.055049  s :     1.055049
      pz      :     0.022475  p :     0.062106
      px      :     0.029126
      py      :     0.010505
  9 H s       :     1.178960  s :     1.178960
      pz      :    -0.035643  p :     0.009170
      px      :    -0.011942
      py      :     0.056756
 10 H s       :     1.078364  s :     1.078364
      pz      :     0.065616  p :     0.044270
      px      :     0.008633
      py      :    -0.029978


                     *******************************
                     * LOEWDIN POPULATION ANALYSIS *
                     *******************************

----------------------
LOEWDIN ATOMIC CHARGES
----------------------
   0 C :    0.113144
   1 C :   -0.135156
   2 H :    0.002249
   3 H :   -0.000723
   4 S :    0.857106
   5 O :   -0.588975
   6 O :   -0.573704
   7 O :   -0.592780
   8 H :   -0.024729
   9 H :   -0.037174
  10 H :   -0.019259

-------------------------------
LOEWDIN REDUCED ORBITAL CHARGES
-------------------------------
  0 C s       :     2.695872  s :     2.695872
      pz      :     0.937050  p :     2.764218
      px      :     0.910621
      py      :     0.916547
      dz2     :     0.099572  d :     0.426766
      dxz     :     0.097046
      dyz     :     0.026898
      dx2y2   :     0.110159
      dxy     :     0.093090
  1 C s       :     2.725238  s :     2.725238
      pz      :     0.935051  p :     2.744325
      px      :     0.915927
      py      :     0.893346
      dz2     :     0.130191  d :     0.665594
      dxz     :     0.119083
      dyz     :     0.089774
      dx2y2   :     0.147213
      dxy     :     0.179332
  2 H s       :     0.734151  s :     0.734151
      pz      :     0.084848  p :     0.263600
      px      :     0.090854
      py      :     0.087898
  3 H s       :     0.731701  s :     0.731701
      pz      :     0.127634  p :     0.269022
      px      :     0.066085
      py      :     0.075303
  4 S s       :     4.670749  s :     4.670749
      pz      :     2.824634  p :     8.472855
      px      :     2.826060
      py      :     2.822162
      dz2     :     0.461303  d :     1.999290
      dxz     :     0.449307
      dyz     :     0.321757
      dx2y2   :     0.403093
      dxy     :     0.363830
  5 O s       :     3.567490  s :     3.567490
      pz      :     1.659325  p :     4.774976
      px      :     1.526327
      py      :     1.589324
      dz2     :     0.045784  d :     0.246509
      dxz     :     0.053059
      dyz     :     0.026493
      dx2y2   :     0.063129
      dxy     :     0.058045
  6 O s       :     3.553229  s :     3.553229
      pz      :     1.614569  p :     4.767010
      px      :     1.507078
      py      :     1.645363
      dz2     :     0.055388  d :     0.253465
      dxz     :     0.066316
      dyz     :     0.020437
      dx2y2   :     0.053491
      dxy     :     0.057833
  7 O s       :     3.571161  s :     3.571161
      pz      :     1.442122  p :     4.779000
      px      :     1.689587
      py      :     1.647291
      dz2     :     0.082344  d :     0.242620
      dxz     :     0.073104
      dyz     :     0.063218
      dx2y2   :     0.013432
      dxy     :     0.010521
  8 H s       :     0.730888  s :     0.730888
      pz      :     0.091539  p :     0.293841
      px      :     0.094352
      py      :     0.107950
  9 H s       :     0.753843  s :     0.753843
      pz      :     0.077867  p :     0.283331
      px      :     0.073985
      py      :     0.131479
 10 H s       :     0.734868  s :     0.734868
      pz      :     0.129932  p :     0.284390
      px      :     0.072040
      py      :     0.082419


                      *****************************
                      * MAYER POPULATION ANALYSIS *
                      *****************************

  NA   - Mulliken gross atomic population
  ZA   - Total nuclear charge
  QA   - Mulliken gross atomic charge
  VA   - Mayer's total valence
  BVA  - Mayer's bonded valence
  FA   - Mayer's free valence

  ATOM       NA         ZA         QA         VA         BVA        FA
  0 C      5.0041     6.0000     0.9959     3.6502     3.6502    -0.0000
  1 C      6.1905     6.0000    -0.1905     5.0193     5.0193    -0.0000
  2 H      1.1533     1.0000    -0.1533     1.1347     1.1347     0.0000
  3 H      1.1202     1.0000    -0.1202     1.1473     1.1473     0.0000
  4 S     14.6546    16.0000     1.3454     4.9294     4.9294     0.0000
  5 O      8.8312     8.0000    -0.8312     1.4134     1.4134    -0.0000
  6 O      8.7885     8.0000    -0.7885     1.4581     1.4581     0.0000
  7 O      8.8297     8.0000    -0.8297     1.4038     1.4038     0.0000
  8 H      1.1172     1.0000    -0.1172     1.1122     1.1122    -0.0000
  9 H      1.1881     1.0000    -0.1881     0.9566     0.9566    -0.0000
 10 H      1.1226     1.0000    -0.1226     1.0670     1.0670    -0.0000

  Mayer bond orders larger than 0.100000
B(  0-C ,  1-C ) :   1.2616 B(  0-C ,  8-H ) :   0.7768 B(  0-C ,  9-H ) :   0.6762 
B(  0-C , 10-H ) :   0.7645 B(  1-C ,  2-H ) :   0.9537 B(  1-C ,  3-H ) :   0.9579 
B(  1-C ,  4-S ) :   0.9176 B(  1-C ,  8-H ) :   0.2252 B(  1-C ,  9-H ) :   0.2566 
B(  1-C , 10-H ) :   0.2171 B(  4-S ,  5-O ) :   1.2621 B(  4-S ,  6-O ) :   1.3287 
B(  4-S ,  7-O ) :   1.2592 

-------
TIMINGS
-------

Total SCF time: 0 days 0 hours 0 min 15 sec 

Total time                  ....      15.243 sec
Sum of individual times     ....      15.067 sec  ( 98.8%)

Fock matrix formation       ....      14.060 sec  ( 92.2%)
  Split-RI-J                ....       1.046 sec  (  7.4% of F)
  Chain of spheres X        ....      10.017 sec  ( 71.2% of F)
  XC integration            ....       2.956 sec  ( 21.0% of F)
    Basis function eval.    ....       1.016 sec  ( 34.4% of XC)
    Density eval.           ....       0.713 sec  ( 24.1% of XC)
    XC-Functional eval.     ....       0.188 sec  (  6.4% of XC)
    XC-Potential eval.      ....       0.934 sec  ( 31.6% of XC)
Diagonalization             ....       0.050 sec  (  0.3%)
Density matrix formation    ....       0.004 sec  (  0.0%)
Population analysis         ....       0.006 sec  (  0.0%)
Initial guess               ....       0.110 sec  (  0.7%)
Orbital Transformation      ....       0.000 sec  (  0.0%)
Orbital Orthonormalization  ....       0.000 sec  (  0.0%)
DIIS solution               ....       0.035 sec  (  0.2%)
SOSCF solution              ....       0.038 sec  (  0.2%)
Grid generation             ....       0.763 sec  (  5.0%)

Maximum memory used throughout the entire SCF-calculation: 52.1 MB


-------------------------------------------------------------------------------
                          DFT DISPERSION CORRECTION                            
                                                                               
                              DFTD3 V3.1  Rev 1                                
                          USING Becke-Johnson damping                          
-------------------------------------------------------------------------------
The B3LYP functional is recognized
Active option DFTDOPT                   ...         4   

molecular C6(AA) [au] = 1522.332473 


            DFT-D V3
 parameters
 s6 scaling factor         :     1.0000 
 a1 scaling factor         :     0.3981 
 s8 scaling factor         :     1.9889 
 a2 scaling factor         :     4.4211 
 ad hoc parameters k1-k3   :    16.0000     1.3333    -4.0000 

 Edisp/kcal,au: -10.499429230741  -0.016731903732 
 E6   /kcal   :  -4.808484832 
 E8   /kcal   :  -5.690944399 
 % E8         :  54.202416856 

-------------------------   ----------------
Dispersion correction           -0.016731904
-------------------------   ----------------


-------------------------   --------------------
FINAL SINGLE POINT ENERGY      -702.589749143016
-------------------------   --------------------


                            ***************************************
                            *     ORCA property calculations      *
                            ***************************************

                                    ---------------------
                                    Active property flags
                                    ---------------------
   (+) Dipole Moment


------------------------------------------------------------------------------
                       ORCA ELECTRIC PROPERTIES CALCULATION
------------------------------------------------------------------------------

Dipole Moment Calculation                       ... on
Quadrupole Moment Calculation                   ... off
Polarizability Calculation                      ... off
GBWName                                         ... SVPD_B3LYP_A_wt_dlpno_neg.gbw
Electron density file                           ... SVPD_B3LYP_A_wt_dlpno_neg.scfp
The origin for moment calculation is the CENTER OF MASS  = ( 6.228818, -2.701612 -11.955292)

-------------
DIPOLE MOMENT
-------------
                                X             Y             Z
Electronic contribution:     -4.33428       6.32936      -0.66295
Nuclear contribution   :      5.05690      -8.21735       0.57889
                        -----------------------------------------
Total Dipole Moment    :      0.72262      -1.88799      -0.08405
                        -----------------------------------------
Magnitude (a.u.)       :      2.02331
Magnitude (Debye)      :      5.14283



--------------------
Rotational spectrum 
--------------------
 
Rotational constants in cm-1:     0.162547     0.083494     0.081672 
Rotational constants in MHz :  4873.033504  2503.090885  2448.458543 

 Dipole components along the rotational axes: 
x,y,z [a.u.] :     1.848770    -0.819574    -0.064114 
x,y,z [Debye]:     4.699200    -2.083192    -0.162965 

 

Timings for individual modules:

Sum of individual times         ...       15.804 sec (=   0.263 min)
GTO integral calculation        ...        0.361 sec (=   0.006 min)   2.3 %
SCF iterations                  ...       15.443 sec (=   0.257 min)  97.7 %
                             ****ORCA TERMINATED NORMALLY****
TOTAL RUN TIME: 0 days 0 hours 0 minutes 16 seconds 145 msec
