
                                        *****************
                                        * O   R   C   A *
                                        *****************

                                            #,                                       
                                            ###                                      
                                            ####                                     
                                            #####                                    
                                            ######                                   
                                           ########,                                 
                                     ,,################,,,,,                         
                               ,,#################################,,                 
                          ,,##########################################,,             
                       ,#########################################, ''#####,          
                    ,#############################################,,   '####,        
                  ,##################################################,,,,####,       
                ,###########''''           ''''###############################       
              ,#####''   ,,,,##########,,,,          '''####'''          '####       
            ,##' ,,,,###########################,,,                        '##       
           ' ,,###''''                  '''############,,,                           
         ,,##''                                '''############,,,,        ,,,,,,###''
      ,#''                                            '''#######################'''  
     '                                                          ''''####''''         
             ,#######,   #######,   ,#######,      ##                                
            ,#'     '#,  ##    ##  ,#'     '#,    #''#        ######   ,####,        
            ##       ##  ##   ,#'  ##            #'  '#       #        #'  '#        
            ##       ##  #######   ##           ,######,      #####,   #    #        
            '#,     ,#'  ##    ##  '#,     ,#' ,#      #,         ##   #,  ,#        
             '#######'   ##     ##  '#######'  #'      '#     #####' # '####'        



                  #######################################################
                  #                        -***-                        #
                  #          Department of theory and spectroscopy      #
                  #    Directorship and core code : Frank Neese         #
                  #        Max Planck Institute fuer Kohlenforschung    #
                  #                Kaiser Wilhelm Platz 1               #
                  #                 D-45470 Muelheim/Ruhr               #
                  #                      Germany                        #
                  #                                                     #
                  #                  All rights reserved                #
                  #                        -***-                        #
                  #######################################################


                         Program Version 5.0.0 -  RELEASE  -
                                (SVN: $Rev: 19529$)
                ($Date: 2021-06-28 11:36:33 +0200 (Mo, 28 Jun 2021) $)


 With contributions from (in alphabetic order):
   Daniel Aravena         : Magnetic Suceptibility
   Michael Atanasov       : Ab Initio Ligand Field Theory (pilot matlab implementation)
   Alexander A. Auer      : GIAO ZORA, VPT2 properties, NMR spectrum
   Ute Becker             : Parallelization
   Giovanni Bistoni       : ED, misc. LED, open-shell LED, HFLD
   Martin Brehm           : Molecular dynamics
   Dmytro Bykov           : SCF Hessian
   Vijay G. Chilkuri      : MRCI spin determinant printing, contributions to CSF-ICE
   Dipayan Datta          : RHF DLPNO-CCSD density
   Achintya Kumar Dutta   : EOM-CC, STEOM-CC
   Dmitry Ganyushin       : Spin-Orbit,Spin-Spin,Magnetic field MRCI
   Miquel Garcia          : C-PCM Hessian, Gaussian charge scheme
   Yang Guo               : DLPNO-NEVPT2, F12-NEVPT2, CIM, IAO-localization
   Andreas Hansen         : Spin unrestricted coupled pair/coupled cluster methods
   Benjamin Helmich-Paris : MC-RPA, TRAH-SCF, COSX integrals
   Lee Huntington         : MR-EOM, pCC
   Robert Izsak           : Overlap fitted RIJCOSX, COSX-SCS-MP3, EOM
   Marcus Kettner         : VPT2
   Christian Kollmar      : KDIIS, OOCD, Brueckner-CCSD(T), CCSD density, CASPT2, CASPT2-K
   Simone Kossmann        : Meta GGA functionals, TD-DFT gradient, OOMP2, MP2 Hessian
   Martin Krupicka        : Initial AUTO-CI
   Lucas Lang             : DCDCAS
   Marvin Lechner         : AUTO-CI (C++ implementation), FIC-MRCC
   Dagmar Lenk            : GEPOL surface, SMD
   Dimitrios Liakos       : Extrapolation schemes; Compound Job, initial MDCI parallelization
   Dimitrios Manganas     : Further ROCIS development; embedding schemes
   Dimitrios Pantazis     : SARC Basis sets
   Anastasios Papadopoulos: AUTO-CI, single reference methods and gradients
   Taras Petrenko         : DFT Hessian,TD-DFT gradient, ASA, ECA, R-Raman, ABS, FL, XAS/XES, NRVS
   Peter Pinski           : DLPNO-MP2, DLPNO-MP2 Gradient
   Christoph Reimann      : Effective Core Potentials
   Marius Retegan         : Local ZFS, SOC
   Christoph Riplinger    : Optimizer, TS searches, QM/MM, DLPNO-CCSD(T), (RO)-DLPNO pert. Triples
   Tobias Risthaus        : Range-separated hybrids, TD-DFT gradient, RPA, STAB
   Michael Roemelt        : Original ROCIS implementation
   Masaaki Saitow         : Open-shell DLPNO-CCSD energy and density
   Barbara Sandhoefer     : DKH picture change effects
   Avijit Sen             : IP-ROCIS
   Kantharuban Sivalingam : CASSCF convergence, NEVPT2, FIC-MRCI
   Bernardo de Souza      : ESD, SOC TD-DFT
   Georgi Stoychev        : AutoAux, RI-MP2 NMR
   Willem Van den Heuvel  : Paramagnetic NMR
   Boris Wezisla          : Elementary symmetry handling
   Frank Wennmohs         : Technical directorship


 We gratefully acknowledge several colleagues who have allowed us to
 interface, adapt or use parts of their codes:
   Stefan Grimme, W. Hujo, H. Kruse, P. Pracht,  : VdW corrections, initial TS optimization,
                  C. Bannwarth, S. Ehlert          DFT functionals, gCP, sTDA/sTD-DF
   Ed Valeev, F. Pavosevic, A. Kumar             : LibInt (2-el integral package), F12 methods
   Garnet Chan, S. Sharma, J. Yang, R. Olivares  : DMRG
   Ulf Ekstrom                                   : XCFun DFT Library
   Mihaly Kallay                                 : mrcc  (arbitrary order and MRCC methods)
   Jiri Pittner, Ondrej Demel                    : Mk-CCSD
   Frank Weinhold                                : gennbo (NPA and NBO analysis)
   Christopher J. Cramer and Donald G. Truhlar   : smd solvation model
   Lars Goerigk                                  : TD-DFT with DH, B97 family of functionals
   V. Asgeirsson, H. Jonsson                     : NEB implementation
   FAccTs GmbH                                   : IRC, NEB, NEB-TS, DLPNO-Multilevel, CI-OPT
                                                   MM, QMMM, 2- and 3-layer-ONIOM, Crystal-QMMM,
                                                   LR-CPCM, SF, NACMEs, symmetry and pop. for TD-DFT,
                                                   nearIR, NL-DFT gradient (VV10), updates on ESD,
                                                   ML-optimized integration grids
   S Lehtola, MJT Oliveira, MAL Marques          : LibXC Library
   Liviu Ungur et al                             : ANISO software


 Your calculation uses the libint2 library for the computation of 2-el integrals
 For citations please refer to: http://libint.valeyev.net

 Your ORCA version has been built with support for libXC version: 5.1.0
 For citations please refer to: https://tddft.org/programs/libxc/

 This ORCA versions uses:
   CBLAS   interface :  Fast vector & matrix operations
   LAPACKE interface :  Fast linear algebra routines
   SCALAPACK package :  Parallel linear algebra routines
   Shared memory     :  Shared parallel matrices
   BLAS/LAPACK       :  OpenBLAS 0.3.15  USE64BITINT DYNAMIC_ARCH NO_AFFINITY Haswell SINGLE_THREADED
        Core in use  :  Haswell
   Copyright (c) 2011-2014, The OpenBLAS Project




***************************************
The coordinates will be read from file: B.xyz
***************************************


Your calculation utilizes the atom-pairwise dispersion correction
with the Becke-Johnson damping scheme (D3BJ)
Cite in your paper:
S.Grimme, S.Ehrlich, L.Goerigk, J Comput Chem, (2011), 32, 1456–1465 
S.Grimme, J.Antony, S.Ehrlich and H.Krieg, J.Chem.Phys., 132, (2010), 154104 
   

================================================================================

----- Orbital basis set information -----
Your calculation utilizes the basis: def2-SVPD
   F. Weigend and R. Ahlrichs, Phys. Chem. Chem. Phys. 7, 3297 (2005).
   D. Rappoport and F. Furche, J. Chem. Phys. 133 134105 (2010).

----- AuxJ basis set information -----
Your calculation utilizes the auxiliary basis: def2/J
   F. Weigend, Phys. Chem. Chem. Phys. 8, 1057 (2006).

================================================================================
                                        WARNINGS
                       Please study these warnings very carefully!
================================================================================


INFO   : the flag for use of the SHARK integral package has been found!

================================================================================
                                       INPUT FILE
================================================================================
NAME = 28Oct_SVPD_B3LYP_B_wt_wb97.com
|  1> !B3LYP D3BJ RIJCOSX def2-SVPD def2/J TightSCF xyzfile                                                                                         
|  2> 
|  3> *xyzfile 0 1 B.xyz
|  4> 
|  5> %MaxCore 64000
|  6> 
|  7> %pal nprocs 4                                                                                                                                                  
|  8> end  
|  9> 
| 10> %scf
| 11>   MaxIter 150
| 12> end
| 13> 
| 14> 
| 15>                          ****END OF INPUT****
================================================================================

                       ****************************
                       * Single Point Calculation *
                       ****************************

---------------------------------
CARTESIAN COORDINATES (ANGSTROEM)
---------------------------------
  C      4.490588    1.155899   -2.469290
  N      4.305394    1.222762   -3.908317
  C      4.906458   -3.102816   -5.954844
  C      3.511771   -2.806215   -6.492283
  H      2.736044   -3.373445   -5.973736
  H      3.444904   -3.040831   -7.555281
  S      3.004618   -1.096206   -6.389259
  C      4.631918    2.246365   -4.670958
  N      4.541686    2.143990   -5.987139
  N      5.084086    3.393584   -4.118545
  H      4.920675    3.570501   -3.135870
  H      5.254652    4.197390   -4.706956
  H      3.824530    0.449113   -4.350926
  H      4.343373    1.249318   -6.416646
  H      4.676712    2.956624   -6.574113
  O      4.128856   -0.329647   -6.953717
  O      1.781285   -1.000779   -7.136399
  C      5.942129    0.939500   -2.036893
  H      3.864305    0.328532   -2.136611
  H      4.076233    2.049994   -1.989010
  C      6.462677   -3.117775   -3.944671
  C      5.024977   -3.025679   -4.437625
  H      4.423321   -3.818693   -3.977648
  H      4.579350   -2.087131   -4.108727
  H      5.201533   -4.100207   -6.296905
  H      5.605922   -2.397822   -6.413368
  C      6.559957   -0.356290   -2.559086
  H      5.967976    0.952567   -0.942444
  H      6.547184    1.788331   -2.368849
  C      6.006283   -1.615917   -1.899301
  H      7.642360   -0.318000   -2.402059
  H      6.414855   -0.403433   -3.642587
  C      6.608718   -2.917014   -2.435655
  H      6.190324   -1.561115   -0.820948
  H      4.919250   -1.651245   -2.016586
  H      7.066975   -2.374258   -4.475514
  H      6.887808   -4.089747   -4.215332
  H      6.135197   -3.755573   -1.915159
  H      7.671142   -2.955503   -2.172291
  O      2.851546   -0.783683   -4.956789

----------------------------
CARTESIAN COORDINATES (A.U.)
----------------------------
  NO LB      ZA    FRAG     MASS         X           Y           Z
   0 C     6.0000    0    12.011    8.485982    2.184332   -4.666282
   1 N     7.0000    0    14.007    8.136015    2.310685   -7.385649
   2 C     6.0000    0    12.011    9.271862   -5.863473  -11.253025
   3 C     6.0000    0    12.011    6.636285   -5.302977  -12.268638
   4 H     1.0000    0     1.008    5.170374   -6.374888  -11.288724
   5 H     1.0000    0     1.008    6.509926   -5.746338  -14.277412
   6 S    16.0000    0    32.060    5.677904   -2.071530  -12.073950
   7 C     6.0000    0    12.011    8.753057    4.245015   -8.826831
   8 N     7.0000    0    14.007    8.582543    4.051553  -11.314052
   9 N     7.0000    0    14.007    9.607530    6.412945   -7.782923
  10 H     1.0000    0     1.008    9.298728    6.747268   -5.925936
  11 H     1.0000    0     1.008    9.929852    7.931917   -8.894858
  12 H     1.0000    0     1.008    7.227314    0.848701   -8.222058
  13 H     1.0000    0     1.008    8.207786    2.360868  -12.125704
  14 H     1.0000    0     1.008    8.837705    5.587209  -12.423274
  15 O     8.0000    0    15.999    7.802408   -0.622942  -13.140621
  16 O     8.0000    0    15.999    3.366140   -1.891199  -13.485840
  17 C     6.0000    0    12.011   11.228997    1.775397   -3.849170
  18 H     1.0000    0     1.008    7.302479    0.620836   -4.037610
  19 H     1.0000    0     1.008    7.702964    3.873927   -3.758685
  20 C     6.0000    0    12.011   12.212689   -5.891741   -7.454347
  21 C     6.0000    0    12.011    9.495831   -5.717705   -8.385896
  22 H     1.0000    0     1.008    8.358866   -7.216284   -7.516666
  23 H     1.0000    0     1.008    8.653718   -3.944106   -7.764369
  24 H     1.0000    0     1.008    9.829473   -7.748269  -11.899427
  25 H     1.0000    0     1.008   10.593657   -4.531226  -12.119509
  26 C     6.0000    0    12.011   12.396522   -0.673291   -4.835971
  27 H     1.0000    0     1.008   11.277840    1.800090   -1.780961
  28 H     1.0000    0     1.008   12.372385    3.379455   -4.476477
  29 C     6.0000    0    12.011   11.350230   -3.053641   -3.589158
  30 H     1.0000    0     1.008   14.441966   -0.600934   -4.539234
  31 H     1.0000    0     1.008   12.122318   -0.762378   -6.883492
  32 C     6.0000    0    12.011   12.488666   -5.512358   -4.602721
  33 H     1.0000    0     1.008   11.698016   -2.950080   -1.551366
  34 H     1.0000    0     1.008    9.296035   -3.120400   -3.810796
  35 H     1.0000    0     1.008   13.354648   -4.486697   -8.457496
  36 H     1.0000    0     1.008   13.016070   -7.728501   -7.965822
  37 H     1.0000    0     1.008   11.593841   -7.097005   -3.619127
  38 H     1.0000    0     1.008   14.496357   -5.585092   -4.105035
  39 O     8.0000    0    15.999    5.388641   -1.480946   -9.366974

--------------------------------
INTERNAL COORDINATES (ANGSTROEM)
--------------------------------
 C      0   0   0     0.000000000000     0.00000000     0.00000000
 N      1   0   0     1.452434888732     0.00000000     0.00000000
 C      2   1   0     4.822880648060   111.29935464     0.00000000
 C      3   2   1     1.523799819616    82.01111056   124.72570022
 H      4   3   2     1.091968299252   112.43309611   255.51929182
 H      4   3   2     1.090632873150   110.97759244   134.54655122
 S      4   3   2     1.786602224664   115.19977359    16.50892478
 C      2   1   3     1.317574833962   125.28497018   214.05519914
 N      8   2   1     1.323236350905   119.91604121   173.18858040
 N      8   2   1     1.351194480527   120.39094198   354.48825376
 H     10   8   2     1.011757151303   119.43893893   342.13916756
 H     10   8   2     1.010654769343   119.58539038   185.29571941
 H      2   1   3     1.012750840265   117.28239304    38.84614007
 H      9   8   2     1.012048706728   120.25757225   351.78674532
 H      9   8   2     1.011506480060   120.39405507   172.23609159
 O      7   4   3     1.473139212620   105.02973514    49.07238667
 O      7   4   3     1.436617023222   105.98041552   170.73821441
 C      1   2   3     1.529956533456   114.04751046    71.27147181
 H      1   2   3     1.089697165343   105.31628314   309.84494500
 H      1   2   3     1.096250554262   110.38499465   196.36075284
 C      3   2   1     2.542211031985    75.28786529   328.63877310
 C     21   3   2     1.522650424266    33.45203408    62.46988994
 H     22  21   3     1.096558425421   109.78678321   123.00138599
 H     22  21   3     1.089784085482   109.90626334   238.94967961
 H      3   2   1     1.094926392967   169.46526939   316.66150389
 H      3   2   1     1.093851646948    71.30795148   237.06279558
 C     18   1   2     1.527569327213   114.02213033   299.75436756
 H     18   1   2     1.094832037269   107.65179087   177.40351951
 H     18   1   2     1.093983651653   109.22173402    62.36298160
 C     27  18   1     1.525952470352   113.93276277   288.90034571
 H     27  18   1     1.094403426518   108.74093275   167.10616769
 H     27  18   1     1.094190161747   108.74874272    52.17399198
 C     21   3   2     1.529300762752   146.92063230    53.80488115
 H     30  27  18     1.095317124906   108.86941482   300.75108730
 H     30  27  18     1.093912987644   109.92906200    56.35085961
 H     21   3   2     1.095348999413    87.16372703   291.04892433
 H     21   3   2     1.094861915024    92.71949470   185.57163885
 H     33  21   3     1.094677724411   109.10507473    72.09358689
 H     33  21   3     1.095256828209   108.98305469   187.60350442
 O      7   4   3     1.474133937430   106.76381078   292.33403201

---------------------------
INTERNAL COORDINATES (A.U.)
---------------------------
 C      0   0   0     0.000000000000     0.00000000     0.00000000
 N      1   0   0     2.744704167055     0.00000000     0.00000000
 C      2   1   0     9.113923601421   111.29935464     0.00000000
 C      3   2   1     2.879564341994    82.01111056   124.72570022
 H      4   3   2     2.063521032510   112.43309611   255.51929182
 H      4   3   2     2.060997442905   110.97759244   134.54655122
 S      4   3   2     3.376188914869   115.19977359    16.50892478
 C      2   1   3     2.489855597135   125.28497018   214.05519914
 N      8   2   1     2.500554313659   119.91604121   173.18858040
 N      8   2   1     2.553387521862   120.39094198   354.48825376
 H     10   8   2     1.911943930000   119.43893893   342.13916756
 H     10   8   2     1.909860730000   119.58539038   185.29571941
 H      2   1   3     1.913821729999   117.28239304    38.84614007
 H      9   8   2     1.912494889904   120.25757225   351.78674532
 H      9   8   2     1.911470230000   120.39405507   172.23609159
 O      7   4   3     2.783829668993   105.02973514    49.07238667
 O      7   4   3     2.714812733219   105.98041552   170.73821441
 C      1   2   3     2.891198845036   114.04751046    71.27147181
 H      1   2   3     2.059229211409   105.31628314   309.84494500
 H      1   2   3     2.071613321715   110.38499465   196.36075284
 C      3   2   1     4.804082625084    75.28786529   328.63877310
 C     21   3   2     2.877392299561    33.45203408    62.46988994
 H     22  21   3     2.072195113889   109.78678321   123.00138599
 H     22  21   3     2.059393466667   109.90626334   238.94967961
 H      3   2   1     2.069111019509   169.46526939   316.66150389
 H      3   2   1     2.067080043870    71.30795148   237.06279558
 C     18   1   2     2.886687679010   114.02213033   299.75436756
 H     18   1   2     2.068932713082   107.65179087   177.40351951
 H     18   1   2     2.067329496612   109.22173402    62.36298160
 C     27  18   1     2.883632262346   113.93276277   288.90034571
 H     27  18   1     2.068122756144   108.74093275   167.10616769
 H     27  18   1     2.067719744133   108.74874272    52.17399198
 C     21   3   2     2.889959617997   146.92063230    53.80488115
 H     30  27  18     2.069849395866   108.86941482   300.75108730
 H     30  27  18     2.067195960987   109.92906200    56.35085961
 H     21   3   2     2.069909629955    87.16372703   291.04892433
 H     21   3   2     2.068989173855    92.71949470   185.57163885
 H     33  21   3     2.068641104040   109.10507473    72.09358689
 H     33  21   3     2.069735451623   108.98305469   187.60350442
 O      7   4   3     2.785709426462   106.76381078   292.33403201

---------------------
BASIS SET INFORMATION
---------------------
There are 5 groups of distinct atoms

 Group   1 Type C   : 8s4p2d contracted to 4s2p2d pattern {5111/31/11}
 Group   2 Type N   : 8s4p2d contracted to 4s2p2d pattern {5111/31/11}
 Group   3 Type H   : 4s2p contracted to 2s2p pattern {31/11}
 Group   4 Type S   : 11s8p2d contracted to 5s4p2d pattern {53111/5111/11}
 Group   5 Type O   : 8s5p2d contracted to 4s3p2d pattern {5111/311/11}

Atom   0C    basis set group =>   1
Atom   1N    basis set group =>   2
Atom   2C    basis set group =>   1
Atom   3C    basis set group =>   1
Atom   4H    basis set group =>   3
Atom   5H    basis set group =>   3
Atom   6S    basis set group =>   4
Atom   7C    basis set group =>   1
Atom   8N    basis set group =>   2
Atom   9N    basis set group =>   2
Atom  10H    basis set group =>   3
Atom  11H    basis set group =>   3
Atom  12H    basis set group =>   3
Atom  13H    basis set group =>   3
Atom  14H    basis set group =>   3
Atom  15O    basis set group =>   5
Atom  16O    basis set group =>   5
Atom  17C    basis set group =>   1
Atom  18H    basis set group =>   3
Atom  19H    basis set group =>   3
Atom  20C    basis set group =>   1
Atom  21C    basis set group =>   1
Atom  22H    basis set group =>   3
Atom  23H    basis set group =>   3
Atom  24H    basis set group =>   3
Atom  25H    basis set group =>   3
Atom  26C    basis set group =>   1
Atom  27H    basis set group =>   3
Atom  28H    basis set group =>   3
Atom  29C    basis set group =>   1
Atom  30H    basis set group =>   3
Atom  31H    basis set group =>   3
Atom  32C    basis set group =>   1
Atom  33H    basis set group =>   3
Atom  34H    basis set group =>   3
Atom  35H    basis set group =>   3
Atom  36H    basis set group =>   3
Atom  37H    basis set group =>   3
Atom  38H    basis set group =>   3
Atom  39O    basis set group =>   5
---------------------------------
AUXILIARY/J BASIS SET INFORMATION
---------------------------------
There are 5 groups of distinct atoms

 Group   1 Type C   : 12s5p4d2f1g contracted to 6s4p3d1f1g pattern {711111/2111/211/2/1}
 Group   2 Type N   : 12s5p4d2f1g contracted to 6s4p3d1f1g pattern {711111/2111/211/2/1}
 Group   3 Type H   : 5s2p1d contracted to 3s1p1d pattern {311/2/1}
 Group   4 Type S   : 14s5p5d2f1g contracted to 8s4p3d1f1g pattern {71111111/2111/311/2/1}
 Group   5 Type O   : 12s5p4d2f1g contracted to 6s4p3d1f1g pattern {711111/2111/211/2/1}

Atom   0C    basis set group =>   1
Atom   1N    basis set group =>   2
Atom   2C    basis set group =>   1
Atom   3C    basis set group =>   1
Atom   4H    basis set group =>   3
Atom   5H    basis set group =>   3
Atom   6S    basis set group =>   4
Atom   7C    basis set group =>   1
Atom   8N    basis set group =>   2
Atom   9N    basis set group =>   2
Atom  10H    basis set group =>   3
Atom  11H    basis set group =>   3
Atom  12H    basis set group =>   3
Atom  13H    basis set group =>   3
Atom  14H    basis set group =>   3
Atom  15O    basis set group =>   5
Atom  16O    basis set group =>   5
Atom  17C    basis set group =>   1
Atom  18H    basis set group =>   3
Atom  19H    basis set group =>   3
Atom  20C    basis set group =>   1
Atom  21C    basis set group =>   1
Atom  22H    basis set group =>   3
Atom  23H    basis set group =>   3
Atom  24H    basis set group =>   3
Atom  25H    basis set group =>   3
Atom  26C    basis set group =>   1
Atom  27H    basis set group =>   3
Atom  28H    basis set group =>   3
Atom  29C    basis set group =>   1
Atom  30H    basis set group =>   3
Atom  31H    basis set group =>   3
Atom  32C    basis set group =>   1
Atom  33H    basis set group =>   3
Atom  34H    basis set group =>   3
Atom  35H    basis set group =>   3
Atom  36H    basis set group =>   3
Atom  37H    basis set group =>   3
Atom  38H    basis set group =>   3
Atom  39O    basis set group =>   5


           ************************************************************
           *        Program running with 4 parallel MPI-processes     *
           *              working on a common directory               *
           ************************************************************
------------------------------------------------------------------------------
                           ORCA GTO INTEGRAL CALCULATION
                           -- RI-GTO INTEGRALS CHOSEN --
------------------------------------------------------------------------------
------------------------------------------------------------------------------
                   ___                                                        
                  /   \      - P O W E R E D   B Y -                         
                 /     \                                                     
                 |  |  |   _    _      __       _____    __    __             
                 |  |  |  | |  | |    /  \     |  _  \  |  |  /  |          
                  \  \/   | |  | |   /    \    | | | |  |  | /  /          
                 / \  \   | |__| |  /  /\  \   | |_| |  |  |/  /          
                |  |  |   |  __  | /  /__\  \  |    /   |      \           
                |  |  |   | |  | | |   __   |  |    \   |  |\   \          
                \     /   | |  | | |  |  |  |  | |\  \  |  | \   \       
                 \___/    |_|  |_| |__|  |__|  |_| \__\ |__|  \__/        
                                                                              
                      - O R C A' S   B I G   F R I E N D -                    
                                      &                                       
                       - I N T E G R A L  F E E D E R -                       
                                                                              
 v1 FN, 2020, v2 2021                                                         
------------------------------------------------------------------------------


Reading SHARK input file 28Oct_SVPD_B3LYP_B_wt_wb97.SHARKINP.tmp ... ok
----------------------
SHARK INTEGRAL PACKAGE
----------------------

Number of atoms                             ...     40
Number of basis functions                   ...    540
Number of shells                            ...    234
Maximum angular momentum                    ...      2
Integral batch strategy                     ... SHARK/LIBINT Hybrid
RI-J (if used) integral strategy            ... SPLIT-RIJ (Revised 2003 algorithm where possible)
Printlevel                                  ...      1
Contraction scheme used                     ... SEGMENTED contraction
Coulomb Range Separation                    ... NOT USED
Exchange Range Separation                   ... NOT USED
Finite Nucleus Model                        ... NOT USED
Auxiliary Coulomb fitting basis             ... AVAILABLE
   # of basis functions in Aux-J            ...   1088
   # of shells in Aux-J                     ...    372
   Maximum angular momentum in Aux-J        ...      4
Auxiliary J/K fitting basis                 ... NOT available
Auxiliary Correlation fitting basis         ... NOT available
Auxiliary 'external' fitting basis          ... NOT available
Integral threshold                          ...     2.500000e-11
Primitive cut-off                           ...     2.500000e-12
Primitive pair pre-selection threshold      ...     2.500000e-12

Calculating pre-screening integrals         ... done (  0.1 sec) Dimension = 234
Organizing shell pair data                  ... done (  0.2 sec)
Shell pair information
Total number of shell pairs                 ...     27495
Shell pairs after pre-screening             ...     24599
Total number of primitive shell pairs       ...     74991
Primitive shell pairs kept                  ...     49891
          la=0 lb=0:   5922 shell pairs
          la=1 lb=0:   8749 shell pairs
          la=1 lb=1:   3277 shell pairs
          la=2 lb=0:   3509 shell pairs
          la=2 lb=1:   2606 shell pairs
          la=2 lb=2:    536 shell pairs

Calculating one electron integrals          ... done (  0.1 sec)
Calculating RI/J V-Matrix + Cholesky decomp.... done (  0.1 sec)
Calculating Nuclear repulsion               ... done (  0.0 sec) ENN=   1572.103580514152 Eh

SHARK setup successfully completed in   0.6 seconds

Maximum memory used throughout the entire GTOINT-calculation: 36.0 MB


           ************************************************************
           *        Program running with 4 parallel MPI-processes     *
           *              working on a common directory               *
           ************************************************************
-------------------------------------------------------------------------------
                                 ORCA SCF
-------------------------------------------------------------------------------

------------
SCF SETTINGS
------------
Hamiltonian:
 Density Functional     Method          .... DFT(GTOs)
 Exchange Functional    Exchange        .... B88
   X-Alpha parameter    XAlpha          ....  0.666667
   Becke's b parameter  XBeta           ....  0.004200
 Correlation Functional Correlation     .... LYP
 LDA part of GGA corr.  LDAOpt          .... VWN-5
 Gradients option       PostSCFGGA      .... off
 Hybrid DFT is turned on
   Fraction HF Exchange ScalHFX         ....  0.200000
   Scaling of DF-GGA-X  ScalDFX         ....  0.720000
   Scaling of DF-GGA-C  ScalDFC         ....  0.810000
   Scaling of DF-LDA-C  ScalLDAC        ....  1.000000
   Perturbative correction              ....  0.000000
   Density functional embedding theory  .... OFF
   NL short-range parameter             ....  4.800000
 RI-approximation to the Coulomb term is turned on
   Number of AuxJ basis functions       .... 1088
   RIJ-COSX (HFX calculated with COS-X)).... on


General Settings:
 Integral files         IntName         .... 28Oct_SVPD_B3LYP_B_wt_wb97
 Hartree-Fock type      HFTyp           .... RHF
 Total Charge           Charge          ....    0
 Multiplicity           Mult            ....    1
 Number of Electrons    NEL             ....  144
 Basis Dimension        Dim             ....  540
 Nuclear Repulsion      ENuc            ....   1572.1035805142 Eh

Convergence Acceleration:
 DIIS                   CNVDIIS         .... on
   Start iteration      DIISMaxIt       ....    12
   Startup error        DIISStart       ....  0.200000
   # of expansion vecs  DIISMaxEq       ....     5
   Bias factor          DIISBfac        ....   1.050
   Max. coefficient     DIISMaxC        ....  10.000
 Trust-Rad. Augm. Hess. CNVTRAH         .... auto
   Auto Start mean grad. ratio tolernc. ....  1.125000
   Auto Start start iteration           ....    20
   Auto Start num. interpolation iter.  ....    10
   Max. Number of Micro iterations      ....    16
   Max. Number of Macro iterations      .... Maxiter - #DIIS iter
   Number of Davidson start vectors     ....     2
   Converg. threshold I  (grad. norm)   ....   1.000e-05
   Converg. threshold II (energy diff.) ....   1.000e-08
   Grad. Scal. Fac. for Micro threshold ....   0.100
   Minimum threshold for Micro iter.    ....   0.010
   NR start threshold (gradient norm)   ....   0.001
   Initial trust radius                 ....   0.400
   Minimum AH scaling param. (alpha)    ....   1.000
   Maximum AH scaling param. (alpha)    .... 1000.000
   Orbital update algorithm             .... Taylor
   White noise on init. David. guess    .... on
   Maximum white noise                  ....   0.010
   Quad. conv. algorithm                .... NR
 SOSCF                  CNVSOSCF        .... on
   Start iteration      SOSCFMaxIt      ....   150
   Startup grad/error   SOSCFStart      ....  0.003300
 Level Shifting         CNVShift        .... on
   Level shift para.    LevelShift      ....    0.2500
   Turn off err/grad.   ShiftErr        ....    0.0010
 Zerner damping         CNVZerner       .... off
 Static damping         CNVDamp         .... on
   Fraction old density DampFac         ....    0.7000
   Max. Damping (<1)    DampMax         ....    0.9800
   Min. Damping (>=0)   DampMin         ....    0.0000
   Turn off err/grad.   DampErr         ....    0.1000
 Fernandez-Rico         CNVRico         .... off

SCF Procedure:
 Maximum # iterations   MaxIter         ....   150
 SCF integral mode      SCFMode         .... Direct
   Integral package                     .... SHARK and LIBINT hybrid scheme
 Reset frequency        DirectResetFreq ....    20
 Integral Threshold     Thresh          ....  2.500e-11 Eh
 Primitive CutOff       TCut            ....  2.500e-12 Eh

Convergence Tolerance:
 Convergence Check Mode ConvCheckMode   .... Total+1el-Energy
 Convergence forced     ConvForced      .... 0
 Energy Change          TolE            ....  1.000e-08 Eh
 1-El. energy change                    ....  1.000e-05 Eh
 Orbital Gradient       TolG            ....  1.000e-05
 Orbital Rotation angle TolX            ....  1.000e-05
 DIIS Error             TolErr          ....  5.000e-07


Diagonalization of the overlap matrix:
Smallest eigenvalue                        ... 1.762e-05
Time for diagonalization                   ...    0.062 sec
Threshold for overlap eigenvalues          ... 1.000e-08
Number of eigenvalues below threshold      ... 0
Time for construction of square roots      ...    0.081 sec
Total time needed                          ...    0.146 sec

Time for model grid setup =    0.485 sec

------------------------------
INITIAL GUESS: MODEL POTENTIAL
------------------------------
Loading Hartree-Fock densities                     ... done
Calculating cut-offs                               ... done
Initializing the effective Hamiltonian             ... done
Setting up the integral package (SHARK)            ... done
Starting the Coulomb interaction                   ... done (   0.6 sec)
Reading the grid                                   ... done
Mapping shells                                     ... done
Starting the XC term evaluation                    ... done (   0.7 sec)
  promolecular density results
     # of electrons  =    143.983467181
     EX              =   -127.880456863
     EC              =     -5.004813710
     EX+EC           =   -132.885270573
Transforming the Hamiltonian                       ... done (   0.0 sec)
Diagonalizing the Hamiltonian                      ... done (   0.1 sec)
Back transforming the eigenvectors                 ... done (   0.0 sec)
Now organizing SCF variables                       ... done
                      ------------------
                      INITIAL GUESS DONE (   2.0 sec)
                      ------------------
-------------------
DFT GRID GENERATION
-------------------

General Integration Accuracy     IntAcc      ... 4.388
Radial Grid Type                 RadialGrid  ... OptM3 with GC (2021)
Angular Grid (max. ang.)         AngularGrid ... 4 (Lebedev-302)
Angular grid pruning method      GridPruning ... 4 (adaptive)
Weight generation scheme         WeightScheme... Becke
Basis function cutoff            BFCut       ... 1.0000e-11
Integration weight cutoff        WCut        ... 1.0000e-14
Angular grids for H and He will be reduced by one unit
Partially contracted basis set               ... off
Rotationally invariant grid construction     ... off

Total number of grid points                  ...   179852
Total number of batches                      ...     2828
Average number of points per batch           ...       63
Average number of grid points per atom       ...     4496
Time for grid setup =    1.933 sec

--------------------
COSX GRID GENERATION
--------------------

GRIDX 1
-------
General Integration Accuracy     IntAcc      ... 3.816
Radial Grid Type                 RadialGrid  ... OptM3 with GC (2021)
Angular Grid (max. ang.)         AngularGrid ... 1 (Lebedev-50)
Angular grid pruning method      GridPruning ... 4 (adaptive)
Weight generation scheme         WeightScheme... Becke
Basis function cutoff            BFCut       ... 1.0000e-11
Integration weight cutoff        WCut        ... 1.0000e-14
Angular grids for H and He will be reduced by one unit
Partially contracted basis set               ... on
Rotationally invariant grid construction     ... off

Total number of grid points                  ...    22373
Total number of batches                      ...      376
Average number of points per batch           ...       59
Average number of grid points per atom       ...      559
UseSFitting                                  ... on

GRIDX 2
-------
General Integration Accuracy     IntAcc      ... 4.020
Radial Grid Type                 RadialGrid  ... OptM3 with GC (2021)
Angular Grid (max. ang.)         AngularGrid ... 2 (Lebedev-110)
Angular grid pruning method      GridPruning ... 4 (adaptive)
Weight generation scheme         WeightScheme... Becke
Basis function cutoff            BFCut       ... 1.0000e-11
Integration weight cutoff        WCut        ... 1.0000e-14
Angular grids for H and He will be reduced by one unit
Partially contracted basis set               ... on
Rotationally invariant grid construction     ... off

Total number of grid points                  ...    49154
Total number of batches                      ...      788
Average number of points per batch           ...       62
Average number of grid points per atom       ...     1229
UseSFitting                                  ... on

GRIDX 3
-------
General Integration Accuracy     IntAcc      ... 4.338
Radial Grid Type                 RadialGrid  ... OptM3 with GC (2021)
Angular Grid (max. ang.)         AngularGrid ... 3 (Lebedev-194)
Angular grid pruning method      GridPruning ... 4 (adaptive)
Weight generation scheme         WeightScheme... Becke
Basis function cutoff            BFCut       ... 1.0000e-11
Integration weight cutoff        WCut        ... 1.0000e-14
Angular grids for H and He will be reduced by one unit
Partially contracted basis set               ... on
Rotationally invariant grid construction     ... off

Total number of grid points                  ...   110452
Total number of batches                      ...     1747
Average number of points per batch           ...       63
Average number of grid points per atom       ...     2761
UseSFitting                                  ... on

Time for X-Grid setup             =    2.692 sec

--------------
SCF ITERATIONS
--------------
ITER       Energy         Delta-E        Max-DP      RMS-DP      [F,P]     Damp
               ***  Starting incremental Fock matrix formation  ***
  0  -1181.1390469336   0.000000000000 0.30651786  0.00282128  0.2943158 0.7000
  1  -1181.4920524311  -0.353005497469 0.19144203  0.00176469  0.1137263 0.7000
                               ***Turning on DIIS***
  2  -1181.6206618281  -0.128609397001 0.35154283  0.00329268  0.0364821 0.0000
  3  -1181.8260000254  -0.205338197297 0.06951876  0.00092624  0.0639730 0.0000
  4  -1181.8734920498  -0.047492024402 0.02374966  0.00032050  0.0148698 0.0000
  5  -1181.8755495925  -0.002057542737 0.00937120  0.00011822  0.0074530 0.0000
                      *** Initiating the SOSCF procedure ***
                           *** Shutting down DIIS ***
                      *** Re-Reading the Fockian *** 
                      *** Removing any level shift *** 
ITER      Energy       Delta-E        Grad      Rot      Max-DP    RMS-DP
  6  -1181.87581070  -0.0002611084  0.000329  0.000329  0.002687  0.000045
               *** Restarting incremental Fock matrix formation ***
  7  -1181.87594643  -0.0001357270  0.000122  0.000360  0.004682  0.000085
  8  -1181.87594647  -0.0000000449  0.000157  0.000146  0.001001  0.000019
  9  -1181.87594976  -0.0000032895  0.000049  0.000069  0.000967  0.000018
 10  -1181.87594964   0.0000001178  0.000037  0.000037  0.000254  0.000004
 11  -1181.87595007  -0.0000004276  0.000006  0.000013  0.000206  0.000003
 12  -1181.87595007  -0.0000000016  0.000005  0.000009  0.000092  0.000001
                  ***Gradient check signals convergence***
              ***Rediagonalizing the Fockian in SOSCF/NRSCF***

               *****************************************************
               *                     SUCCESS                       *
               *           SCF CONVERGED AFTER  13 CYCLES          *
               *****************************************************

Old exchange energy                            =    -25.937569161 Eh
New exchange energy                            =    -25.937585333 Eh
Exchange energy change after final integration =     -0.000016173 Eh
Total energy after final integration           =  -1181.875966225 Eh
Final COS-X integration done in                =    39.480 sec

----------------
TOTAL SCF ENERGY
----------------

Total Energy       :        -1181.87596623 Eh          -32160.48005 eV

Components:
Nuclear Repulsion  :         1572.10358051 Eh           42779.11327 eV
Electronic Energy  :        -2753.97954674 Eh          -74939.59332 eV
One Electron Energy:        -4741.40217174 Eh         -129020.11235 eV
Two Electron Energy:         1987.42262500 Eh           54080.51903 eV
Max COSX asymmetry :            0.00000883 Eh               0.00024 eV

Virial components:
Potential Energy   :        -2355.07716642 Eh          -64084.90771 eV
Kinetic Energy     :         1173.20120019 Eh           31924.42766 eV
Virial Ratio       :            2.00739410


DFT components:
N(Alpha)           :       71.999887416502 electrons
N(Beta)            :       71.999887416502 electrons
N(Total)           :      143.999774833003 electrons
E(X)               :     -103.006185947539 Eh       
E(C)               :       -5.879781115460 Eh       
E(XC)              :     -108.885967063000 Eh       
DFET-embed. en.    :        0.000000000000 Eh       

---------------
SCF CONVERGENCE
---------------

  Last Energy change         ...    2.1376e-08  Tolerance :   1.0000e-08
  Last MAX-Density change    ...    4.4409e-15  Tolerance :   1.0000e-07
  Last RMS-Density change    ...    3.6579e-17  Tolerance :   5.0000e-09
  Last Orbital Gradient      ...    1.3679e-06  Tolerance :   1.0000e-05
  Last Orbital Rotation      ...    3.6688e-06  Tolerance :   1.0000e-05

             **** THE GBW FILE WAS UPDATED (28Oct_SVPD_B3LYP_B_wt_wb97.gbw) ****
             **** DENSITY 28Oct_SVPD_B3LYP_B_wt_wb97.scfp WAS UPDATED ****
             **** ENERGY FILE WAS UPDATED (28Oct_SVPD_B3LYP_B_wt_wb97.en.tmp) ****
             **** THE GBW FILE WAS UPDATED (28Oct_SVPD_B3LYP_B_wt_wb97.gbw) ****
             **** DENSITY 28Oct_SVPD_B3LYP_B_wt_wb97.scfp WAS UPDATED ****
----------------
ORBITAL ENERGIES
----------------

  NO   OCC          E(Eh)            E(eV) 
   0   2.0000     -89.037351     -2422.8295 
   1   2.0000     -19.079217      -519.1719 
   2   2.0000     -19.079140      -519.1698 
   3   2.0000     -19.065737      -518.8051 
   4   2.0000     -14.406367      -392.0172 
   5   2.0000     -14.373142      -391.1131 
   6   2.0000     -14.371868      -391.0784 
   7   2.0000     -10.353296      -281.7275 
   8   2.0000     -10.248458      -278.8747 
   9   2.0000     -10.202813      -277.6327 
  10   2.0000     -10.186632      -277.1923 
  11   2.0000     -10.179786      -277.0061 
  12   2.0000     -10.175998      -276.9030 
  13   2.0000     -10.174594      -276.8648 
  14   2.0000     -10.167933      -276.6835 
  15   2.0000     -10.167037      -276.6591 
  16   2.0000     -10.158906      -276.4379 
  17   2.0000      -8.090456      -220.1525 
  18   2.0000      -6.060196      -164.9063 
  19   2.0000      -6.059357      -164.8835 
  20   2.0000      -6.057881      -164.8433 
  21   2.0000      -1.088843       -29.6289 
  22   2.0000      -1.043755       -28.4020 
  23   2.0000      -0.944397       -25.6984 
  24   2.0000      -0.942627       -25.6502 
  25   2.0000      -0.932924       -25.3862 
  26   2.0000      -0.920350       -25.0440 
  27   2.0000      -0.817265       -22.2389 
  28   2.0000      -0.792359       -21.5612 
  29   2.0000      -0.766474       -20.8568 
  30   2.0000      -0.730326       -19.8732 
  31   2.0000      -0.695422       -18.9234 
  32   2.0000      -0.672891       -18.3103 
  33   2.0000      -0.644580       -17.5399 
  34   2.0000      -0.627098       -17.0642 
  35   2.0000      -0.614157       -16.7121 
  36   2.0000      -0.592135       -16.1128 
  37   2.0000      -0.574550       -15.6343 
  38   2.0000      -0.547965       -14.9109 
  39   2.0000      -0.544745       -14.8233 
  40   2.0000      -0.540253       -14.7010 
  41   2.0000      -0.514615       -14.0034 
  42   2.0000      -0.504414       -13.7258 
  43   2.0000      -0.486124       -13.2281 
  44   2.0000      -0.479623       -13.0512 
  45   2.0000      -0.464811       -12.6482 
  46   2.0000      -0.460835       -12.5400 
  47   2.0000      -0.451569       -12.2878 
  48   2.0000      -0.436819       -11.8864 
  49   2.0000      -0.432464       -11.7680 
  50   2.0000      -0.426526       -11.6064 
  51   2.0000      -0.417121       -11.3504 
  52   2.0000      -0.408469       -11.1150 
  53   2.0000      -0.400274       -10.8920 
  54   2.0000      -0.390471       -10.6252 
  55   2.0000      -0.382291       -10.4027 
  56   2.0000      -0.367066        -9.9884 
  57   2.0000      -0.359331        -9.7779 
  58   2.0000      -0.349880        -9.5207 
  59   2.0000      -0.336831        -9.1656 
  60   2.0000      -0.327411        -8.9093 
  61   2.0000      -0.323652        -8.8070 
  62   2.0000      -0.317883        -8.6500 
  63   2.0000      -0.314716        -8.5639 
  64   2.0000      -0.311608        -8.4793 
  65   2.0000      -0.309033        -8.4092 
  66   2.0000      -0.303354        -8.2547 
  67   2.0000      -0.288040        -7.8380 
  68   2.0000      -0.272085        -7.4038 
  69   2.0000      -0.264200        -7.1892 
  70   2.0000      -0.256139        -6.9699 
  71   2.0000      -0.229659        -6.2493 
  72   0.0000      -0.023941        -0.6515 
  73   0.0000      -0.013755        -0.3743 
  74   0.0000       0.006367         0.1732 
  75   0.0000       0.024095         0.6557 
  76   0.0000       0.028691         0.7807 
  77   0.0000       0.035616         0.9692 
  78   0.0000       0.039558         1.0764 
  79   0.0000       0.047993         1.3060 
  80   0.0000       0.050429         1.3723 
  81   0.0000       0.059156         1.6097 
  82   0.0000       0.066942         1.8216 
  83   0.0000       0.069719         1.8971 
  84   0.0000       0.074187         2.0187 
  85   0.0000       0.081610         2.2207 
  86   0.0000       0.083868         2.2822 
  87   0.0000       0.093914         2.5555 
  88   0.0000       0.096882         2.6363 
  89   0.0000       0.100095         2.7237 
  90   0.0000       0.101678         2.7668 
  91   0.0000       0.107758         2.9322 
  92   0.0000       0.114313         3.1106 
  93   0.0000       0.114799         3.1239 
  94   0.0000       0.124307         3.3826 
  95   0.0000       0.127665         3.4739 
  96   0.0000       0.129048         3.5116 
  97   0.0000       0.132394         3.6026 
  98   0.0000       0.141641         3.8542 
  99   0.0000       0.146618         3.9897 
 100   0.0000       0.148744         4.0475 
 101   0.0000       0.154303         4.1988 
 102   0.0000       0.157476         4.2851 
 103   0.0000       0.161445         4.3931 
 104   0.0000       0.164459         4.4752 
 105   0.0000       0.166528         4.5314 
 106   0.0000       0.168520         4.5856 
 107   0.0000       0.174751         4.7552 
 108   0.0000       0.177443         4.8285 
 109   0.0000       0.181262         4.9324 
 110   0.0000       0.185069         5.0360 
 111   0.0000       0.194586         5.2950 
 112   0.0000       0.196888         5.3576 
 113   0.0000       0.200453         5.4546 
 114   0.0000       0.206402         5.6165 
 115   0.0000       0.209365         5.6971 
 116   0.0000       0.211563         5.7569 
 117   0.0000       0.213813         5.8182 
 118   0.0000       0.214708         5.8425 
 119   0.0000       0.221215         6.0196 
 120   0.0000       0.223502         6.0818 
 121   0.0000       0.224899         6.1198 
 122   0.0000       0.229119         6.2346 
 123   0.0000       0.233663         6.3583 
 124   0.0000       0.238288         6.4841 
 125   0.0000       0.246461         6.7065 
 126   0.0000       0.246578         6.7097 
 127   0.0000       0.251476         6.8430 
 128   0.0000       0.253738         6.9046 
 129   0.0000       0.255849         6.9620 
 130   0.0000       0.261341         7.1114 
 131   0.0000       0.266565         7.2536 
 132   0.0000       0.270643         7.3646 
 133   0.0000       0.275219         7.4891 
 134   0.0000       0.278999         7.5919 
 135   0.0000       0.280409         7.6303 
 136   0.0000       0.282767         7.6945 
 137   0.0000       0.287397         7.8205 
 138   0.0000       0.288896         7.8613 
 139   0.0000       0.289948         7.8899 
 140   0.0000       0.293790         7.9944 
 141   0.0000       0.299580         8.1520 
 142   0.0000       0.303527         8.2594 
 143   0.0000       0.306077         8.3288 
 144   0.0000       0.308255         8.3880 
 145   0.0000       0.313026         8.5179 
 146   0.0000       0.319762         8.7012 
 147   0.0000       0.322875         8.7859 
 148   0.0000       0.324177         8.8213 
 149   0.0000       0.326004         8.8710 
 150   0.0000       0.331197         9.0123 
 151   0.0000       0.334309         9.0970 
 152   0.0000       0.335762         9.1365 
 153   0.0000       0.337458         9.1827 
 154   0.0000       0.341582         9.2949 
 155   0.0000       0.346523         9.4294 
 156   0.0000       0.350532         9.5385 
 157   0.0000       0.353698         9.6246 
 158   0.0000       0.357056         9.7160 
 159   0.0000       0.362133         9.8542 
 160   0.0000       0.363539         9.8924 
 161   0.0000       0.364497         9.9185 
 162   0.0000       0.368426        10.0254 
 163   0.0000       0.371321        10.1042 
 164   0.0000       0.376389        10.2421 
 165   0.0000       0.377830        10.2813 
 166   0.0000       0.381185        10.3726 
 167   0.0000       0.386285        10.5114 
 168   0.0000       0.389764        10.6060 
 169   0.0000       0.392776        10.6880 
 170   0.0000       0.393932        10.7194 
 171   0.0000       0.395460        10.7610 
 172   0.0000       0.399808        10.8793 
 173   0.0000       0.408662        11.1202 
 174   0.0000       0.410352        11.1662 
 175   0.0000       0.415300        11.3009 
 176   0.0000       0.416615        11.3367 
 177   0.0000       0.418630        11.3915 
 178   0.0000       0.422536        11.4978 
 179   0.0000       0.428697        11.6654 
 180   0.0000       0.432111        11.7583 
 181   0.0000       0.433705        11.8017 
 182   0.0000       0.439215        11.9516 
 183   0.0000       0.443855        12.0779 
 184   0.0000       0.449486        12.2311 
 185   0.0000       0.451581        12.2881 
 186   0.0000       0.456414        12.4197 
 187   0.0000       0.460199        12.5227 
 188   0.0000       0.462888        12.5958 
 189   0.0000       0.464425        12.6376 
 190   0.0000       0.465004        12.6534 
 191   0.0000       0.467335        12.7168 
 192   0.0000       0.473347        12.8804 
 193   0.0000       0.476217        12.9585 
 194   0.0000       0.481365        13.0986 
 195   0.0000       0.483822        13.1655 
 196   0.0000       0.489690        13.3252 
 197   0.0000       0.491431        13.3725 
 198   0.0000       0.495518        13.4837 
 199   0.0000       0.498122        13.5546 
 200   0.0000       0.500319        13.6144 
 201   0.0000       0.506263        13.7761 
 202   0.0000       0.512139        13.9360 
 203   0.0000       0.516661        14.0591 
 204   0.0000       0.517590        14.0843 
 205   0.0000       0.521786        14.1985 
 206   0.0000       0.525797        14.3077 
 207   0.0000       0.527886        14.3645 
 208   0.0000       0.535520        14.5723 
 209   0.0000       0.536073        14.5873 
 210   0.0000       0.540629        14.7113 
 211   0.0000       0.543947        14.8015 
 212   0.0000       0.550865        14.9898 
 213   0.0000       0.552196        15.0260 
 214   0.0000       0.555187        15.1074 
 215   0.0000       0.556873        15.1533 
 216   0.0000       0.560972        15.2648 
 217   0.0000       0.566046        15.4029 
 218   0.0000       0.569830        15.5059 
 219   0.0000       0.570456        15.5229 
 220   0.0000       0.575240        15.6531 
 221   0.0000       0.576627        15.6908 
 222   0.0000       0.586336        15.9550 
 223   0.0000       0.588250        16.0071 
 224   0.0000       0.589797        16.0492 
 225   0.0000       0.596717        16.2375 
 226   0.0000       0.602678        16.3997 
 227   0.0000       0.604839        16.4585 
 228   0.0000       0.605788        16.4843 
 229   0.0000       0.608843        16.5675 
 230   0.0000       0.616870        16.7859 
 231   0.0000       0.619071        16.8458 
 232   0.0000       0.621463        16.9109 
 233   0.0000       0.625919        17.0321 
 234   0.0000       0.634419        17.2634 
 235   0.0000       0.637849        17.3567 
 236   0.0000       0.641487        17.4558 
 237   0.0000       0.647255        17.6127 
 238   0.0000       0.649901        17.6847 
 239   0.0000       0.656006        17.8508 
 240   0.0000       0.660924        17.9847 
 241   0.0000       0.667098        18.1527 
 242   0.0000       0.670245        18.2383 
 243   0.0000       0.673604        18.3297 
 244   0.0000       0.676505        18.4086 
 245   0.0000       0.683133        18.5890 
 246   0.0000       0.687210        18.6999 
 247   0.0000       0.692476        18.8432 
 248   0.0000       0.695708        18.9312 
 249   0.0000       0.698596        19.0098 
 250   0.0000       0.702423        19.1139 
 251   0.0000       0.704691        19.1756 
 252   0.0000       0.706209        19.2169 
 253   0.0000       0.715039        19.4572 
 254   0.0000       0.719597        19.5812 
 255   0.0000       0.724515        19.7150 
 256   0.0000       0.729706        19.8563 
 257   0.0000       0.733396        19.9567 
 258   0.0000       0.740086        20.1388 
 259   0.0000       0.744653        20.2630 
 260   0.0000       0.747784        20.3482 
 261   0.0000       0.760379        20.6910 
 262   0.0000       0.764126        20.7929 
 263   0.0000       0.765935        20.8422 
 264   0.0000       0.771109        20.9829 
 265   0.0000       0.774327        21.0705 
 266   0.0000       0.775160        21.0932 
 267   0.0000       0.784474        21.3466 
 268   0.0000       0.791060        21.5258 
 269   0.0000       0.793023        21.5793 
 270   0.0000       0.795742        21.6533 
 271   0.0000       0.800599        21.7854 
 272   0.0000       0.804991        21.9049 
 273   0.0000       0.815008        22.1775 
 274   0.0000       0.822054        22.3692 
 275   0.0000       0.827363        22.5137 
 276   0.0000       0.837488        22.7892 
 277   0.0000       0.840520        22.8717 
 278   0.0000       0.843528        22.9536 
 279   0.0000       0.849755        23.1230 
 280   0.0000       0.864305        23.5189 
 281   0.0000       0.868608        23.6360 
 282   0.0000       0.874191        23.7879 
 283   0.0000       0.882756        24.0210 
 284   0.0000       0.886973        24.1358 
 285   0.0000       0.898620        24.4527 
 286   0.0000       0.902529        24.5591 
 287   0.0000       0.906932        24.6789 
 288   0.0000       0.917386        24.9633 
 289   0.0000       0.920306        25.0428 
 290   0.0000       0.932808        25.3830 
 291   0.0000       0.938052        25.5257 
 292   0.0000       0.949624        25.8406 
 293   0.0000       0.953594        25.9486 
 294   0.0000       0.962994        26.2044 
 295   0.0000       0.973691        26.4955 
 296   0.0000       0.978885        26.6368 
 297   0.0000       0.988767        26.9057 
 298   0.0000       0.993089        27.0233 
 299   0.0000       0.998044        27.1582 
 300   0.0000       1.003489        27.3063 
 301   0.0000       1.012599        27.5542 
 302   0.0000       1.017415        27.6853 
 303   0.0000       1.027245        27.9528 
 304   0.0000       1.034270        28.1439 
 305   0.0000       1.040010        28.3001 
 306   0.0000       1.044710        28.4280 
 307   0.0000       1.048807        28.5395 
 308   0.0000       1.061451        28.8836 
 309   0.0000       1.062260        28.9056 
 310   0.0000       1.074348        29.2345 
 311   0.0000       1.075794        29.2738 
 312   0.0000       1.080253        29.3952 
 313   0.0000       1.083229        29.4762 
 314   0.0000       1.091747        29.7079 
 315   0.0000       1.099440        29.9173 
 316   0.0000       1.108902        30.1748 
 317   0.0000       1.113079        30.2884 
 318   0.0000       1.130447        30.7610 
 319   0.0000       1.133925        30.8557 
 320   0.0000       1.140273        31.0284 
 321   0.0000       1.146298        31.1923 
 322   0.0000       1.151178        31.3251 
 323   0.0000       1.153350        31.3843 
 324   0.0000       1.160260        31.5723 
 325   0.0000       1.167841        31.7786 
 326   0.0000       1.176363        32.0105 
 327   0.0000       1.180660        32.1274 
 328   0.0000       1.189900        32.3788 
 329   0.0000       1.198402        32.6102 
 330   0.0000       1.201489        32.6942 
 331   0.0000       1.213050        33.0088 
 332   0.0000       1.223457        33.2920 
 333   0.0000       1.232289        33.5323 
 334   0.0000       1.235947        33.6318 
 335   0.0000       1.252144        34.0726 
 336   0.0000       1.260488        34.2996 
 337   0.0000       1.267842        34.4997 
 338   0.0000       1.276510        34.7356 
 339   0.0000       1.283627        34.9293 
 340   0.0000       1.294805        35.2334 
 341   0.0000       1.296079        35.2681 
 342   0.0000       1.303142        35.4603 
 343   0.0000       1.316637        35.8275 
 344   0.0000       1.322078        35.9756 
 345   0.0000       1.340601        36.4796 
 346   0.0000       1.347609        36.6703 
 347   0.0000       1.353905        36.8416 
 348   0.0000       1.368129        37.2287 
 349   0.0000       1.378892        37.5216 
 350   0.0000       1.386344        37.7243 
 351   0.0000       1.395882        37.9839 
 352   0.0000       1.407737        38.3065 
 353   0.0000       1.420426        38.6518 
 354   0.0000       1.427060        38.8323 
 355   0.0000       1.435671        39.0666 
 356   0.0000       1.456757        39.6404 
 357   0.0000       1.473125        40.0858 
 358   0.0000       1.478541        40.2332 
 359   0.0000       1.493718        40.6461 
 360   0.0000       1.507820        41.0299 
 361   0.0000       1.511778        41.1376 
 362   0.0000       1.526717        41.5441 
 363   0.0000       1.527925        41.5770 
 364   0.0000       1.559819        42.4448 
 365   0.0000       1.567768        42.6611 
 366   0.0000       1.580398        43.0048 
 367   0.0000       1.589260        43.2460 
 368   0.0000       1.607031        43.7295 
 369   0.0000       1.614684        43.9378 
 370   0.0000       1.624310        44.1997 
 371   0.0000       1.637079        44.5472 
 372   0.0000       1.652569        44.9687 
 373   0.0000       1.655742        45.0550 
 374   0.0000       1.662550        45.2403 
 375   0.0000       1.675777        45.6002 
 376   0.0000       1.691157        46.0187 
 377   0.0000       1.697226        46.1839 
 378   0.0000       1.703061        46.3427 
 379   0.0000       1.704735        46.3882 
 380   0.0000       1.717649        46.7396 
 381   0.0000       1.736635        47.2562 
 382   0.0000       1.746472        47.5239 
 383   0.0000       1.752594        47.6905 
 384   0.0000       1.764330        48.0099 
 385   0.0000       1.779488        48.4223 
 386   0.0000       1.790318        48.7170 
 387   0.0000       1.794885        48.8413 
 388   0.0000       1.799635        48.9706 
 389   0.0000       1.809399        49.2363 
 390   0.0000       1.811529        49.2942 
 391   0.0000       1.817742        49.4633 
 392   0.0000       1.819419        49.5089 
 393   0.0000       1.827104        49.7180 
 394   0.0000       1.832413        49.8625 
 395   0.0000       1.844000        50.1778 
 396   0.0000       1.850112        50.3441 
 397   0.0000       1.856856        50.5276 
 398   0.0000       1.873305        50.9752 
 399   0.0000       1.892618        51.5008 
 400   0.0000       1.897162        51.6244 
 401   0.0000       1.906677        51.8833 
 402   0.0000       1.917880        52.1882 
 403   0.0000       1.924973        52.3812 
 404   0.0000       1.930081        52.5202 
 405   0.0000       1.938659        52.7536 
 406   0.0000       1.940891        52.8143 
 407   0.0000       1.950219        53.0681 
 408   0.0000       1.965099        53.4731 
 409   0.0000       1.969404        53.5902 
 410   0.0000       1.973227        53.6942 
 411   0.0000       1.979198        53.8567 
 412   0.0000       1.984254        53.9943 
 413   0.0000       1.991029        54.1787 
 414   0.0000       2.001248        54.4567 
 415   0.0000       2.003160        54.5087 
 416   0.0000       2.015775        54.8520 
 417   0.0000       2.020293        54.9750 
 418   0.0000       2.023463        55.0612 
 419   0.0000       2.030877        55.2630 
 420   0.0000       2.035045        55.3764 
 421   0.0000       2.047106        55.7046 
 422   0.0000       2.051088        55.8129 
 423   0.0000       2.055183        55.9244 
 424   0.0000       2.062595        56.1261 
 425   0.0000       2.068056        56.2747 
 426   0.0000       2.072698        56.4010 
 427   0.0000       2.084228        56.7147 
 428   0.0000       2.092328        56.9351 
 429   0.0000       2.095394        57.0186 
 430   0.0000       2.106362        57.3170 
 431   0.0000       2.114802        57.5467 
 432   0.0000       2.116614        57.5960 
 433   0.0000       2.119868        57.6846 
 434   0.0000       2.134501        58.0827 
 435   0.0000       2.139425        58.2167 
 436   0.0000       2.144675        58.3596 
 437   0.0000       2.156943        58.6934 
 438   0.0000       2.164586        58.9014 
 439   0.0000       2.179085        59.2959 
 440   0.0000       2.187498        59.5248 
 441   0.0000       2.206102        60.0311 
 442   0.0000       2.213807        60.2408 
 443   0.0000       2.223185        60.4959 
 444   0.0000       2.232958        60.7619 
 445   0.0000       2.245536        61.1041 
 446   0.0000       2.250909        61.2504 
 447   0.0000       2.280147        62.0460 
 448   0.0000       2.285850        62.2011 
 449   0.0000       2.289606        62.3034 
 450   0.0000       2.297056        62.5061 
 451   0.0000       2.311714        62.9049 
 452   0.0000       2.317919        63.0738 
 453   0.0000       2.324143        63.2431 
 454   0.0000       2.337461        63.6055 
 455   0.0000       2.362721        64.2929 
 456   0.0000       2.375343        64.6364 
 457   0.0000       2.387412        64.9648 
 458   0.0000       2.409652        65.5700 
 459   0.0000       2.416456        65.7551 
 460   0.0000       2.436631        66.3041 
 461   0.0000       2.455552        66.8190 
 462   0.0000       2.467713        67.1499 
 463   0.0000       2.476960        67.4015 
 464   0.0000       2.502403        68.0938 
 465   0.0000       2.504270        68.1446 
 466   0.0000       2.516617        68.4806 
 467   0.0000       2.527709        68.7825 
 468   0.0000       2.536955        69.0341 
 469   0.0000       2.544281        69.2334 
 470   0.0000       2.555582        69.5409 
 471   0.0000       2.563504        69.7565 
 472   0.0000       2.583990        70.3140 
 473   0.0000       2.587521        70.4100 
 474   0.0000       2.599651        70.7401 
 475   0.0000       2.611091        71.0514 
 476   0.0000       2.628842        71.5344 
 477   0.0000       2.641761        71.8860 
 478   0.0000       2.649420        72.0944 
 479   0.0000       2.663745        72.4842 
 480   0.0000       2.669012        72.6275 
 481   0.0000       2.678404        72.8831 
 482   0.0000       2.684513        73.0493 
 483   0.0000       2.690508        73.2124 
 484   0.0000       2.708955        73.7144 
 485   0.0000       2.712957        73.8233 
 486   0.0000       2.718175        73.9653 
 487   0.0000       2.731525        74.3286 
 488   0.0000       2.748076        74.7790 
 489   0.0000       2.771603        75.4192 
 490   0.0000       2.792551        75.9892 
 491   0.0000       2.800784        76.2132 
 492   0.0000       2.826700        76.9184 
 493   0.0000       2.839249        77.2599 
 494   0.0000       2.860971        77.8510 
 495   0.0000       2.865776        77.9817 
 496   0.0000       2.887966        78.5856 
 497   0.0000       2.898319        78.8673 
 498   0.0000       2.920935        79.4827 
 499   0.0000       2.937348        79.9293 
 500   0.0000       2.955703        80.4288 
 501   0.0000       2.961056        80.5744 
 502   0.0000       2.990610        81.3786 
 503   0.0000       2.996833        81.5480 
 504   0.0000       3.003162        81.7202 
 505   0.0000       3.027305        82.3772 
 506   0.0000       3.053485        83.0896 
 507   0.0000       3.056669        83.1762 
 508   0.0000       3.064283        83.3834 
 509   0.0000       3.069794        83.5333 
 510   0.0000       3.086893        83.9986 
 511   0.0000       3.101280        84.3901 
 512   0.0000       3.111277        84.6622 
 513   0.0000       3.120384        84.9100 
 514   0.0000       3.145400        85.5907 
 515   0.0000       3.149611        85.7053 
 516   0.0000       3.164056        86.0984 
 517   0.0000       3.182533        86.6011 
 518   0.0000       3.187310        86.7311 
 519   0.0000       3.191172        86.8362 
 520   0.0000       3.195070        86.9423 
 521   0.0000       3.205547        87.2274 
 522   0.0000       3.219883        87.6175 
 523   0.0000       3.226001        87.7839 
 524   0.0000       3.243143        88.2504 
 525   0.0000       3.251034        88.4651 
 526   0.0000       3.269968        88.9804 
 527   0.0000       3.286917        89.4416 
 528   0.0000       3.288602        89.4874 
 529   0.0000       3.306842        89.9838 
 530   0.0000       3.316638        90.2503 
 531   0.0000       3.333395        90.7063 
 532   0.0000       3.358436        91.3877 
 533   0.0000       3.390005        92.2467 
 534   0.0000       3.491055        94.9964 
 535   0.0000       3.568714        97.1096 
 536   0.0000       3.624072        98.6160 
 537   0.0000       3.678057       100.0850 
 538   0.0000       3.756463       102.2185 
 539   0.0000       3.792132       103.1891 

                    ********************************
                    * MULLIKEN POPULATION ANALYSIS *
                    ********************************

-----------------------
MULLIKEN ATOMIC CHARGES
-----------------------
   0 C :    1.214202
   1 N :    0.212627
   2 C :    0.401160
   3 C :    0.474430
   4 H :   -0.086383
   5 H :   -0.110976
   6 S :    1.361866
   7 C :    1.122103
   8 N :    0.534408
   9 N :    0.252293
  10 H :   -0.084500
  11 H :   -0.255901
  12 H :   -0.928701
  13 H :   -0.371949
  14 H :   -0.210383
  15 O :   -0.831795
  16 O :   -0.800920
  17 C :    0.502002
  18 H :   -0.361178
  19 H :   -0.278050
  20 C :    0.211480
  21 C :    0.432289
  22 H :   -0.038534
  23 H :   -0.615380
  24 H :   -0.198199
  25 H :   -0.023284
  26 C :    0.303730
  27 H :   -0.199685
  28 H :   -0.138500
  29 C :    0.003642
  30 H :   -0.247992
  31 H :   -0.205521
  32 C :    0.834159
  33 H :   -0.454020
  34 H :    0.094055
  35 H :    0.029991
  36 H :   -0.450613
  37 H :   -0.126299
  38 H :   -0.089442
  39 O :   -0.876232
Sum of atomic charges:    0.0000000

--------------------------------
MULLIKEN REDUCED ORBITAL CHARGES
--------------------------------
  0 C s       :     2.478524  s :     2.478524
      pz      :     0.824365  p :     2.318976
      px      :     0.933293
      py      :     0.561318
      dz2     :     0.000380  d :    -0.011702
      dxz     :     0.095525
      dyz     :    -0.173693
      dx2y2   :     0.033174
      dxy     :     0.032912
  1 N s       :     2.969817  s :     2.969817
      pz      :     1.059834  p :     3.586083
      px      :     1.466388
      py      :     1.059861
      dz2     :     0.065951  d :     0.231472
      dxz     :     0.058602
      dyz     :     0.076779
      dx2y2   :     0.016675
      dxy     :     0.013466
  2 C s       :     2.626861  s :     2.626861
      pz      :     0.975416  p :     2.565524
      px      :     0.863540
      py      :     0.726568
      dz2     :     0.038296  d :     0.406454
      dxz     :     0.261648
      dyz     :     0.062525
      dx2y2   :     0.033468
      dxy     :     0.010518
  3 C s       :     2.619802  s :     2.619802
      pz      :     0.843107  p :     2.694630
      px      :     1.004635
      py      :     0.846888
      dz2     :     0.100524  d :     0.211138
      dxz     :     0.037397
      dyz     :    -0.058186
      dx2y2   :     0.051870
      dxy     :     0.079533
  4 H s       :     1.081837  s :     1.081837
      pz      :    -0.035962  p :     0.004546
      px      :     0.017449
      py      :     0.023058
  5 H s       :     1.085204  s :     1.085204
      pz      :     0.041095  p :     0.025772
      px      :    -0.024341
      py      :     0.009019
  6 S s       :     4.910543  s :     4.910543
      pz      :     2.866396  p :     8.840051
      px      :     2.876771
      py      :     3.096884
      dz2     :     0.201255  d :     0.887539
      dxz     :     0.172000
      dyz     :     0.179981
      dx2y2   :     0.182240
      dxy     :     0.152064
  7 C s       :     3.145988  s :     3.145988
      pz      :     0.736421  p :     2.112417
      px      :     0.665884
      py      :     0.710112
      dz2     :    -0.163578  d :    -0.380508
      dxz     :    -0.013222
      dyz     :    -0.167131
      dx2y2   :    -0.017113
      dxy     :    -0.019464
  8 N s       :     2.950946  s :     2.950946
      pz      :     0.906066  p :     3.550101
      px      :     1.572021
      py      :     1.072014
      dz2     :     0.000820  d :    -0.035455
      dxz     :     0.013944
      dyz     :    -0.051021
      dx2y2   :    -0.003817
      dxy     :     0.004619
  9 N s       :     3.199212  s :     3.199212
      pz      :     1.011067  p :     3.595304
      px      :     1.579270
      py      :     1.004966
      dz2     :    -0.023237  d :    -0.046809
      dxz     :     0.006732
      dyz     :    -0.043673
      dx2y2   :     0.000619
      dxy     :     0.012752
 10 H s       :     1.058522  s :     1.058522
      pz      :    -0.021697  p :     0.025978
      px      :     0.035060
      py      :     0.012615
 11 H s       :     1.220387  s :     1.220387
      pz      :    -0.037203  p :     0.035515
      px      :     0.059466
      py      :     0.013251
 12 H s       :     1.800384  s :     1.800384
      pz      :    -0.057711  p :     0.128317
      px      :     0.122010
      py      :     0.064019
 13 H s       :     1.279899  s :     1.279899
      pz      :     0.014112  p :     0.092050
      px      :     0.069948
      py      :     0.007990
 14 H s       :     1.203532  s :     1.203532
      pz      :    -0.004291  p :     0.006851
      px      :     0.059438
      py      :    -0.048296
 15 O s       :     3.962269  s :     3.962269
      pz      :     1.750687  p :     4.882427
      px      :     1.497883
      py      :     1.633858
      dz2     :    -0.000619  d :    -0.012901
      dxz     :     0.003057
      dyz     :    -0.000547
      dx2y2   :    -0.013243
      dxy     :    -0.001549
 16 O s       :     3.974094  s :     3.974094
      pz      :     1.643998  p :     4.811045
      px      :     1.383226
      py      :     1.783821
      dz2     :     0.001809  d :     0.015781
      dxz     :     0.002591
      dyz     :     0.004103
      dx2y2   :     0.004422
      dxy     :     0.002856
 17 C s       :     2.666644  s :     2.666644
      pz      :     0.735572  p :     2.492384
      px      :     0.891604
      py      :     0.865208
      dz2     :     0.102815  d :     0.338971
      dxz     :     0.026241
      dyz     :     0.063648
      dx2y2   :     0.061659
      dxy     :     0.084606
 18 H s       :     1.325250  s :     1.325250
      pz      :     0.058919  p :     0.035928
      px      :     0.001847
      py      :    -0.024837
 19 H s       :     1.281599  s :     1.281599
      pz      :     0.046809  p :    -0.003549
      px      :    -0.037911
      py      :    -0.012447
 20 C s       :     2.726505  s :     2.726505
      pz      :     0.901377  p :     2.547853
      px      :     0.962399
      py      :     0.684077
      dz2     :     0.085753  d :     0.514163
      dxz     :     0.230809
      dyz     :     0.044702
      dx2y2   :     0.029897
      dxy     :     0.123002
 21 C s       :     2.308137  s :     2.308137
      pz      :     0.820977  p :     2.636149
      px      :     0.867280
      py      :     0.947892
      dz2     :     0.069198  d :     0.623425
      dxz     :     0.191939
      dyz     :     0.162650
      dx2y2   :     0.020907
      dxy     :     0.178730
 22 H s       :     1.022738  s :     1.022738
      pz      :    -0.005021  p :     0.015796
      px      :     0.005501
      py      :     0.015316
 23 H s       :     1.474459  s :     1.474459
      pz      :     0.006205  p :     0.140921
      px      :    -0.079982
      py      :     0.214698
 24 H s       :     1.226620  s :     1.226620
      pz      :    -0.020713  p :    -0.028422
      px      :    -0.030484
      py      :     0.022776
 25 H s       :     0.999238  s :     0.999238
      pz      :     0.009879  p :     0.024045
      px      :     0.032620
      py      :    -0.018454
 26 C s       :     2.631270  s :     2.631270
      pz      :     0.900979  p :     2.581218
      px      :     0.755173
      py      :     0.925067
      dz2     :     0.166559  d :     0.483782
      dxz     :     0.019283
      dyz     :     0.054059
      dx2y2   :     0.206317
      dxy     :     0.037564
 27 H s       :     1.206350  s :     1.206350
      pz      :     0.050150  p :    -0.006664
      px      :    -0.023769
      py      :    -0.033045
 28 H s       :     1.150436  s :     1.150436
      pz      :    -0.044448  p :    -0.011936
      px      :     0.009414
      py      :     0.023097
 29 C s       :     2.802610  s :     2.802610
      pz      :     0.747927  p :     2.623839
      px      :     0.925826
      py      :     0.950086
      dz2     :     0.233638  d :     0.569909
      dxz     :     0.004972
      dyz     :    -0.002307
      dx2y2   :     0.232307
      dxy     :     0.101300
 30 H s       :     1.253859  s :     1.253859
      pz      :    -0.038165  p :    -0.005866
      px      :     0.053351
      py      :    -0.021052
 31 H s       :     1.177584  s :     1.177584
      pz      :     0.077004  p :     0.027937
      px      :    -0.024450
      py      :    -0.024617
 32 C s       :     2.420177  s :     2.420177
      pz      :     0.939315  p :     2.512156
      px      :     0.707269
      py      :     0.865571
      dz2     :     0.026431  d :     0.233509
      dxz     :     0.058565
      dyz     :     0.118735
      dx2y2   :     0.042763
      dxy     :    -0.012984
 33 H s       :     1.431006  s :     1.431006
      pz      :     0.069642  p :     0.023014
      px      :    -0.032242
      py      :    -0.014386
 34 H s       :     0.890194  s :     0.890194
      pz      :    -0.006888  p :     0.015751
      px      :     0.061164
      py      :    -0.038525
 35 H s       :     0.959400  s :     0.959400
      pz      :     0.003321  p :     0.010609
      px      :     0.023418
      py      :    -0.016130
 36 H s       :     1.449317  s :     1.449317
      pz      :    -0.024101  p :     0.001296
      px      :    -0.009561
      py      :     0.034958
 37 H s       :     1.157198  s :     1.157198
      pz      :    -0.001719  p :    -0.030899
      px      :    -0.047643
      py      :     0.018462
 38 H s       :     1.112313  s :     1.112313
      pz      :    -0.027378  p :    -0.022871
      px      :     0.027112
      py      :    -0.022605
 39 O s       :     3.969523  s :     3.969523
      pz      :     1.304063  p :     4.902397
      px      :     1.804716
      py      :     1.793618
      dz2     :     0.006006  d :     0.004311
      dxz     :    -0.003134
      dyz     :    -0.003463
      dx2y2   :     0.002262
      dxy     :     0.002640


                     *******************************
                     * LOEWDIN POPULATION ANALYSIS *
                     *******************************

----------------------
LOEWDIN ATOMIC CHARGES
----------------------
   0 C :    0.085214
   1 N :    0.085149
   2 C :   -0.031876
   3 C :   -0.057908
   4 H :    0.022243
   5 H :    0.017271
   6 S :    0.962257
   7 C :   -0.029892
   8 N :    0.293165
   9 N :    0.257663
  10 H :   -0.003900
  11 H :    0.013311
  12 H :   -0.082931
  13 H :   -0.104227
  14 H :    0.025319
  15 O :   -0.528016
  16 O :   -0.511428
  17 C :   -0.011983
  18 H :    0.029943
  19 H :    0.014416
  20 C :   -0.032478
  21 C :   -0.024876
  22 H :    0.036760
  23 H :   -0.022302
  24 H :    0.024725
  25 H :    0.018909
  26 C :   -0.022688
  27 H :    0.024148
  28 H :    0.005812
  29 C :   -0.030479
  30 H :    0.026316
  31 H :    0.009257
  32 C :   -0.023990
  33 H :    0.020132
  34 H :    0.006546
  35 H :    0.013128
  36 H :    0.020381
  37 H :    0.020039
  38 H :    0.017615
  39 O :   -0.530744

-------------------------------
LOEWDIN REDUCED ORBITAL CHARGES
-------------------------------
  0 C s       :     2.659309  s :     2.659309
      pz      :     0.772826  p :     2.577587
      px      :     0.909349
      py      :     0.895412
      dz2     :     0.160649  d :     0.677889
      dxz     :     0.180232
      dyz     :     0.112495
      dx2y2   :     0.095316
      dxy     :     0.129197
  1 N s       :     2.896072  s :     2.896072
      pz      :     1.057570  p :     3.429868
      px      :     1.259515
      py      :     1.112783
      dz2     :     0.157297  d :     0.588911
      dxz     :     0.124461
      dyz     :     0.181058
      dx2y2   :     0.054749
      dxy     :     0.071346
  2 C s       :     2.677250  s :     2.677250
      pz      :     0.893571  p :     2.679737
      px      :     0.882151
      py      :     0.904015
      dz2     :     0.151717  d :     0.674889
      dxz     :     0.178750
      dyz     :     0.128905
      dx2y2   :     0.108484
      dxy     :     0.107033
  3 C s       :     2.713147  s :     2.713147
      pz      :     0.933465  p :     2.720684
      px      :     0.923854
      py      :     0.863365
      dz2     :     0.127899  d :     0.624078
      dxz     :     0.100005
      dyz     :     0.079964
      dx2y2   :     0.140692
      dxy     :     0.175517
  4 H s       :     0.720621  s :     0.720621
      pz      :     0.085014  p :     0.257136
      px      :     0.089814
      py      :     0.082309
  5 H s       :     0.720819  s :     0.720819
      pz      :     0.126560  p :     0.261910
      px      :     0.064802
      py      :     0.070548
  6 S s       :     4.657614  s :     4.657614
      pz      :     2.801966  p :     8.439670
      px      :     2.814281
      py      :     2.823423
      dz2     :     0.448914  d :     1.940460
      dxz     :     0.434432
      dyz     :     0.303435
      dx2y2   :     0.393797
      dxy     :     0.359882
  7 C s       :     2.605937  s :     2.605937
      pz      :     0.875011  p :     2.397321
      px      :     0.683081
      py      :     0.839229
      dz2     :     0.231417  d :     1.026634
      dxz     :     0.213002
      dyz     :     0.257778
      dx2y2   :     0.157870
      dxy     :     0.166568
  8 N s       :     2.919219  s :     2.919219
      pz      :     1.042306  p :     3.470229
      px      :     1.332424
      py      :     1.095500
      dz2     :     0.087651  d :     0.317387
      dxz     :     0.061850
      dyz     :     0.122786
      dx2y2   :     0.032845
      dxy     :     0.012256
  9 N s       :     2.935692  s :     2.935692
      pz      :     1.063102  p :     3.503471
      px      :     1.366113
      py      :     1.074256
      dz2     :     0.068019  d :     0.303174
      dxz     :     0.027412
      dyz     :     0.094022
      dx2y2   :     0.057929
      dxy     :     0.055793
 10 H s       :     0.641058  s :     0.641058
      pz      :     0.157534  p :     0.362842
      px      :     0.118320
      py      :     0.086987
 11 H s       :     0.654866  s :     0.654866
      pz      :     0.100388  p :     0.331824
      px      :     0.112167
      py      :     0.119269
 12 H s       :     0.578124  s :     0.578124
      pz      :     0.123141  p :     0.504808
      px      :     0.165830
      py      :     0.215836
 13 H s       :     0.585066  s :     0.585066
      pz      :     0.116321  p :     0.519160
      px      :     0.121785
      py      :     0.281055
 14 H s       :     0.654525  s :     0.654525
      pz      :     0.090700  p :     0.320156
      px      :     0.110508
      py      :     0.118948
 15 O s       :     3.498570  s :     3.498570
      pz      :     1.649016  p :     4.733178
      px      :     1.526057
      py      :     1.558105
      dz2     :     0.050771  d :     0.296268
      dxz     :     0.054169
      dyz     :     0.038805
      dx2y2   :     0.087276
      dxy     :     0.065247
 16 O s       :     3.551435  s :     3.551435
      pz      :     1.591470  p :     4.713583
      px      :     1.489418
      py      :     1.632696
      dz2     :     0.051651  d :     0.246410
      dxz     :     0.065684
      dyz     :     0.019613
      dx2y2   :     0.052455
      dxy     :     0.057008
 17 C s       :     2.692468  s :     2.692468
      pz      :     0.898452  p :     2.673672
      px      :     0.876534
      py      :     0.898687
      dz2     :     0.154027  d :     0.645843
      dxz     :     0.072774
      dyz     :     0.085210
      dx2y2   :     0.147284
      dxy     :     0.186548
 18 H s       :     0.712559  s :     0.712559
      pz      :     0.057486  p :     0.257498
      px      :     0.079702
      py      :     0.120309
 19 H s       :     0.733077  s :     0.733077
      pz      :     0.064776  p :     0.252507
      px      :     0.071000
      py      :     0.116731
 20 C s       :     2.684110  s :     2.684110
      pz      :     0.878036  p :     2.670379
      px      :     0.897057
      py      :     0.895286
      dz2     :     0.159517  d :     0.677990
      dxz     :     0.172184
      dyz     :     0.115479
      dx2y2   :     0.093808
      dxy     :     0.137003
 21 C s       :     2.673190  s :     2.673190
      pz      :     0.873008  p :     2.663012
      px      :     0.883416
      py      :     0.906587
      dz2     :     0.160295  d :     0.688674
      dxz     :     0.164586
      dyz     :     0.132925
      dx2y2   :     0.086984
      dxy     :     0.143885
 22 H s       :     0.725416  s :     0.725416
      pz      :     0.068381  p :     0.237824
      px      :     0.075846
      py      :     0.093596
 23 H s       :     0.694185  s :     0.694185
      pz      :     0.088120  p :     0.328117
      px      :     0.098531
      py      :     0.141466
 24 H s       :     0.728838  s :     0.728838
      pz      :     0.065117  p :     0.246436
      px      :     0.066872
      py      :     0.114447
 25 H s       :     0.708735  s :     0.708735
      pz      :     0.070850  p :     0.272356
      px      :     0.090345
      py      :     0.111161
 26 C s       :     2.682148  s :     2.682148
      pz      :     0.906270  p :     2.668948
      px      :     0.893563
      py      :     0.869116
      dz2     :     0.168218  d :     0.671592
      dxz     :     0.044434
      dyz     :     0.141824
      dx2y2   :     0.189981
      dxy     :     0.127135
 27 H s       :     0.725775  s :     0.725775
      pz      :     0.123967  p :     0.250078
      px      :     0.058912
      py      :     0.067199
 28 H s       :     0.730448  s :     0.730448
      pz      :     0.080027  p :     0.263741
      px      :     0.078908
      py      :     0.104805
 29 C s       :     2.682483  s :     2.682483
      pz      :     0.889234  p :     2.667009
      px      :     0.901775
      py      :     0.876000
      dz2     :     0.173341  d :     0.680987
      dxz     :     0.046185
      dyz     :     0.126582
      dx2y2   :     0.192795
      dxy     :     0.142084
 30 H s       :     0.728398  s :     0.728398
      pz      :     0.065466  p :     0.245286
      px      :     0.120004
      py      :     0.059817
 31 H s       :     0.710984  s :     0.710984
      pz      :     0.124154  p :     0.279759
      px      :     0.079900
      py      :     0.075705
 32 C s       :     2.687189  s :     2.687189
      pz      :     0.893074  p :     2.675342
      px      :     0.896419
      py      :     0.885848
      dz2     :     0.150945  d :     0.661460
      dxz     :     0.112426
      dyz     :     0.186428
      dx2y2   :     0.123105
      dxy     :     0.088554
 33 H s       :     0.731921  s :     0.731921
      pz      :     0.119438  p :     0.247948
      px      :     0.067084
      py      :     0.061425
 34 H s       :     0.712928  s :     0.712928
      pz      :     0.084873  p :     0.280525
      px      :     0.125096
      py      :     0.070556
 35 H s       :     0.719836  s :     0.719836
      pz      :     0.077949  p :     0.267036
      px      :     0.077915
      py      :     0.111172
 36 H s       :     0.733237  s :     0.733237
      pz      :     0.064538  p :     0.246383
      px      :     0.068604
      py      :     0.113240
 37 H s       :     0.730407  s :     0.730407
      pz      :     0.072562  p :     0.249554
      px      :     0.081258
      py      :     0.095734
 38 H s       :     0.732387  s :     0.732387
      pz      :     0.064154  p :     0.249998
      px      :     0.121089
      py      :     0.064755
 39 O s       :     3.496217  s :     3.496217
      pz      :     1.424892  p :     4.731467
      px      :     1.677326
      py      :     1.629249
      dz2     :     0.090638  d :     0.303059
      dxz     :     0.081576
      dyz     :     0.076751
      dx2y2   :     0.016958
      dxy     :     0.037136


                      *****************************
                      * MAYER POPULATION ANALYSIS *
                      *****************************

  NA   - Mulliken gross atomic population
  ZA   - Total nuclear charge
  QA   - Mulliken gross atomic charge
  VA   - Mayer's total valence
  BVA  - Mayer's bonded valence
  FA   - Mayer's free valence

  ATOM       NA         ZA         QA         VA         BVA        FA
  0 C      4.7858     6.0000     1.2142     3.2556     3.2556     0.0000
  1 N      6.7874     7.0000     0.2126     4.0634     4.0634     0.0000
  2 C      5.5988     6.0000     0.4012     4.6300     4.6300    -0.0000
  3 C      5.5256     6.0000     0.4744     4.1966     4.1966    -0.0000
  4 H      1.0864     1.0000    -0.0864     0.9507     0.9507    -0.0000
  5 H      1.1110     1.0000    -0.1110     1.0563     1.0563    -0.0000
  6 S     14.6381    16.0000     1.3619     4.8728     4.8728    -0.0000
  7 C      4.8779     6.0000     1.1221     1.7457     1.7457     0.0000
  8 N      6.4656     7.0000     0.5344     3.5516     3.5516     0.0000
  9 N      6.7477     7.0000     0.2523     3.6629     3.6629     0.0000
 10 H      1.0845     1.0000    -0.0845     0.8917     0.8917     0.0000
 11 H      1.2559     1.0000    -0.2559     0.8736     0.8736     0.0000
 12 H      1.9287     1.0000    -0.9287     0.2920     0.2920     0.0000
 13 H      1.3719     1.0000    -0.3719     0.9735     0.9735     0.0000
 14 H      1.2104     1.0000    -0.2104     0.8041     0.8041    -0.0000
 15 O      8.8318     8.0000    -0.8318     1.3962     1.3962    -0.0000
 16 O      8.8009     8.0000    -0.8009     1.5417     1.5417    -0.0000
 17 C      5.4980     6.0000     0.5020     4.4298     4.4298     0.0000
 18 H      1.3612     1.0000    -0.3612     0.8974     0.8974     0.0000
 19 H      1.2780     1.0000    -0.2780     0.8155     0.8155     0.0000
 20 C      5.7885     6.0000     0.2115     4.8981     4.8981     0.0000
 21 C      5.5677     6.0000     0.4323     4.6144     4.6144    -0.0000
 22 H      1.0385     1.0000    -0.0385     0.9664     0.9664    -0.0000
 23 H      1.6154     1.0000    -0.6154     1.1406     1.1406    -0.0000
 24 H      1.1982     1.0000    -0.1982     0.9094     0.9094    -0.0000
 25 H      1.0233     1.0000    -0.0233     1.0380     1.0380    -0.0000
 26 C      5.6963     6.0000     0.3037     4.7671     4.7671     0.0000
 27 H      1.1997     1.0000    -0.1997     0.9764     0.9764     0.0000
 28 H      1.1385     1.0000    -0.1385     0.8872     0.8872     0.0000
 29 C      5.9964     6.0000     0.0036     5.1034     5.1034     0.0000
 30 H      1.2480     1.0000    -0.2480     0.9456     0.9456     0.0000
 31 H      1.2055     1.0000    -0.2055     1.1086     1.1086     0.0000
 32 C      5.1658     6.0000     0.8342     3.8033     3.8033     0.0000
 33 H      1.4540     1.0000    -0.4540     1.0188     1.0188    -0.0000
 34 H      0.9059     1.0000     0.0941     1.0256     1.0256     0.0000
 35 H      0.9700     1.0000     0.0300     1.0081     1.0081     0.0000
 36 H      1.4506     1.0000    -0.4506     0.9394     0.9394    -0.0000
 37 H      1.1263     1.0000    -0.1263     0.9002     0.9002     0.0000
 38 H      1.0894     1.0000    -0.0894     0.9217     0.9217     0.0000
 39 O      8.8762     8.0000    -0.8762     1.4653     1.4653     0.0000

  Mayer bond orders larger than 0.100000
B(  0-C ,  1-N ) :   0.9404 B(  0-C , 12-H ) :  -0.4462 B(  0-C , 17-C ) :   1.0929 
B(  0-C , 18-H ) :   0.5804 B(  0-C , 19-H ) :   0.7874 B(  0-C , 26-C ) :   0.1460 
B(  0-C , 27-H ) :   0.1220 B(  0-C , 28-H ) :   0.1034 B(  1-N ,  7-C ) :   1.2546 
B(  1-N ,  8-N ) :   0.1020 B(  1-N ,  9-N ) :   0.2336 B(  1-N , 12-H ) :   1.0183 
B(  1-N , 13-H ) :   0.1642 B(  1-N , 14-H ) :  -0.1146 B(  1-N , 18-H ) :   0.3012 
B(  2-C ,  3-C ) :   1.2021 B(  2-C ,  5-H ) :   0.2927 B(  2-C , 20-C ) :   0.1392 
B(  2-C , 21-C ) :   1.1334 B(  2-C , 22-H ) :   0.1174 B(  2-C , 24-H ) :   0.7283 
B(  2-C , 25-H ) :   0.8117 B(  3-C ,  4-H ) :   0.8679 B(  3-C ,  5-H ) :   0.6635 
B(  3-C ,  6-S ) :   0.9761 B(  3-C , 16-O ) :   0.1173 B(  3-C , 21-C ) :   0.1378 
B(  3-C , 25-H ) :   0.1157 B(  5-H ,  6-S ) :   0.1123 B(  6-S , 15-O ) :   1.1074 
B(  6-S , 16-O ) :   1.3049 B(  6-S , 39-O ) :   1.1412 B(  7-C ,  8-N ) :   0.9590 
B(  7-C ,  9-N ) :   0.9302 B(  7-C , 10-H ) :  -0.1253 B(  7-C , 12-H ) :  -0.6706 
B(  7-C , 13-H ) :  -0.2982 B(  7-C , 14-H ) :  -0.1290 B(  8-N ,  9-N ) :   0.1172 
B(  8-N , 13-H ) :   1.1185 B(  8-N , 14-H ) :   1.2590 B(  9-N , 10-H ) :   1.1071 
B(  9-N , 11-H ) :   1.2250 B( 10-H , 11-H ) :  -0.2085 B( 12-H , 39-O ) :   0.2130 
B( 13-H , 14-H ) :  -0.2715 B( 13-H , 15-O ) :   0.2171 B( 16-O , 39-O ) :   0.1017 
B( 17-C , 18-H ) :   0.1079 B( 17-C , 19-H ) :   0.1307 B( 17-C , 26-C ) :   1.2003 
B( 17-C , 27-H ) :   0.8630 B( 17-C , 28-H ) :   0.6465 B( 17-C , 31-H ) :   0.1082 
B( 18-H , 19-H ) :  -0.2109 B( 20-C , 21-C ) :   1.1915 B( 20-C , 22-H ) :   0.1257 
B( 20-C , 23-H ) :   0.1249 B( 20-C , 29-C ) :   0.1603 B( 20-C , 32-C ) :   1.1136 
B( 20-C , 35-H ) :   0.8342 B( 20-C , 36-H ) :   0.8423 B( 20-C , 37-H ) :   0.1222 
B( 20-C , 38-H ) :   0.2570 B( 21-C , 22-H ) :   0.6561 B( 21-C , 23-H ) :   0.6704 
B( 21-C , 24-H ) :   0.2029 B( 21-C , 25-H ) :   0.1158 B( 21-C , 35-H ) :   0.1197 
B( 21-C , 36-H ) :   0.2056 B( 22-H , 23-H ) :   0.1943 B( 23-H , 34-H ) :   0.1179 
B( 26-C , 27-H ) :   0.1096 B( 26-C , 28-H ) :   0.2443 B( 26-C , 29-C ) :   1.2222 
B( 26-C , 30-H ) :   0.8065 B( 26-C , 31-H ) :   0.8398 B( 26-C , 33-H ) :   0.1480 
B( 26-C , 34-H ) :   0.1216 B( 27-H , 28-H ) :  -0.1238 B( 29-C , 30-H ) :   0.1635 
B( 29-C , 31-H ) :   0.1427 B( 29-C , 32-C ) :   1.1158 B( 29-C , 33-H ) :   0.9347 
B( 29-C , 34-H ) :   0.8162 B( 29-C , 37-H ) :   0.3360 B( 29-C , 38-H ) :   0.1485 
B( 32-C , 37-H ) :   0.5824 B( 32-C , 38-H ) :   0.6276 B( 37-H , 38-H ) :  -0.1354 


-------
TIMINGS
-------

Total SCF time: 0 days 0 hours 4 min 24 sec 

Total time                  ....     264.306 sec
Sum of individual times     ....     263.422 sec  ( 99.7%)

Fock matrix formation       ....     255.034 sec  ( 96.5%)
  Split-RI-J                ....      18.963 sec  (  7.4% of F)
  Chain of spheres X        ....     204.248 sec  ( 80.1% of F)
  XC integration            ....      31.535 sec  ( 12.4% of F)
    Basis function eval.    ....       8.318 sec  ( 26.4% of XC)
    Density eval.           ....      11.067 sec  ( 35.1% of XC)
    XC-Functional eval.     ....       0.660 sec  (  2.1% of XC)
    XC-Potential eval.      ....      10.119 sec  ( 32.1% of XC)
Diagonalization             ....       0.705 sec  (  0.3%)
Density matrix formation    ....       0.059 sec  (  0.0%)
Population analysis         ....       0.089 sec  (  0.0%)
Initial guess               ....       1.497 sec  (  0.6%)
Orbital Transformation      ....       0.000 sec  (  0.0%)
Orbital Orthonormalization  ....       0.000 sec  (  0.0%)
DIIS solution               ....       0.393 sec  (  0.1%)
SOSCF solution              ....       0.535 sec  (  0.2%)
Grid generation             ....       5.109 sec  (  1.9%)

Maximum memory used throughout the entire SCF-calculation: 113.5 MB


-------------------------------------------------------------------------------
                          DFT DISPERSION CORRECTION                            
                                                                               
                              DFTD3 V3.1  Rev 1                                
                          USING Becke-Johnson damping                          
-------------------------------------------------------------------------------
The B3LYP functional is recognized
Active option DFTDOPT                   ...         4   

molecular C6(AA) [au] = 13752.670656 


            DFT-D V3
 parameters
 s6 scaling factor         :     1.0000 
 a1 scaling factor         :     0.3981 
 s8 scaling factor         :     1.9889 
 a2 scaling factor         :     4.4211 
 ad hoc parameters k1-k3   :    16.0000     1.3333    -4.0000 

 Edisp/kcal,au: -49.886613041284  -0.079499369781 
 E6   /kcal   : -24.613688224 
 E8   /kcal   : -25.272924817 
 % E8         :  50.660734968 

-------------------------   ----------------
Dispersion correction           -0.079499370
-------------------------   ----------------


-------------------------   --------------------
FINAL SINGLE POINT ENERGY     -1181.955465594795
-------------------------   --------------------


                            ***************************************
                            *     ORCA property calculations      *
                            ***************************************

                                    ---------------------
                                    Active property flags
                                    ---------------------
   (+) Dipole Moment


------------------------------------------------------------------------------
                       ORCA ELECTRIC PROPERTIES CALCULATION
------------------------------------------------------------------------------

Dipole Moment Calculation                       ... on
Quadrupole Moment Calculation                   ... off
Polarizability Calculation                      ... off
GBWName                                         ... 28Oct_SVPD_B3LYP_B_wt_wb97.gbw
Electron density file                           ... 28Oct_SVPD_B3LYP_B_wt_wb97.scfp
The origin for moment calculation is the CENTER OF MASS  = ( 8.583389, -1.026468 -8.818666)

-------------
DIPOLE MOMENT
-------------
                                X             Y             Z
Electronic contribution:    -14.49247       8.28332     -15.30671
Nuclear contribution   :     16.79156      -5.47215      17.54258
                        -----------------------------------------
Total Dipole Moment    :      2.29910       2.81117       2.23587
                        -----------------------------------------
Magnitude (a.u.)       :      4.26470
Magnitude (Debye)      :     10.84000



--------------------
Rotational spectrum 
--------------------
 
Rotational constants in cm-1:     0.014207     0.012373     0.007472 
Rotational constants in MHz :   425.900436   370.942493   224.006604 

 Dipole components along the rotational axes: 
x,y,z [a.u.] :     3.989748    -1.270369    -0.809761 
x,y,z [Debye]:    10.141133    -3.229022    -2.058249 

 

Timings for individual modules:

Sum of individual times         ...      265.665 sec (=   4.428 min)
GTO integral calculation        ...        0.974 sec (=   0.016 min)   0.4 %
SCF iterations                  ...      264.691 sec (=   4.412 min)  99.6 %
                             ****ORCA TERMINATED NORMALLY****
TOTAL RUN TIME: 0 days 0 hours 4 minutes 26 seconds 335 msec
