
                                        *****************
                                        * O   R   C   A *
                                        *****************

                                            #,                                       
                                            ###                                      
                                            ####                                     
                                            #####                                    
                                            ######                                   
                                           ########,                                 
                                     ,,################,,,,,                         
                               ,,#################################,,                 
                          ,,##########################################,,             
                       ,#########################################, ''#####,          
                    ,#############################################,,   '####,        
                  ,##################################################,,,,####,       
                ,###########''''           ''''###############################       
              ,#####''   ,,,,##########,,,,          '''####'''          '####       
            ,##' ,,,,###########################,,,                        '##       
           ' ,,###''''                  '''############,,,                           
         ,,##''                                '''############,,,,        ,,,,,,###''
      ,#''                                            '''#######################'''  
     '                                                          ''''####''''         
             ,#######,   #######,   ,#######,      ##                                
            ,#'     '#,  ##    ##  ,#'     '#,    #''#        ######   ,####,        
            ##       ##  ##   ,#'  ##            #'  '#       #        #'  '#        
            ##       ##  #######   ##           ,######,      #####,   #    #        
            '#,     ,#'  ##    ##  '#,     ,#' ,#      #,         ##   #,  ,#        
             '#######'   ##     ##  '#######'  #'      '#     #####' # '####'        



                  #######################################################
                  #                        -***-                        #
                  #          Department of theory and spectroscopy      #
                  #    Directorship and core code : Frank Neese         #
                  #        Max Planck Institute fuer Kohlenforschung    #
                  #                Kaiser Wilhelm Platz 1               #
                  #                 D-45470 Muelheim/Ruhr               #
                  #                      Germany                        #
                  #                                                     #
                  #                  All rights reserved                #
                  #                        -***-                        #
                  #######################################################


                         Program Version 5.0.0 -  RELEASE  -
                                (SVN: $Rev: 19529$)
                ($Date: 2021-06-28 11:36:33 +0200 (Mo, 28 Jun 2021) $)


 With contributions from (in alphabetic order):
   Daniel Aravena         : Magnetic Suceptibility
   Michael Atanasov       : Ab Initio Ligand Field Theory (pilot matlab implementation)
   Alexander A. Auer      : GIAO ZORA, VPT2 properties, NMR spectrum
   Ute Becker             : Parallelization
   Giovanni Bistoni       : ED, misc. LED, open-shell LED, HFLD
   Martin Brehm           : Molecular dynamics
   Dmytro Bykov           : SCF Hessian
   Vijay G. Chilkuri      : MRCI spin determinant printing, contributions to CSF-ICE
   Dipayan Datta          : RHF DLPNO-CCSD density
   Achintya Kumar Dutta   : EOM-CC, STEOM-CC
   Dmitry Ganyushin       : Spin-Orbit,Spin-Spin,Magnetic field MRCI
   Miquel Garcia          : C-PCM Hessian, Gaussian charge scheme
   Yang Guo               : DLPNO-NEVPT2, F12-NEVPT2, CIM, IAO-localization
   Andreas Hansen         : Spin unrestricted coupled pair/coupled cluster methods
   Benjamin Helmich-Paris : MC-RPA, TRAH-SCF, COSX integrals
   Lee Huntington         : MR-EOM, pCC
   Robert Izsak           : Overlap fitted RIJCOSX, COSX-SCS-MP3, EOM
   Marcus Kettner         : VPT2
   Christian Kollmar      : KDIIS, OOCD, Brueckner-CCSD(T), CCSD density, CASPT2, CASPT2-K
   Simone Kossmann        : Meta GGA functionals, TD-DFT gradient, OOMP2, MP2 Hessian
   Martin Krupicka        : Initial AUTO-CI
   Lucas Lang             : DCDCAS
   Marvin Lechner         : AUTO-CI (C++ implementation), FIC-MRCC
   Dagmar Lenk            : GEPOL surface, SMD
   Dimitrios Liakos       : Extrapolation schemes; Compound Job, initial MDCI parallelization
   Dimitrios Manganas     : Further ROCIS development; embedding schemes
   Dimitrios Pantazis     : SARC Basis sets
   Anastasios Papadopoulos: AUTO-CI, single reference methods and gradients
   Taras Petrenko         : DFT Hessian,TD-DFT gradient, ASA, ECA, R-Raman, ABS, FL, XAS/XES, NRVS
   Peter Pinski           : DLPNO-MP2, DLPNO-MP2 Gradient
   Christoph Reimann      : Effective Core Potentials
   Marius Retegan         : Local ZFS, SOC
   Christoph Riplinger    : Optimizer, TS searches, QM/MM, DLPNO-CCSD(T), (RO)-DLPNO pert. Triples
   Tobias Risthaus        : Range-separated hybrids, TD-DFT gradient, RPA, STAB
   Michael Roemelt        : Original ROCIS implementation
   Masaaki Saitow         : Open-shell DLPNO-CCSD energy and density
   Barbara Sandhoefer     : DKH picture change effects
   Avijit Sen             : IP-ROCIS
   Kantharuban Sivalingam : CASSCF convergence, NEVPT2, FIC-MRCI
   Bernardo de Souza      : ESD, SOC TD-DFT
   Georgi Stoychev        : AutoAux, RI-MP2 NMR
   Willem Van den Heuvel  : Paramagnetic NMR
   Boris Wezisla          : Elementary symmetry handling
   Frank Wennmohs         : Technical directorship


 We gratefully acknowledge several colleagues who have allowed us to
 interface, adapt or use parts of their codes:
   Stefan Grimme, W. Hujo, H. Kruse, P. Pracht,  : VdW corrections, initial TS optimization,
                  C. Bannwarth, S. Ehlert          DFT functionals, gCP, sTDA/sTD-DF
   Ed Valeev, F. Pavosevic, A. Kumar             : LibInt (2-el integral package), F12 methods
   Garnet Chan, S. Sharma, J. Yang, R. Olivares  : DMRG
   Ulf Ekstrom                                   : XCFun DFT Library
   Mihaly Kallay                                 : mrcc  (arbitrary order and MRCC methods)
   Jiri Pittner, Ondrej Demel                    : Mk-CCSD
   Frank Weinhold                                : gennbo (NPA and NBO analysis)
   Christopher J. Cramer and Donald G. Truhlar   : smd solvation model
   Lars Goerigk                                  : TD-DFT with DH, B97 family of functionals
   V. Asgeirsson, H. Jonsson                     : NEB implementation
   FAccTs GmbH                                   : IRC, NEB, NEB-TS, DLPNO-Multilevel, CI-OPT
                                                   MM, QMMM, 2- and 3-layer-ONIOM, Crystal-QMMM,
                                                   LR-CPCM, SF, NACMEs, symmetry and pop. for TD-DFT,
                                                   nearIR, NL-DFT gradient (VV10), updates on ESD,
                                                   ML-optimized integration grids
   S Lehtola, MJT Oliveira, MAL Marques          : LibXC Library
   Liviu Ungur et al                             : ANISO software


 Your calculation uses the libint2 library for the computation of 2-el integrals
 For citations please refer to: http://libint.valeyev.net

 Your ORCA version has been built with support for libXC version: 5.1.0
 For citations please refer to: https://tddft.org/programs/libxc/

 This ORCA versions uses:
   CBLAS   interface :  Fast vector & matrix operations
   LAPACKE interface :  Fast linear algebra routines
   SCALAPACK package :  Parallel linear algebra routines
   Shared memory     :  Shared parallel matrices
   BLAS/LAPACK       :  OpenBLAS 0.3.15  USE64BITINT DYNAMIC_ARCH NO_AFFINITY Haswell SINGLE_THREADED
        Core in use  :  Haswell
   Copyright (c) 2011-2014, The OpenBLAS Project




***************************************
The coordinates will be read from file: D2.xyz
***************************************


Your calculation utilizes the atom-pairwise dispersion correction
with the zero-damping scheme (D30)
Cite in your paper:
S.Grimme, J.Antony, S.Ehrlich and H.Krieg, J.Chem.Phys., 132, (2010), 154104 
   

XCFun DFT library Copyright 2009-2010 Ulf Ekstrom and contributors.
See http://admol.org/xcfun for more information.
This is free software; see the source code for copying conditions.
There is ABSOLUTELY NO WARRANTY; not even for MERCHANTABILITY or FITNESS FOR A PARTICULAR PURPOSE.
For details see the documentation.
Scientific users of this library should cite U. Ekstrom, L. Visscher, R. Bast, A. J. Thorvaldsen and K. Ruud;
J.Chem.Theor.Comp. 2010, DOI: 10.1021/ct100117s
XCFun Version 0.99 

================================================================================

----- Orbital basis set information -----
Your calculation utilizes the basis: def2-SVPD
   F. Weigend and R. Ahlrichs, Phys. Chem. Chem. Phys. 7, 3297 (2005).
   D. Rappoport and F. Furche, J. Chem. Phys. 133 134105 (2010).

----- AuxJ basis set information -----
Your calculation utilizes the auxiliary basis: def2/J
   F. Weigend, Phys. Chem. Chem. Phys. 8, 1057 (2006).

================================================================================
                                        WARNINGS
                       Please study these warnings very carefully!
================================================================================


INFO   : the flag for use of the SHARK integral package has been found!

================================================================================
                                       INPUT FILE
================================================================================
NAME = D2_wb97.com
|  1> !wB97X-D3 RIJCOSX def2-SVPD def2/J TightSCF CPCM(Water) xyzfile  
|  2> 
|  3> *xyzfile 0 1 D2.xyz
|  4> 
|  5> %MaxCore 64000
|  6> 
|  7> %pal nprocs 18                                                                                                                                                  
|  8> end  
|  9> 
| 10> %scf
| 11>   MaxIter 150
| 12> end
| 13> 
| 14> 
| 15>                          ****END OF INPUT****
================================================================================

                       ****************************
                       * Single Point Calculation *
                       ****************************

---------------------------------
CARTESIAN COORDINATES (ANGSTROEM)
---------------------------------
  C      4.602954   -2.440100    2.634780
  C     -0.914947    0.615112    2.505538
  C     -0.059146    1.503524    3.410578
  H      0.365364    2.344315    2.861161
  H     -0.692261    1.920207    4.198985
  C      1.083027    0.749640    4.085705
  C      3.860851   -1.591565    3.622893
  N      2.756502   -2.046159    4.166333
  C      4.254325   -0.362905    3.860455
  H      3.565256    0.310994    4.168983
  H      5.054292   -0.016059    3.337838
  H      2.439696   -2.973894    3.897395
  H      2.066869   -1.412532    4.549813
  F      2.228167    1.263475    4.019826
  O      0.810034   -0.345411    4.636269
  C      3.744685   -2.580557    1.361882
  C      0.772139    0.636882    0.562129
  C     -0.130740   -0.193985    1.470763
  H     -0.840563   -0.760165    0.856377
  H      0.466691   -0.938942    2.006959
  H     -1.647961    1.245963    1.991076
  H     -1.478180   -0.081046    3.130424
  C      3.203721   -1.256004    0.826211
  H      2.898939   -3.239289    1.583074
  H      4.334962   -3.095523    0.600188
  C      2.107815   -1.442385   -0.216865
  H      2.786775   -0.672760    1.650711
  H      4.021008   -0.652993    0.414046
  C      1.390662   -0.145912   -0.602422
  H      1.372179   -2.152184    0.176151
  H      2.523302   -1.906787   -1.117115
  H      1.561361    1.100094    1.161831
  H      0.195516    1.468325    0.142758
  H      0.602893   -0.398214   -1.319716
  H      2.087247    0.508272   -1.137335
  H      5.561557   -1.971347    2.407084
  H      4.810498   -3.422552    3.063099

----------------------------
CARTESIAN COORDINATES (A.U.)
----------------------------
  NO LB      ZA    FRAG     MASS         X           Y           Z
   0 C     6.0000    0    12.011    8.698322   -4.611120    4.979013
   1 C     6.0000    0    12.011   -1.729000    1.162394    4.734780
   2 C     6.0000    0    12.011   -0.111770    2.841249    6.445058
   3 H     1.0000    0     1.008    0.690439    4.430113    5.406811
   4 H     1.0000    0     1.008   -1.308184    3.628665    7.934932
   5 C     6.0000    0    12.011    2.046625    1.416613    7.720864
   6 C     6.0000    0    12.011    7.295951   -3.007623    6.846275
   7 N     7.0000    0    14.007    5.209033   -3.866681    7.873228
   8 C     6.0000    0    12.011    8.039509   -0.685791    7.295203
   9 H     1.0000    0     1.008    6.737357    0.587693    7.878236
  10 H     1.0000    0     1.008    9.551228   -0.030346    6.307599
  11 H     1.0000    0     1.008    4.610356   -5.619845    7.365010
  12 H     1.0000    0     1.008    3.905816   -2.669299    8.597900
  13 F     9.0000    0    18.998    4.210626    2.387622    7.596370
  14 O     8.0000    0    15.999    1.530743   -0.652732    8.761278
  15 C     6.0000    0    12.011    7.076429   -4.876545    2.573585
  16 C     6.0000    0    12.011    1.459131    1.203533    1.062270
  17 C     6.0000    0    12.011   -0.247062   -0.366578    2.779339
  18 H     1.0000    0     1.008   -1.588435   -1.436503    1.618317
  19 H     1.0000    0     1.008    0.881918   -1.774344    3.792602
  20 H     1.0000    0     1.008   -3.114194    2.354529    3.762589
  21 H     1.0000    0     1.008   -2.793356   -0.153155    5.915644
  22 C     6.0000    0    12.011    6.054155   -2.373503    1.561312
  23 H     1.0000    0     1.008    5.478202   -6.121369    2.991576
  24 H     1.0000    0     1.008    8.191891   -5.849691    1.134191
  25 C     6.0000    0    12.011    3.983193   -2.725713   -0.409815
  26 H     1.0000    0     1.008    5.266242   -1.271333    3.119391
  27 H     1.0000    0     1.008    7.598605   -1.233978    0.782434
  28 C     6.0000    0    12.011    2.627970   -0.275734   -1.138412
  29 H     1.0000    0     1.008    2.593043   -4.067039    0.332877
  30 H     1.0000    0     1.008    4.768351   -3.603306   -2.111041
  31 H     1.0000    0     1.008    2.950544    2.078876    2.195543
  32 H     1.0000    0     1.008    0.369472    2.774732    0.269774
  33 H     1.0000    0     1.008    1.139302   -0.752515   -2.493901
  34 H     1.0000    0     1.008    3.944325    0.960495   -2.149252
  35 H     1.0000    0     1.008   10.509819   -3.725306    4.548729
  36 H     1.0000    0     1.008    9.090524   -6.467686    5.788418

--------------------------------
INTERNAL COORDINATES (ANGSTROEM)
--------------------------------
 C      0   0   0     0.000000000000     0.00000000     0.00000000
 C      1   0   0     6.308586203432     0.00000000     0.00000000
 C      2   1   0     1.529957107993    77.28183059     0.00000000
 H      3   2   1     1.090411256774   111.55882853    97.86413420
 H      3   2   1     1.093638623089   108.89708857   215.91870349
 C      3   2   1     1.526007259671   113.17289755   335.54994809
 C      1   2   3     1.499030944607    46.08102107    32.22435449
 N      7   1   2     1.312086311450   119.57550804    69.68026511
 C      7   1   2     1.311816934860   120.06979092   255.12582827
 H      9   7   1     1.012000689182   118.33807127   152.74591339
 H      9   7   1     1.016552687460   117.54905062     1.38456693
 H      8   7   1     1.016555216927   117.96452659     0.26424067
 H      8   7   1     1.011994677785   120.90292470   202.77321427
 F      6   3   2     1.256866490428   117.17953923   130.97680566
 O      6   3   2     1.255699244565   117.52128403   312.46756963
 C      1   2   3     1.541629623907    62.62949466   209.82401956
 C      2   1   7     2.573629742126    56.37183241   136.26281467
 C     17   2   1     1.526808691257    32.68646011    60.03349628
 H     18  17   2     1.096302867074   109.29355526   122.31318015
 H     18  17   2     1.095166743970   109.81281793   238.24291461
 H      2   1   7     1.095423053861   150.90514655   137.54603026
 H      2   1   7     1.091948135609    97.50871692   284.68569777
 C     16   1   2     1.527752200286   114.05719293    47.35458413
 H     16   1   2     1.094595536307   108.55040841   286.13459305
 H     16   1   2     1.092609492451   108.52889090   171.42518318
 C     23  16   1     1.524386816897   112.85978214   193.54989873
 H     23  16   1     1.092618984700   109.47162788   313.73212395
 H     23  16   1     1.096111287972   110.16899423    69.84711356
 C     26  23  16     1.530949467148   113.92567496   170.54322561
 H     26  23  16     1.095187357748   108.45658234    49.04879098
 H     26  23  16     1.094874135111   109.97857956   293.58866087
 H     17   2   1     1.094110893791    93.58564518   298.96858035
 H     17   2   1     1.095290749861    87.15927614   193.54313289
 H     29  26  23     1.094872693905   107.87186420   182.29548401
 H     29  26  23     1.095134664272   109.32442771    67.48507798
 H      1   2   3     1.091097475703   123.78768244   307.63340442
 H      1   2   3     1.091670392935   127.60165869   114.33613372

---------------------------
INTERNAL COORDINATES (A.U.)
---------------------------
 C      0   0   0     0.000000000000     0.00000000     0.00000000
 C      1   0   0    11.921500216720     0.00000000     0.00000000
 C      2   1   0     2.891199930754    77.28183059     0.00000000
 H      3   2   1     2.060578648647   111.55882853    97.86413420
 H      3   2   1     2.066677487118   108.89708857   215.91870349
 C      3   2   1     2.883735799153   113.17289755   335.54994809
 C      1   2   3     2.832757951581    46.08102107    32.22435449
 N      7   1   2     2.479483792708   119.57550804    69.68026511
 C      7   1   2     2.478974744726   120.06979092   255.12582827
 H      9   7   1     1.912404149893   118.33807127   152.74591339
 H      9   7   1     1.921006180000   117.54905062     1.38456693
 H      8   7   1     1.921010960000   117.96452659     0.26424067
 H      8   7   1     1.912392789999   120.90292470   202.77321427
 F      6   3   2     2.375133453811   117.17953923   130.97680566
 O      6   3   2     2.372927678799   117.52128403   312.46756963
 C      1   2   3     2.913257789125    62.62949466   209.82401956
 C      2   1   7     4.863455382733    56.37183241   136.26281467
 C     17   2   1     2.885250285367    32.68646011    60.03349628
 H     18  17   2     2.071712178603   109.29355526   122.31318015
 H     18  17   2     2.069565217082   109.81281793   238.24291461
 H      2   1   7     2.070049572580   150.90514655   137.54603026
 H      2   1   7     2.063482928747    97.50871692   284.68569777
 C     16   1   2     2.887033259036   114.05719293    47.35458413
 H     16   1   2     2.068485791032   108.55040841   286.13459305
 H     16   1   2     2.064732712056   108.52889090   171.42518318
 C     23  16   1     2.880673606096   112.85978214   193.54989873
 H     23  16   1     2.064750649806   109.47162788   313.73212395
 H     23  16   1     2.071350146566   110.16899423    69.84711356
 C     26  23  16     2.893075217783   113.92567496   170.54322561
 H     26  23  16     2.069604171476   108.45658234    49.04879098
 H     26  23  16     2.069012266473   109.97857956   293.58866087
 H     17   2   1     2.067569949404    93.58564518   298.96858035
 H     17   2   1     2.069799554255    87.15927614   193.54313289
 H     29  26  23     2.069009542990   107.87186420   182.29548401
 H     29  26  23     2.069504595238   109.32442771    67.48507798
 H      1   2   3     2.061875414492   123.78768244   307.63340442
 H      1   2   3     2.062958071157   127.60165869   114.33613372

---------------------
BASIS SET INFORMATION
---------------------
There are 5 groups of distinct atoms

 Group   1 Type C   : 8s4p2d contracted to 4s2p2d pattern {5111/31/11}
 Group   2 Type H   : 4s2p contracted to 2s2p pattern {31/11}
 Group   3 Type N   : 8s4p2d contracted to 4s2p2d pattern {5111/31/11}
 Group   4 Type F   : 8s5p2d contracted to 4s3p2d pattern {5111/311/11}
 Group   5 Type O   : 8s5p2d contracted to 4s3p2d pattern {5111/311/11}

Atom   0C    basis set group =>   1
Atom   1C    basis set group =>   1
Atom   2C    basis set group =>   1
Atom   3H    basis set group =>   2
Atom   4H    basis set group =>   2
Atom   5C    basis set group =>   1
Atom   6C    basis set group =>   1
Atom   7N    basis set group =>   3
Atom   8C    basis set group =>   1
Atom   9H    basis set group =>   2
Atom  10H    basis set group =>   2
Atom  11H    basis set group =>   2
Atom  12H    basis set group =>   2
Atom  13F    basis set group =>   4
Atom  14O    basis set group =>   5
Atom  15C    basis set group =>   1
Atom  16C    basis set group =>   1
Atom  17C    basis set group =>   1
Atom  18H    basis set group =>   2
Atom  19H    basis set group =>   2
Atom  20H    basis set group =>   2
Atom  21H    basis set group =>   2
Atom  22C    basis set group =>   1
Atom  23H    basis set group =>   2
Atom  24H    basis set group =>   2
Atom  25C    basis set group =>   1
Atom  26H    basis set group =>   2
Atom  27H    basis set group =>   2
Atom  28C    basis set group =>   1
Atom  29H    basis set group =>   2
Atom  30H    basis set group =>   2
Atom  31H    basis set group =>   2
Atom  32H    basis set group =>   2
Atom  33H    basis set group =>   2
Atom  34H    basis set group =>   2
Atom  35H    basis set group =>   2
Atom  36H    basis set group =>   2
---------------------------------
AUXILIARY/J BASIS SET INFORMATION
---------------------------------
There are 5 groups of distinct atoms

 Group   1 Type C   : 12s5p4d2f1g contracted to 6s4p3d1f1g pattern {711111/2111/211/2/1}
 Group   2 Type H   : 5s2p1d contracted to 3s1p1d pattern {311/2/1}
 Group   3 Type N   : 12s5p4d2f1g contracted to 6s4p3d1f1g pattern {711111/2111/211/2/1}
 Group   4 Type F   : 12s5p4d2f1g contracted to 6s4p3d1f1g pattern {711111/2111/211/2/1}
 Group   5 Type O   : 12s5p4d2f1g contracted to 6s4p3d1f1g pattern {711111/2111/211/2/1}

Atom   0C    basis set group =>   1
Atom   1C    basis set group =>   1
Atom   2C    basis set group =>   1
Atom   3H    basis set group =>   2
Atom   4H    basis set group =>   2
Atom   5C    basis set group =>   1
Atom   6C    basis set group =>   1
Atom   7N    basis set group =>   3
Atom   8C    basis set group =>   1
Atom   9H    basis set group =>   2
Atom  10H    basis set group =>   2
Atom  11H    basis set group =>   2
Atom  12H    basis set group =>   2
Atom  13F    basis set group =>   4
Atom  14O    basis set group =>   5
Atom  15C    basis set group =>   1
Atom  16C    basis set group =>   1
Atom  17C    basis set group =>   1
Atom  18H    basis set group =>   2
Atom  19H    basis set group =>   2
Atom  20H    basis set group =>   2
Atom  21H    basis set group =>   2
Atom  22C    basis set group =>   1
Atom  23H    basis set group =>   2
Atom  24H    basis set group =>   2
Atom  25C    basis set group =>   1
Atom  26H    basis set group =>   2
Atom  27H    basis set group =>   2
Atom  28C    basis set group =>   1
Atom  29H    basis set group =>   2
Atom  30H    basis set group =>   2
Atom  31H    basis set group =>   2
Atom  32H    basis set group =>   2
Atom  33H    basis set group =>   2
Atom  34H    basis set group =>   2
Atom  35H    basis set group =>   2
Atom  36H    basis set group =>   2


           ************************************************************
           *        Program running with 18 parallel MPI-processes    *
           *              working on a common directory               *
           ************************************************************
------------------------------------------------------------------------------
                           ORCA GTO INTEGRAL CALCULATION
                           -- RI-GTO INTEGRALS CHOSEN --
------------------------------------------------------------------------------
------------------------------------------------------------------------------
                   ___                                                        
                  /   \      - P O W E R E D   B Y -                         
                 /     \                                                     
                 |  |  |   _    _      __       _____    __    __             
                 |  |  |  | |  | |    /  \     |  _  \  |  |  /  |          
                  \  \/   | |  | |   /    \    | | | |  |  | /  /          
                 / \  \   | |__| |  /  /\  \   | |_| |  |  |/  /          
                |  |  |   |  __  | /  /__\  \  |    /   |      \           
                |  |  |   | |  | | |   __   |  |    \   |  |\   \          
                \     /   | |  | | |  |  |  |  | |\  \  |  | \   \       
                 \___/    |_|  |_| |__|  |__|  |_| \__\ |__|  \__/        
                                                                              
                      - O R C A' S   B I G   F R I E N D -                    
                                      &                                       
                       - I N T E G R A L  F E E D E R -                       
                                                                              
 v1 FN, 2020, v2 2021                                                         
------------------------------------------------------------------------------


Reading SHARK input file D2_wb97.SHARKINP.tmp ... ok
----------------------
SHARK INTEGRAL PACKAGE
----------------------

Number of atoms                             ...     37
Number of basis functions                   ...    482
Number of shells                            ...    210
Maximum angular momentum                    ...      2
Integral batch strategy                     ... SHARK/LIBINT Hybrid
RI-J (if used) integral strategy            ... SPLIT-RIJ (Revised 2003 algorithm where possible)
Printlevel                                  ...      1
Contraction scheme used                     ... SEGMENTED contraction
Coulomb Range Separation                    ... NOT USED
Exchange Range Separation                   ... Long Range
   Mu parameter                             ...  0.250000
   Scaling (regular/separated)              ...  0.195728  0.804272
Finite Nucleus Model                        ... NOT USED
Auxiliary Coulomb fitting basis             ... AVAILABLE
   # of basis functions in Aux-J            ...    977
   # of shells in Aux-J                     ...    335
   Maximum angular momentum in Aux-J        ...      4
Auxiliary J/K fitting basis                 ... NOT available
Auxiliary Correlation fitting basis         ... NOT available
Auxiliary 'external' fitting basis          ... NOT available
Integral threshold                          ...     2.500000e-11
Primitive cut-off                           ...     2.500000e-12
Primitive pair pre-selection threshold      ...     2.500000e-12

Calculating pre-screening integrals         ... done (  0.1 sec) Dimension = 210
Organizing shell pair data                  ... done (  0.2 sec)
Shell pair information
Total number of shell pairs                 ...     22155
Shell pairs after pre-screening             ...     20462
Total number of primitive shell pairs       ...     59601
Primitive shell pairs kept                  ...     41846
          la=0 lb=0:   5014 shell pairs
          la=1 lb=0:   7299 shell pairs
          la=1 lb=1:   2702 shell pairs
          la=2 lb=0:   2896 shell pairs
          la=2 lb=1:   2119 shell pairs
          la=2 lb=2:    432 shell pairs

Calculating one electron integrals          ... done (  0.0 sec)
Calculating RI/J V-Matrix + Cholesky decomp.... done (  0.2 sec)
Calculating Nuclear repulsion               ... done (  0.0 sec) ENN=   1120.799003110295 Eh

SHARK setup successfully completed in   0.5 seconds

Maximum memory used throughout the entire GTOINT-calculation: 30.4 MB


           ************************************************************
           *        Program running with 18 parallel MPI-processes    *
           *              working on a common directory               *
           ************************************************************
-------------------------------------------------------------------------------
                                 ORCA SCF
-------------------------------------------------------------------------------

------------
SCF SETTINGS
------------
Hamiltonian:
 Density Functional     Method          .... DFT(GTOs)
 Exchange Functional    Exchange        .... WB97X-D3
 Correlation Functional Correlation     .... WB97X-D3
 Gradients option       PostSCFGGA      .... off
 Hybrid DFT is turned on
   Fraction HF Exchange ScalHFX         ....  0.195728
   Scaling of DF-GGA-X  ScalDFX         ....  0.000000
   Scaling of DF-GGA-C  ScalDFC         ....  1.000000
   Scaling of DF-LDA-C  ScalLDAC        ....  1.000000
   Perturbative correction              ....  0.000000
   Density functional embedding theory  .... OFF
 Long-range corrected/Screened/Range-Separated Hybrid DFT is turned on
   Amount of maximum screened exact exchange              ....  0.804272
   Range separation parameter mu (erf(mu*r12)/r12)        ....  0.250000
 RI-approximation to the Coulomb term is turned on
   Number of AuxJ basis functions       .... 977
   RIJ-COSX (HFX calculated with COS-X)).... on


General Settings:
 Integral files         IntName         .... D2_wb97
 Hartree-Fock type      HFTyp           .... RHF
 Total Charge           Charge          ....    0
 Multiplicity           Mult            ....    1
 Number of Electrons    NEL             ....  118
 Basis Dimension        Dim             ....  482
 Nuclear Repulsion      ENuc            ....   1120.7990031103 Eh

Convergence Acceleration:
 DIIS                   CNVDIIS         .... on
   Start iteration      DIISMaxIt       ....    12
   Startup error        DIISStart       ....  0.200000
   # of expansion vecs  DIISMaxEq       ....     5
   Bias factor          DIISBfac        ....   1.050
   Max. coefficient     DIISMaxC        ....  10.000
 Trust-Rad. Augm. Hess. CNVTRAH         .... auto
   Auto Start mean grad. ratio tolernc. ....  1.125000
   Auto Start start iteration           ....    20
   Auto Start num. interpolation iter.  ....    10
   Max. Number of Micro iterations      ....    16
   Max. Number of Macro iterations      .... Maxiter - #DIIS iter
   Number of Davidson start vectors     ....     2
   Converg. threshold I  (grad. norm)   ....   1.000e-05
   Converg. threshold II (energy diff.) ....   1.000e-08
   Grad. Scal. Fac. for Micro threshold ....   0.100
   Minimum threshold for Micro iter.    ....   0.010
   NR start threshold (gradient norm)   ....   0.001
   Initial trust radius                 ....   0.400
   Minimum AH scaling param. (alpha)    ....   1.000
   Maximum AH scaling param. (alpha)    .... 1000.000
   Orbital update algorithm             .... Taylor
   White noise on init. David. guess    .... on
   Maximum white noise                  ....   0.010
   Quad. conv. algorithm                .... NR
 SOSCF                  CNVSOSCF        .... on
   Start iteration      SOSCFMaxIt      ....   150
   Startup grad/error   SOSCFStart      ....  0.003300
 Level Shifting         CNVShift        .... on
   Level shift para.    LevelShift      ....    0.2500
   Turn off err/grad.   ShiftErr        ....    0.0010
 Zerner damping         CNVZerner       .... off
 Static damping         CNVDamp         .... on
   Fraction old density DampFac         ....    0.7000
   Max. Damping (<1)    DampMax         ....    0.9800
   Min. Damping (>=0)   DampMin         ....    0.0000
   Turn off err/grad.   DampErr         ....    0.1000
 Fernandez-Rico         CNVRico         .... off

SCF Procedure:
 Maximum # iterations   MaxIter         ....   150
 SCF integral mode      SCFMode         .... Direct
   Integral package                     .... SHARK and LIBINT hybrid scheme
 Reset frequency        DirectResetFreq ....    20
 Integral Threshold     Thresh          ....  2.500e-11 Eh
 Primitive CutOff       TCut            ....  2.500e-12 Eh

Convergence Tolerance:
 Convergence Check Mode ConvCheckMode   .... Total+1el-Energy
 Convergence forced     ConvForced      .... 0
 Energy Change          TolE            ....  1.000e-08 Eh
 1-El. energy change                    ....  1.000e-05 Eh
 Orbital Gradient       TolG            ....  1.000e-05
 Orbital Rotation angle TolX            ....  1.000e-05
 DIIS Error             TolErr          ....  5.000e-07


Diagonalization of the overlap matrix:
Smallest eigenvalue                        ... 2.556e-05
Time for diagonalization                   ...    0.063 sec
Threshold for overlap eigenvalues          ... 1.000e-08
Number of eigenvalues below threshold      ... 0
Time for construction of square roots      ...    0.087 sec
Total time needed                          ...    0.153 sec

Time for model grid setup =    0.220 sec

------------------------------
INITIAL GUESS: MODEL POTENTIAL
------------------------------
Loading Hartree-Fock densities                     ... done
Calculating cut-offs                               ... done
Initializing the effective Hamiltonian             ... done
Setting up the integral package (SHARK)            ... done
Starting the Coulomb interaction                   ... done (   0.1 sec)
Reading the grid                                   ... done
Mapping shells                                     ... done
Starting the XC term evaluation                    ... done (   0.2 sec)
  promolecular density results
     # of electrons  =    117.987712804
     EX              =    -92.695505312
     EC              =     -3.944921382
     EX+EC           =    -96.640426693
Transforming the Hamiltonian                       ... done (   0.0 sec)
Diagonalizing the Hamiltonian                      ... done (   0.0 sec)
Back transforming the eigenvectors                 ... done (   0.0 sec)
Now organizing SCF variables                       ... done
                      ------------------
                      INITIAL GUESS DONE (   0.6 sec)
                      ------------------
-------------------
DFT GRID GENERATION
-------------------

General Integration Accuracy     IntAcc      ... 4.388
Radial Grid Type                 RadialGrid  ... OptM3 with GC (2021)
Angular Grid (max. ang.)         AngularGrid ... 4 (Lebedev-302)
Angular grid pruning method      GridPruning ... 4 (adaptive)
Weight generation scheme         WeightScheme... Becke
Basis function cutoff            BFCut       ... 1.0000e-11
Integration weight cutoff        WCut        ... 1.0000e-14
Angular grids for H and He will be reduced by one unit
Partially contracted basis set               ... off
Rotationally invariant grid construction     ... off

Total number of grid points                  ...   162853
Total number of batches                      ...     2566
Average number of points per batch           ...       63
Average number of grid points per atom       ...     4401
Time for grid setup =    0.941 sec

--------------------
COSX GRID GENERATION
--------------------

GRIDX 1
-------
General Integration Accuracy     IntAcc      ... 3.816
Radial Grid Type                 RadialGrid  ... OptM3 with GC (2021)
Angular Grid (max. ang.)         AngularGrid ... 1 (Lebedev-50)
Angular grid pruning method      GridPruning ... 4 (adaptive)
Weight generation scheme         WeightScheme... Becke
Basis function cutoff            BFCut       ... 1.0000e-11
Integration weight cutoff        WCut        ... 1.0000e-14
Angular grids for H and He will be reduced by one unit
Partially contracted basis set               ... on
Rotationally invariant grid construction     ... off

Total number of grid points                  ...    20284
Total number of batches                      ...      340
Average number of points per batch           ...       59
Average number of grid points per atom       ...      548
UseSFitting                                  ... on

GRIDX 2
-------
General Integration Accuracy     IntAcc      ... 4.020
Radial Grid Type                 RadialGrid  ... OptM3 with GC (2021)
Angular Grid (max. ang.)         AngularGrid ... 2 (Lebedev-110)
Angular grid pruning method      GridPruning ... 4 (adaptive)
Weight generation scheme         WeightScheme... Becke
Basis function cutoff            BFCut       ... 1.0000e-11
Integration weight cutoff        WCut        ... 1.0000e-14
Angular grids for H and He will be reduced by one unit
Partially contracted basis set               ... on
Rotationally invariant grid construction     ... off

Total number of grid points                  ...    44174
Total number of batches                      ...      709
Average number of points per batch           ...       62
Average number of grid points per atom       ...     1194
UseSFitting                                  ... on

GRIDX 3
-------
General Integration Accuracy     IntAcc      ... 4.338
Radial Grid Type                 RadialGrid  ... OptM3 with GC (2021)
Angular Grid (max. ang.)         AngularGrid ... 3 (Lebedev-194)
Angular grid pruning method      GridPruning ... 4 (adaptive)
Weight generation scheme         WeightScheme... Becke
Basis function cutoff            BFCut       ... 1.0000e-11
Integration weight cutoff        WCut        ... 1.0000e-14
Angular grids for H and He will be reduced by one unit
Partially contracted basis set               ... on
Rotationally invariant grid construction     ... off

Total number of grid points                  ...    99162
Total number of batches                      ...     1568
Average number of points per batch           ...       63
Average number of grid points per atom       ...     2680
UseSFitting                                  ... on

Time for X-Grid setup             =    1.015 sec


--------------------
CPCM SOLVATION MODEL
--------------------
CPCM parameters:
  Epsilon                                         ...      80.4000
  Refrac                                          ...       1.3300
  Rsolv                                           ...       1.3000
  Surface type                                    ... GAUSSIAN VDW
  Epsilon function type                           ...         CPCM
Radii:
 Radius for C  used is    3.8550 Bohr (=   2.0400 Ang.)
 Radius for H  used is    2.4944 Bohr (=   1.3200 Ang.)
 Radius for N  used is    3.5149 Bohr (=   1.8600 Ang.)
 Radius for F  used is    3.3335 Bohr (=   1.7640 Ang.)
 Radius for O  used is    3.4469 Bohr (=   1.8240 Ang.)
Calculating surface                               ...        done! (  0.0s)
GEPOL surface points                              ...         1907
GEPOL Volume                                      ...    1852.4644
GEPOL Surface-area                                ...     940.8752
Calculating surface distance matrix               ...        done! (  0.1s)
Performing Cholesky decomposition & store         ...        done! (  0.3s)
Overall time for CPCM initialization              ...                 0.4s
--------------
SCF ITERATIONS
--------------
ITER       Energy         Delta-E        Max-DP      RMS-DP      [F,P]     Damp
               ***  Starting incremental Fock matrix formation  ***
  0   -699.1556597286   0.000000000000 0.40371675  0.00348537  0.2218240 0.7000
  1   -699.3601466551  -0.204486926500 0.38535709  0.00253275  0.1258990 0.7000
                               ***Turning on DIIS***
  2   -699.4622306699  -0.102084014777 0.79190073  0.00516969  0.0687463 0.0000
  3   -699.6271853111  -0.164954641243 0.26657083  0.00167352  0.0527165 0.0000
  4   -699.6529265066  -0.025741195444 0.05068263  0.00033615  0.0135323 0.0000
  5   -699.6536004205  -0.000673913985 0.03380022  0.00017235  0.0112617 0.0000
                      *** Initiating the SOSCF procedure ***
                           *** Shutting down DIIS ***
                      *** Re-Reading the Fockian *** 
                      *** Removing any level shift *** 
ITER      Energy       Delta-E        Grad      Rot      Max-DP    RMS-DP
  6   -699.65380293  -0.0002025134  0.000390  0.000390  0.054179  0.000225
               *** Restarting incremental Fock matrix formation ***
  7   -699.65393822  -0.0001352865  0.000093  0.000233  0.020642  0.000111
  8   -699.65393990  -0.0000016822  0.000171  0.000233  0.006916  0.000038
  9   -699.65394188  -0.0000019807  0.000035  0.000114  0.005618  0.000024
 10   -699.65394195  -0.0000000679  0.000043  0.000048  0.001868  0.000008
 11   -699.65394202  -0.0000000648  0.000005  0.000008  0.000496  0.000003
                  ***Gradient check signals convergence***
              ***Rediagonalizing the Fockian in SOSCF/NRSCF***

               *****************************************************
               *                     SUCCESS                       *
               *           SCF CONVERGED AFTER  12 CYCLES          *
               *****************************************************

Old exchange energy                            =    -31.226211275 Eh
New exchange energy                            =    -31.226112140 Eh
Exchange energy change after final integration =      0.000099135 Eh
Total energy after final integration           =   -699.653842886 Eh
Final COS-X integration done in                =    15.212 sec

----------------
TOTAL SCF ENERGY
----------------

Total Energy       :         -699.65384289 Eh          -19038.54897 eV

Components:
Nuclear Repulsion  :         1120.79900311 Eh           30498.49139 eV
Electronic Energy  :        -1820.45284600 Eh          -49537.04035 eV
One Electron Energy:        -3176.00520641 Eh          -86423.49535 eV
Two Electron Energy:         1355.55236042 Eh           36886.45500 eV
Max COSX asymmetry :            0.00001511 Eh               0.00041 eV
CPCM Dielectric    :           -0.01630295 Eh              -0.44363 eV

Virial components:
Potential Energy   :        -1392.12384637 Eh          -37881.61572 eV
Kinetic Energy     :          692.47000349 Eh           18843.06676 eV
Virial Ratio       :            2.01037422


DFT components:
N(Alpha)           :       59.000156406351 electrons
N(Beta)            :       59.000156406351 electrons
N(Total)           :      118.000312812702 electrons
E(XC)              :      -67.993239028363 Eh       
DFET-embed. en.    :        0.000000000000 Eh       
CPCM Solvation Model Properties:
Surface-charge          :           -0.03580711
Charge-correction       :           -0.00018448 Eh              -0.00502 eV
Free-energy (cav+disp)  :  This term is not implemented in the current solvation scheme

---------------
SCF CONVERGENCE
---------------

  Last Energy change         ...   -4.2784e-09  Tolerance :   1.0000e-08
  Last MAX-Density change    ...    2.6645e-15  Tolerance :   1.0000e-07
  Last RMS-Density change    ...    2.7774e-17  Tolerance :   5.0000e-09
  Last Orbital Gradient      ...    1.9808e-06  Tolerance :   1.0000e-05
  Last Orbital Rotation      ...    2.8530e-06  Tolerance :   1.0000e-05

             **** THE GBW FILE WAS UPDATED (D2_wb97.gbw) ****
             **** DENSITY D2_wb97.scfp WAS UPDATED ****
             **** ENERGY FILE WAS UPDATED (D2_wb97.en.tmp) ****
             **** THE GBW FILE WAS UPDATED (D2_wb97.gbw) ****
             **** DENSITY D2_wb97.scfp WAS UPDATED ****
----------------
ORBITAL ENERGIES
----------------

  NO   OCC          E(Eh)            E(eV) 
   0   2.0000     -24.885788      -677.1767 
   1   2.0000     -19.275617      -524.5162 
   2   2.0000     -14.412833      -392.1931 
   3   2.0000     -10.493048      -285.5304 
   4   2.0000     -10.312789      -280.6253 
   5   2.0000     -10.305292      -280.4212 
   6   2.0000     -10.293901      -280.1113 
   7   2.0000     -10.281537      -279.7748 
   8   2.0000     -10.280755      -279.7536 
   9   2.0000     -10.280221      -279.7390 
  10   2.0000     -10.278616      -279.6954 
  11   2.0000     -10.276843      -279.6471 
  12   2.0000     -10.273894      -279.5669 
  13   2.0000     -10.271486      -279.5013 
  14   2.0000     -10.207383      -277.7570 
  15   2.0000      -1.438876       -39.1538 
  16   2.0000      -1.169074       -31.8121 
  17   2.0000      -1.029113       -28.0036 
  18   2.0000      -0.933641       -25.4057 
  19   2.0000      -0.912484       -24.8300 
  20   2.0000      -0.887458       -24.1490 
  21   2.0000      -0.852849       -23.2072 
  22   2.0000      -0.824697       -22.4411 
  23   2.0000      -0.810861       -22.0647 
  24   2.0000      -0.775105       -21.0917 
  25   2.0000      -0.750484       -20.4217 
  26   2.0000      -0.713190       -19.4069 
  27   2.0000      -0.689242       -18.7552 
  28   2.0000      -0.674522       -18.3547 
  29   2.0000      -0.664987       -18.0952 
  30   2.0000      -0.662138       -18.0177 
  31   2.0000      -0.649571       -17.6757 
  32   2.0000      -0.628567       -17.1042 
  33   2.0000      -0.604405       -16.4467 
  34   2.0000      -0.581265       -15.8170 
  35   2.0000      -0.570951       -15.5364 
  36   2.0000      -0.563495       -15.3335 
  37   2.0000      -0.552572       -15.0363 
  38   2.0000      -0.541063       -14.7231 
  39   2.0000      -0.530046       -14.4233 
  40   2.0000      -0.524385       -14.2692 
  41   2.0000      -0.502863       -13.6836 
  42   2.0000      -0.500967       -13.6320 
  43   2.0000      -0.490137       -13.3373 
  44   2.0000      -0.478435       -13.0189 
  45   2.0000      -0.470355       -12.7990 
  46   2.0000      -0.464005       -12.6262 
  47   2.0000      -0.459671       -12.5083 
  48   2.0000      -0.443173       -12.0593 
  49   2.0000      -0.437652       -11.9091 
  50   2.0000      -0.435109       -11.8399 
  51   2.0000      -0.422402       -11.4941 
  52   2.0000      -0.412395       -11.2218 
  53   2.0000      -0.411276       -11.1914 
  54   2.0000      -0.405756       -11.0412 
  55   2.0000      -0.397183       -10.8079 
  56   2.0000      -0.393029       -10.6949 
  57   2.0000      -0.389363       -10.5951 
  58   2.0000      -0.275214        -7.4890 
  59   0.0000       0.035992         0.9794 
  60   0.0000       0.090466         2.4617 
  61   0.0000       0.100325         2.7300 
  62   0.0000       0.105613         2.8739 
  63   0.0000       0.108048         2.9401 
  64   0.0000       0.120934         3.2908 
  65   0.0000       0.126650         3.4463 
  66   0.0000       0.129893         3.5346 
  67   0.0000       0.135647         3.6911 
  68   0.0000       0.139756         3.8030 
  69   0.0000       0.145678         3.9641 
  70   0.0000       0.159773         4.3477 
  71   0.0000       0.164678         4.4811 
  72   0.0000       0.168372         4.5816 
  73   0.0000       0.170271         4.6333 
  74   0.0000       0.171239         4.6596 
  75   0.0000       0.181150         4.9293 
  76   0.0000       0.186478         5.0743 
  77   0.0000       0.197041         5.3618 
  78   0.0000       0.197999         5.3878 
  79   0.0000       0.203402         5.5348 
  80   0.0000       0.207980         5.6594 
  81   0.0000       0.212718         5.7884 
  82   0.0000       0.214941         5.8488 
  83   0.0000       0.217568         5.9203 
  84   0.0000       0.223035         6.0691 
  85   0.0000       0.234471         6.3803 
  86   0.0000       0.236594         6.4380 
  87   0.0000       0.246055         6.6955 
  88   0.0000       0.248913         6.7733 
  89   0.0000       0.254031         6.9125 
  90   0.0000       0.257546         7.0082 
  91   0.0000       0.260804         7.0968 
  92   0.0000       0.262769         7.1503 
  93   0.0000       0.269092         7.3224 
  94   0.0000       0.276796         7.5320 
  95   0.0000       0.283182         7.7058 
  96   0.0000       0.284590         7.7441 
  97   0.0000       0.289212         7.8699 
  98   0.0000       0.298664         8.1271 
  99   0.0000       0.300006         8.1636 
 100   0.0000       0.307498         8.3674 
 101   0.0000       0.310232         8.4418 
 102   0.0000       0.315539         8.5863 
 103   0.0000       0.320075         8.7097 
 104   0.0000       0.323579         8.8050 
 105   0.0000       0.325904         8.8683 
 106   0.0000       0.330916         9.0047 
 107   0.0000       0.337521         9.1844 
 108   0.0000       0.338685         9.2161 
 109   0.0000       0.341448         9.2913 
 110   0.0000       0.348883         9.4936 
 111   0.0000       0.355954         9.6860 
 112   0.0000       0.361117         9.8265 
 113   0.0000       0.367249         9.9933 
 114   0.0000       0.373506        10.1636 
 115   0.0000       0.376872        10.2552 
 116   0.0000       0.381395        10.3783 
 117   0.0000       0.386890        10.5278 
 118   0.0000       0.388263        10.5652 
 119   0.0000       0.392732        10.6868 
 120   0.0000       0.395462        10.7611 
 121   0.0000       0.397194        10.8082 
 122   0.0000       0.400139        10.8883 
 123   0.0000       0.406292        11.0558 
 124   0.0000       0.411564        11.1992 
 125   0.0000       0.413317        11.2469 
 126   0.0000       0.417353        11.3567 
 127   0.0000       0.419157        11.4058 
 128   0.0000       0.419742        11.4218 
 129   0.0000       0.423772        11.5314 
 130   0.0000       0.426945        11.6178 
 131   0.0000       0.430872        11.7246 
 132   0.0000       0.432845        11.7783 
 133   0.0000       0.435161        11.8413 
 134   0.0000       0.442530        12.0419 
 135   0.0000       0.445597        12.1253 
 136   0.0000       0.447552        12.1785 
 137   0.0000       0.452398        12.3104 
 138   0.0000       0.455660        12.3991 
 139   0.0000       0.456083        12.4106 
 140   0.0000       0.460138        12.5210 
 141   0.0000       0.462501        12.5853 
 142   0.0000       0.467589        12.7237 
 143   0.0000       0.471070        12.8185 
 144   0.0000       0.475245        12.9321 
 145   0.0000       0.478433        13.0188 
 146   0.0000       0.481895        13.1130 
 147   0.0000       0.485316        13.2061 
 148   0.0000       0.487194        13.2572 
 149   0.0000       0.492908        13.4127 
 150   0.0000       0.494978        13.4690 
 151   0.0000       0.503569        13.7028 
 152   0.0000       0.507322        13.8049 
 153   0.0000       0.508285        13.8311 
 154   0.0000       0.514450        13.9989 
 155   0.0000       0.517347        14.0777 
 156   0.0000       0.521416        14.1884 
 157   0.0000       0.524932        14.2841 
 158   0.0000       0.528468        14.3804 
 159   0.0000       0.531145        14.4532 
 160   0.0000       0.536132        14.5889 
 161   0.0000       0.541192        14.7266 
 162   0.0000       0.543134        14.7794 
 163   0.0000       0.544811        14.8251 
 164   0.0000       0.552726        15.0404 
 165   0.0000       0.554884        15.0992 
 166   0.0000       0.557827        15.1792 
 167   0.0000       0.560170        15.2430 
 168   0.0000       0.565560        15.3897 
 169   0.0000       0.566828        15.4242 
 170   0.0000       0.568776        15.4772 
 171   0.0000       0.577063        15.7027 
 172   0.0000       0.579668        15.7736 
 173   0.0000       0.583766        15.8851 
 174   0.0000       0.585838        15.9415 
 175   0.0000       0.589809        16.0495 
 176   0.0000       0.593548        16.1513 
 177   0.0000       0.595188        16.1959 
 178   0.0000       0.607355        16.5270 
 179   0.0000       0.608672        16.5628 
 180   0.0000       0.610167        16.6035 
 181   0.0000       0.615289        16.7429 
 182   0.0000       0.618340        16.8259 
 183   0.0000       0.621396        16.9090 
 184   0.0000       0.628670        17.1070 
 185   0.0000       0.633854        17.2481 
 186   0.0000       0.637821        17.3560 
 187   0.0000       0.642839        17.4925 
 188   0.0000       0.647601        17.6221 
 189   0.0000       0.651508        17.7284 
 190   0.0000       0.654411        17.8074 
 191   0.0000       0.657688        17.8966 
 192   0.0000       0.663997        18.0683 
 193   0.0000       0.668572        18.1928 
 194   0.0000       0.668774        18.1983 
 195   0.0000       0.675438        18.3796 
 196   0.0000       0.678033        18.4502 
 197   0.0000       0.682705        18.5774 
 198   0.0000       0.686927        18.6922 
 199   0.0000       0.692050        18.8316 
 200   0.0000       0.693207        18.8631 
 201   0.0000       0.698534        19.0081 
 202   0.0000       0.701998        19.1023 
 203   0.0000       0.705092        19.1865 
 204   0.0000       0.709261        19.3000 
 205   0.0000       0.711776        19.3684 
 206   0.0000       0.722330        19.6556 
 207   0.0000       0.726307        19.7638 
 208   0.0000       0.731920        19.9165 
 209   0.0000       0.738144        20.0859 
 210   0.0000       0.740440        20.1484 
 211   0.0000       0.743704        20.2372 
 212   0.0000       0.745327        20.2814 
 213   0.0000       0.750941        20.4341 
 214   0.0000       0.756321        20.5805 
 215   0.0000       0.760174        20.6854 
 216   0.0000       0.763107        20.7652 
 217   0.0000       0.768686        20.9170 
 218   0.0000       0.774921        21.0867 
 219   0.0000       0.779856        21.2210 
 220   0.0000       0.790560        21.5122 
 221   0.0000       0.793893        21.6029 
 222   0.0000       0.798642        21.7321 
 223   0.0000       0.800447        21.7813 
 224   0.0000       0.804825        21.9004 
 225   0.0000       0.814571        22.1656 
 226   0.0000       0.821040        22.3416 
 227   0.0000       0.829616        22.5750 
 228   0.0000       0.836246        22.7554 
 229   0.0000       0.841605        22.9012 
 230   0.0000       0.842997        22.9391 
 231   0.0000       0.852221        23.1901 
 232   0.0000       0.855727        23.2855 
 233   0.0000       0.862950        23.4821 
 234   0.0000       0.865762        23.5586 
 235   0.0000       0.873775        23.7766 
 236   0.0000       0.877883        23.8884 
 237   0.0000       0.881139        23.9770 
 238   0.0000       0.889433        24.2027 
 239   0.0000       0.900340        24.4995 
 240   0.0000       0.910766        24.7832 
 241   0.0000       0.915250        24.9052 
 242   0.0000       0.919460        25.0198 
 243   0.0000       0.927650        25.2426 
 244   0.0000       0.937261        25.5042 
 245   0.0000       0.944924        25.7127 
 246   0.0000       0.946766        25.7628 
 247   0.0000       0.954497        25.9732 
 248   0.0000       0.968476        26.3536 
 249   0.0000       0.974481        26.5170 
 250   0.0000       0.984198        26.7814 
 251   0.0000       0.995300        27.0835 
 252   0.0000       1.005796        27.3691 
 253   0.0000       1.011257        27.5177 
 254   0.0000       1.022509        27.8239 
 255   0.0000       1.035054        28.1652 
 256   0.0000       1.045340        28.4451 
 257   0.0000       1.048669        28.5357 
 258   0.0000       1.066454        29.0197 
 259   0.0000       1.071180        29.1483 
 260   0.0000       1.085403        29.5353 
 261   0.0000       1.090414        29.6717 
 262   0.0000       1.096392        29.8343 
 263   0.0000       1.098423        29.8896 
 264   0.0000       1.099928        29.9306 
 265   0.0000       1.112826        30.2815 
 266   0.0000       1.115386        30.3512 
 267   0.0000       1.130413        30.7601 
 268   0.0000       1.133663        30.8485 
 269   0.0000       1.137731        30.9592 
 270   0.0000       1.152641        31.3649 
 271   0.0000       1.158240        31.5173 
 272   0.0000       1.160872        31.5889 
 273   0.0000       1.165326        31.7101 
 274   0.0000       1.171314        31.8731 
 275   0.0000       1.172236        31.8982 
 276   0.0000       1.189849        32.3774 
 277   0.0000       1.194944        32.5161 
 278   0.0000       1.202012        32.7084 
 279   0.0000       1.214864        33.0581 
 280   0.0000       1.221746        33.2454 
 281   0.0000       1.230021        33.4706 
 282   0.0000       1.233662        33.5696 
 283   0.0000       1.236761        33.6540 
 284   0.0000       1.243635        33.8410 
 285   0.0000       1.248114        33.9629 
 286   0.0000       1.257371        34.2148 
 287   0.0000       1.259303        34.2674 
 288   0.0000       1.270568        34.5739 
 289   0.0000       1.278041        34.7773 
 290   0.0000       1.285106        34.9695 
 291   0.0000       1.287591        35.0371 
 292   0.0000       1.303406        35.4675 
 293   0.0000       1.308199        35.5979 
 294   0.0000       1.317527        35.8517 
 295   0.0000       1.330977        36.2177 
 296   0.0000       1.344357        36.5818 
 297   0.0000       1.348416        36.6923 
 298   0.0000       1.354702        36.8633 
 299   0.0000       1.368306        37.2335 
 300   0.0000       1.374104        37.3913 
 301   0.0000       1.377443        37.4821 
 302   0.0000       1.389956        37.8226 
 303   0.0000       1.406677        38.2776 
 304   0.0000       1.410973        38.3945 
 305   0.0000       1.432257        38.9737 
 306   0.0000       1.436879        39.0995 
 307   0.0000       1.450977        39.4831 
 308   0.0000       1.460405        39.7396 
 309   0.0000       1.467943        39.9448 
 310   0.0000       1.474944        40.1353 
 311   0.0000       1.494563        40.6691 
 312   0.0000       1.500409        40.8282 
 313   0.0000       1.522696        41.4347 
 314   0.0000       1.551681        42.2234 
 315   0.0000       1.565681        42.6044 
 316   0.0000       1.570302        42.7301 
 317   0.0000       1.570907        42.7465 
 318   0.0000       1.595488        43.4154 
 319   0.0000       1.614203        43.9247 
 320   0.0000       1.636235        44.5242 
 321   0.0000       1.643464        44.7209 
 322   0.0000       1.650407        44.9099 
 323   0.0000       1.657185        45.0943 
 324   0.0000       1.678895        45.6851 
 325   0.0000       1.683968        45.8231 
 326   0.0000       1.702412        46.3250 
 327   0.0000       1.711296        46.5667 
 328   0.0000       1.726847        46.9899 
 329   0.0000       1.742361        47.4120 
 330   0.0000       1.751153        47.6513 
 331   0.0000       1.769013        48.1373 
 332   0.0000       1.772845        48.2416 
 333   0.0000       1.782538        48.5053 
 334   0.0000       1.787020        48.6273 
 335   0.0000       1.802246        49.0416 
 336   0.0000       1.820300        49.5329 
 337   0.0000       1.833907        49.9032 
 338   0.0000       1.852076        50.3976 
 339   0.0000       1.868438        50.8428 
 340   0.0000       1.871435        50.9243 
 341   0.0000       1.874258        51.0012 
 342   0.0000       1.891845        51.4797 
 343   0.0000       1.899571        51.6900 
 344   0.0000       1.918755        52.2120 
 345   0.0000       1.920526        52.2602 
 346   0.0000       1.927347        52.4458 
 347   0.0000       1.943440        52.8837 
 348   0.0000       1.963375        53.4262 
 349   0.0000       1.967994        53.5518 
 350   0.0000       1.978417        53.8355 
 351   0.0000       1.985797        54.0363 
 352   0.0000       1.995781        54.3080 
 353   0.0000       2.002887        54.5013 
 354   0.0000       2.013505        54.7903 
 355   0.0000       2.017419        54.8968 
 356   0.0000       2.025653        55.1208 
 357   0.0000       2.043694        55.6118 
 358   0.0000       2.047457        55.7141 
 359   0.0000       2.049000        55.7561 
 360   0.0000       2.053566        55.8804 
 361   0.0000       2.064737        56.1843 
 362   0.0000       2.070982        56.3543 
 363   0.0000       2.074088        56.4388 
 364   0.0000       2.084868        56.7321 
 365   0.0000       2.095961        57.0340 
 366   0.0000       2.103706        57.2447 
 367   0.0000       2.110681        57.4345 
 368   0.0000       2.124931        57.8223 
 369   0.0000       2.134834        58.0918 
 370   0.0000       2.139671        58.2234 
 371   0.0000       2.141420        58.2710 
 372   0.0000       2.144336        58.3503 
 373   0.0000       2.154799        58.6351 
 374   0.0000       2.160378        58.7869 
 375   0.0000       2.167709        58.9864 
 376   0.0000       2.171400        59.0868 
 377   0.0000       2.178142        59.2702 
 378   0.0000       2.183425        59.4140 
 379   0.0000       2.190794        59.6145 
 380   0.0000       2.198918        59.8356 
 381   0.0000       2.210292        60.1451 
 382   0.0000       2.219723        60.4017 
 383   0.0000       2.225119        60.5486 
 384   0.0000       2.236300        60.8528 
 385   0.0000       2.241925        61.0059 
 386   0.0000       2.262097        61.5548 
 387   0.0000       2.272094        61.8268 
 388   0.0000       2.282944        62.1221 
 389   0.0000       2.293548        62.4106 
 390   0.0000       2.300499        62.5998 
 391   0.0000       2.308928        62.8291 
 392   0.0000       2.314301        62.9753 
 393   0.0000       2.327149        63.3249 
 394   0.0000       2.344390        63.7941 
 395   0.0000       2.361441        64.2581 
 396   0.0000       2.372834        64.5681 
 397   0.0000       2.383109        64.8477 
 398   0.0000       2.388522        64.9950 
 399   0.0000       2.404636        65.4335 
 400   0.0000       2.411863        65.6301 
 401   0.0000       2.420014        65.8519 
 402   0.0000       2.427037        66.0430 
 403   0.0000       2.444201        66.5101 
 404   0.0000       2.461227        66.9734 
 405   0.0000       2.474215        67.3268 
 406   0.0000       2.482236        67.5451 
 407   0.0000       2.487931        67.7000 
 408   0.0000       2.501828        68.0782 
 409   0.0000       2.503629        68.1272 
 410   0.0000       2.527339        68.7724 
 411   0.0000       2.544867        69.2494 
 412   0.0000       2.562791        69.7371 
 413   0.0000       2.580122        70.2087 
 414   0.0000       2.586757        70.3892 
 415   0.0000       2.600159        70.7539 
 416   0.0000       2.613666        71.1215 
 417   0.0000       2.618818        71.2617 
 418   0.0000       2.632531        71.6348 
 419   0.0000       2.635733        71.7219 
 420   0.0000       2.653883        72.2158 
 421   0.0000       2.665744        72.5386 
 422   0.0000       2.677755        72.8654 
 423   0.0000       2.685365        73.0725 
 424   0.0000       2.697226        73.3953 
 425   0.0000       2.714589        73.8677 
 426   0.0000       2.727297        74.2135 
 427   0.0000       2.736388        74.4609 
 428   0.0000       2.759653        75.0940 
 429   0.0000       2.763736        75.2051 
 430   0.0000       2.772589        75.4460 
 431   0.0000       2.779790        75.6419 
 432   0.0000       2.790662        75.9378 
 433   0.0000       2.811419        76.5026 
 434   0.0000       2.813160        76.5500 
 435   0.0000       2.823815        76.8399 
 436   0.0000       2.832389        77.0732 
 437   0.0000       2.861284        77.8595 
 438   0.0000       2.861592        77.8679 
 439   0.0000       2.889493        78.6271 
 440   0.0000       2.915066        79.3230 
 441   0.0000       2.925349        79.6028 
 442   0.0000       2.937645        79.9374 
 443   0.0000       2.961028        80.5737 
 444   0.0000       2.987643        81.2979 
 445   0.0000       3.007338        81.8338 
 446   0.0000       3.021004        82.2057 
 447   0.0000       3.056442        83.1700 
 448   0.0000       3.100028        84.3561 
 449   0.0000       3.114925        84.7614 
 450   0.0000       3.136195        85.3402 
 451   0.0000       3.144572        85.5681 
 452   0.0000       3.163799        86.0913 
 453   0.0000       3.182463        86.5992 
 454   0.0000       3.197417        87.0061 
 455   0.0000       3.210100        87.3513 
 456   0.0000       3.221389        87.6584 
 457   0.0000       3.238928        88.1357 
 458   0.0000       3.253837        88.5414 
 459   0.0000       3.269482        88.9671 
 460   0.0000       3.287802        89.4656 
 461   0.0000       3.294388        89.6448 
 462   0.0000       3.303963        89.9054 
 463   0.0000       3.314659        90.1965 
 464   0.0000       3.331230        90.6474 
 465   0.0000       3.332413        90.6796 
 466   0.0000       3.361120        91.4607 
 467   0.0000       3.375968        91.8648 
 468   0.0000       3.401755        92.5665 
 469   0.0000       3.428006        93.2808 
 470   0.0000       3.433614        93.4334 
 471   0.0000       3.452804        93.9556 
 472   0.0000       3.472144        94.4818 
 473   0.0000       3.524399        95.9038 
 474   0.0000       3.564733        97.0013 
 475   0.0000       3.611591        98.2764 
 476   0.0000       3.641279        99.0842 
 477   0.0000       3.718002       101.1720 
 478   0.0000       3.720915       101.2513 
 479   0.0000       3.910376       106.4067 
 480   0.0000       3.938266       107.1657 
 481   0.0000       4.233295       115.1938 

                    ********************************
                    * MULLIKEN POPULATION ANALYSIS *
                    ********************************

-----------------------
MULLIKEN ATOMIC CHARGES
-----------------------
   0 C :    0.559892
   1 C :    0.454102
   2 C :    0.012858
   3 H :    0.252450
   4 H :   -0.052790
   5 C :    0.743278
   6 C :   -0.511513
   7 N :    0.386601
   8 C :    0.953232
   9 H :   -0.765221
  10 H :   -0.086674
  11 H :    0.097498
  12 H :   -0.545417
  13 F :   -0.473134
  14 O :   -0.586968
  15 C :    0.115959
  16 C :   -0.238814
  17 C :   -0.204101
  18 H :   -0.157827
  19 H :   -0.050866
  20 H :   -0.024443
  21 H :    0.073345
  22 C :    0.179660
  23 H :    0.080135
  24 H :   -0.275986
  25 C :   -0.033053
  26 H :   -0.435804
  27 H :   -0.003285
  28 C :    0.751995
  29 H :    0.157272
  30 H :   -0.319526
  31 H :    0.167350
  32 H :   -0.449949
  33 H :    0.104384
  34 H :    0.004952
  35 H :    0.161960
  36 H :   -0.041553
Sum of atomic charges:   -0.0000000

--------------------------------
MULLIKEN REDUCED ORBITAL CHARGES
--------------------------------
  0 C s       :     2.575549  s :     2.575549
      pz      :     0.872808  p :     2.680973
      px      :     0.972766
      py      :     0.835399
      dz2     :     0.105423  d :     0.183586
      dxz     :     0.020952
      dyz     :     0.038216
      dx2y2   :     0.029299
      dxy     :    -0.010305
  1 C s       :     2.542228  s :     2.542228
      pz      :     0.834692  p :     2.677528
      px      :     0.981460
      py      :     0.861377
      dz2     :     0.100175  d :     0.326141
      dxz     :    -0.004649
      dyz     :     0.104974
      dx2y2   :     0.059451
      dxy     :     0.066190
  2 C s       :     2.780250  s :     2.780250
      pz      :     0.895151  p :     2.916256
      px      :     0.994115
      py      :     1.026990
      dz2     :     0.054770  d :     0.290636
      dxz     :     0.080387
      dyz     :     0.027883
      dx2y2   :     0.094747
      dxy     :     0.032849
  3 H s       :     0.746051  s :     0.746051
      pz      :    -0.016322  p :     0.001499
      px      :    -0.020321
      py      :     0.038141
  4 H s       :     1.033608  s :     1.033608
      pz      :     0.025240  p :     0.019182
      px      :     0.001554
      py      :    -0.007612
  5 C s       :     2.926573  s :     2.926573
      pz      :     0.622887  p :     2.052845
      px      :     0.668806
      py      :     0.761152
      dz2     :     0.038973  d :     0.277304
      dxz     :    -0.002003
      dyz     :     0.054989
      dx2y2   :     0.074123
      dxy     :     0.111221
  6 C s       :     3.044035  s :     3.044035
      pz      :     0.865432  p :     2.689289
      px      :     0.948521
      py      :     0.875336
      dz2     :     0.056856  d :     0.778189
      dxz     :     0.083929
      dyz     :     0.147632
      dx2y2   :     0.122030
      dxy     :     0.367742
  7 N s       :     2.951057  s :     2.951057
      pz      :     1.497088  p :     3.680808
      px      :     1.112598
      py      :     1.071122
      dz2     :     0.000472  d :    -0.018467
      dxz     :     0.014386
      dyz     :    -0.013555
      dx2y2   :    -0.006970
      dxy     :    -0.012800
  8 C s       :     2.349535  s :     2.349535
      pz      :     0.998963  p :     2.583648
      px      :     0.690337
      py      :     0.894348
      dz2     :     0.007623  d :     0.113585
      dxz     :    -0.001455
      dyz     :     0.028776
      dx2y2   :     0.026677
      dxy     :     0.051964
  9 H s       :     1.699342  s :     1.699342
      pz      :    -0.009358  p :     0.065879
      px      :     0.026391
      py      :     0.048846
 10 H s       :     1.103648  s :     1.103648
      pz      :     0.029302  p :    -0.016974
      px      :    -0.032578
      py      :    -0.013698
 11 H s       :     0.914191  s :     0.914191
      pz      :     0.012442  p :    -0.011689
      px      :     0.003266
      py      :    -0.027396
 12 H s       :     1.416027  s :     1.416027
      pz      :     0.099636  p :     0.129390
      px      :     0.048487
      py      :    -0.018733
 13 F s       :     4.078193  s :     4.078193
      pz      :     1.924074  p :     5.355585
      px      :     1.582215
      py      :     1.849296
      dz2     :     0.004818  d :     0.039355
      dxz     :     0.011950
      dyz     :     0.004388
      dx2y2   :     0.010072
      dxy     :     0.008127
 14 O s       :     3.919354  s :     3.919354
      pz      :     1.488345  p :     4.637180
      px      :     1.797495
      py      :     1.351340
      dz2     :     0.003720  d :     0.030435
      dxz     :     0.006515
      dyz     :     0.009806
      dx2y2   :     0.008523
      dxy     :     0.001870
 15 C s       :     2.782430  s :     2.782430
      pz      :     0.803815  p :     2.739067
      px      :     0.930417
      py      :     1.004835
      dz2     :    -0.004770  d :     0.362544
      dxz     :     0.122074
      dyz     :     0.149527
      dx2y2   :     0.028857
      dxy     :     0.066856
 16 C s       :     2.877767  s :     2.877767
      pz      :     0.967581  p :     2.760370
      px      :     0.896088
      py      :     0.896701
      dz2     :     0.107619  d :     0.600677
      dxz     :     0.141081
      dyz     :     0.117067
      dx2y2   :     0.086103
      dxy     :     0.148807
 17 C s       :     2.841526  s :     2.841526
      pz      :     0.863422  p :     2.809667
      px      :     0.997410
      py      :     0.948834
      dz2     :     0.119788  d :     0.552909
      dxz     :     0.163950
      dyz     :     0.081524
      dx2y2   :     0.066646
      dxy     :     0.121001
 18 H s       :     1.144699  s :     1.144699
      pz      :     0.001901  p :     0.013128
      px      :     0.006070
      py      :     0.005157
 19 H s       :     0.985522  s :     0.985522
      pz      :     0.000244  p :     0.065345
      px      :     0.043902
      py      :     0.021198
 20 H s       :     1.026355  s :     1.026355
      pz      :    -0.001192  p :    -0.001912
      px      :     0.017991
      py      :    -0.018711
 21 H s       :     0.962039  s :     0.962039
      pz      :    -0.026895  p :    -0.035384
      px      :     0.007945
      py      :    -0.016434
 22 C s       :     2.572334  s :     2.572334
      pz      :     0.920050  p :     2.781895
      px      :     0.942126
      py      :     0.919718
      dz2     :     0.172471  d :     0.466111
      dxz     :     0.001430
      dyz     :     0.112159
      dx2y2   :     0.006008
      dxy     :     0.174043
 23 H s       :     0.916078  s :     0.916078
      pz      :    -0.043475  p :     0.003787
      px      :     0.026980
      py      :     0.020281
 24 H s       :     1.250245  s :     1.250245
      pz      :     0.038434  p :     0.025741
      px      :    -0.012962
      py      :     0.000269
 25 C s       :     2.809276  s :     2.809276
      pz      :     0.881853  p :     2.713411
      px      :     0.884390
      py      :     0.947168
      dz2     :     0.068714  d :     0.510365
      dxz     :     0.103233
      dyz     :     0.192917
      dx2y2   :     0.070531
      dxy     :     0.074970
 26 H s       :     1.201273  s :     1.201273
      pz      :     0.120743  p :     0.234531
      px      :     0.073292
      py      :     0.040496
 27 H s       :     0.964739  s :     0.964739
      pz      :    -0.003856  p :     0.038546
      px      :     0.031962
      py      :     0.010440
 28 C s       :     2.358833  s :     2.358833
      pz      :     1.006976  p :     2.691731
      px      :     0.780359
      py      :     0.904397
      dz2     :     0.006826  d :     0.197441
      dxz     :     0.021388
      dyz     :     0.044121
      dx2y2   :     0.042575
      dxy     :     0.082530
 29 H s       :     0.836211  s :     0.836211
      pz      :    -0.022629  p :     0.006517
      px      :     0.004449
      py      :     0.024697
 30 H s       :     1.301252  s :     1.301252
      pz      :     0.026488  p :     0.018274
      px      :    -0.008004
      py      :    -0.000210
 31 H s       :     0.849927  s :     0.849927
      pz      :    -0.034557  p :    -0.017277
      px      :    -0.002181
      py      :     0.019462
 32 H s       :     1.401213  s :     1.401213
      pz      :    -0.008343  p :     0.048736
      px      :     0.016052
      py      :     0.041027
 33 H s       :     0.911617  s :     0.911617
      pz      :     0.018059  p :    -0.016001
      px      :    -0.002155
      py      :    -0.031905
 34 H s       :     1.010409  s :     1.010409
      pz      :    -0.005809  p :    -0.015361
      px      :    -0.008764
      py      :    -0.000788
 35 H s       :     0.837605  s :     0.837605
      pz      :    -0.019655  p :     0.000435
      px      :     0.037369
      py      :    -0.017279
 36 H s       :     1.016988  s :     1.016988
      pz      :     0.004146  p :     0.024565
      px      :    -0.017900
      py      :     0.038318


                     *******************************
                     * LOEWDIN POPULATION ANALYSIS *
                     *******************************

----------------------
LOEWDIN ATOMIC CHARGES
----------------------
   0 C :    0.015512
   1 C :   -0.012776
   2 C :    0.065539
   3 H :    0.034631
   4 H :    0.055393
   5 C :    0.073544
   6 C :   -0.267781
   7 N :    0.207090
   8 C :    0.157646
   9 H :   -0.145621
  10 H :   -0.081473
  11 H :    0.020078
  12 H :   -0.110996
  13 F :   -0.034140
  14 O :   -0.136670
  15 C :   -0.018017
  16 C :   -0.035191
  17 C :   -0.031240
  18 H :    0.034504
  19 H :    0.008082
  20 H :    0.035407
  21 H :    0.028313
  22 C :   -0.030864
  23 H :    0.017558
  24 H :    0.025001
  25 C :   -0.041244
  26 H :   -0.016057
  27 H :    0.038008
  28 C :   -0.030956
  29 H :    0.016768
  30 H :    0.024678
  31 H :    0.010979
  32 H :    0.027595
  33 H :    0.023149
  34 H :    0.023957
  35 H :    0.024489
  36 H :    0.025105

-------------------------------
LOEWDIN REDUCED ORBITAL CHARGES
-------------------------------
  0 C s       :     2.682712  s :     2.682712
      pz      :     0.881547  p :     2.683078
      px      :     0.898462
      py      :     0.903070
      dz2     :     0.154894  d :     0.618698
      dxz     :     0.121895
      dyz     :     0.134750
      dx2y2   :     0.110732
      dxy     :     0.096427
  1 C s       :     2.677393  s :     2.677393
      pz      :     0.887484  p :     2.683247
      px      :     0.894249
      py      :     0.901514
      dz2     :     0.115304  d :     0.652135
      dxz     :     0.134494
      dyz     :     0.166269
      dx2y2   :     0.080832
      dxy     :     0.155237
  2 C s       :     2.676995  s :     2.676995
      pz      :     0.901427  p :     2.687571
      px      :     0.878260
      py      :     0.907884
      dz2     :     0.086171  d :     0.569895
      dxz     :     0.135487
      dyz     :     0.117121
      dx2y2   :     0.106437
      dxy     :     0.124679
  3 H s       :     0.710032  s :     0.710032
      pz      :     0.087443  p :     0.255337
      px      :     0.073746
      py      :     0.094148
  4 H s       :     0.702604  s :     0.702604
      pz      :     0.093288  p :     0.242003
      px      :     0.079148
      py      :     0.069568
  5 C s       :     2.637513  s :     2.637513
      pz      :     0.649186  p :     2.238195
      px      :     0.777995
      py      :     0.811014
      dz2     :     0.142574  d :     1.050748
      dxz     :     0.171345
      dyz     :     0.174979
      dx2y2   :     0.260635
      dxy     :     0.301214
  6 C s       :     2.657476  s :     2.657476
      pz      :     0.767618  p :     2.543323
      px      :     0.831167
      py      :     0.944538
      dz2     :     0.162105  d :     1.066982
      dxz     :     0.197081
      dyz     :     0.222938
      dx2y2   :     0.243880
      dxy     :     0.240979
  7 N s       :     2.908998  s :     2.908998
      pz      :     1.291178  p :     3.508091
      px      :     1.131590
      py      :     1.085323
      dz2     :     0.047263  d :     0.375821
      dxz     :     0.080905
      dyz     :     0.039778
      dx2y2   :     0.087378
      dxy     :     0.120496
  8 C s       :     2.717971  s :     2.717971
      pz      :     0.906195  p :     2.759797
      px      :     0.911480
      py      :     0.942123
      dz2     :     0.034162  d :     0.364586
      dxz     :     0.042362
      dyz     :     0.080209
      dx2y2   :     0.084565
      dxy     :     0.123288
  9 H s       :     0.707759  s :     0.707759
      pz      :     0.119917  p :     0.437862
      px      :     0.186408
      py      :     0.131537
 10 H s       :     0.760543  s :     0.760543
      pz      :     0.126047  p :     0.320930
      px      :     0.114993
      py      :     0.079890
 11 H s       :     0.646657  s :     0.646657
      pz      :     0.118596  p :     0.333265
      px      :     0.082008
      py      :     0.132660
 12 H s       :     0.601896  s :     0.601896
      pz      :     0.130721  p :     0.509101
      px      :     0.201172
      py      :     0.177208
 13 F s       :     3.580550  s :     3.580550
      pz      :     1.790669  p :     5.188207
      px      :     1.614651
      py      :     1.782886
      dz2     :     0.035230  d :     0.265383
      dxz     :     0.045515
      dyz     :     0.014229
      dx2y2   :     0.075299
      dxy     :     0.095110
 14 O s       :     3.414556  s :     3.414556
      pz      :     1.410533  p :     4.466832
      px      :     1.658815
      py      :     1.397484
      dz2     :     0.036928  d :     0.255282
      dxz     :     0.019230
      dyz     :     0.064514
      dx2y2   :     0.051772
      dxy     :     0.082838
 15 C s       :     2.681986  s :     2.681986
      pz      :     0.877455  p :     2.677972
      px      :     0.898666
      py      :     0.901851
      dz2     :     0.120772  d :     0.658059
      dxz     :     0.136892
      dyz     :     0.153945
      dx2y2   :     0.096387
      dxy     :     0.150064
 16 C s       :     2.677265  s :     2.677265
      pz      :     0.886937  p :     2.680752
      px      :     0.895408
      py      :     0.898406
      dz2     :     0.130253  d :     0.677174
      dxz     :     0.161252
      dyz     :     0.155097
      dx2y2   :     0.087128
      dxy     :     0.143444
 17 C s       :     2.675320  s :     2.675320
      pz      :     0.884393  p :     2.679234
      px      :     0.894659
      py      :     0.900182
      dz2     :     0.116326  d :     0.676686
      dxz     :     0.157234
      dyz     :     0.152892
      dx2y2   :     0.088150
      dxy     :     0.162083
 18 H s       :     0.722367  s :     0.722367
      pz      :     0.082818  p :     0.243129
      px      :     0.084952
      py      :     0.075359
 19 H s       :     0.706671  s :     0.706671
      pz      :     0.095700  p :     0.285247
      px      :     0.099054
      py      :     0.090492
 20 H s       :     0.721531  s :     0.721531
      pz      :     0.076081  p :     0.243062
      px      :     0.084548
      py      :     0.082432
 21 H s       :     0.719859  s :     0.719859
      pz      :     0.085543  p :     0.251828
      px      :     0.078890
      py      :     0.087395
 22 C s       :     2.675514  s :     2.675514
      pz      :     0.891456  p :     2.670766
      px      :     0.889463
      py      :     0.889847
      dz2     :     0.131656  d :     0.684584
      dxz     :     0.123859
      dyz     :     0.145920
      dx2y2   :     0.109864
      dxy     :     0.173285
 23 H s       :     0.718737  s :     0.718737
      pz      :     0.077348  p :     0.263705
      px      :     0.106518
      py      :     0.079840
 24 H s       :     0.730565  s :     0.730565
      pz      :     0.091097  p :     0.244435
      px      :     0.080753
      py      :     0.072585
 25 C s       :     2.680800  s :     2.680800
      pz      :     0.899664  p :     2.684563
      px      :     0.890960
      py      :     0.893939
      dz2     :     0.115361  d :     0.675881
      dxz     :     0.134493
      dyz     :     0.147253
      dx2y2   :     0.116664
      dxy     :     0.162109
 26 H s       :     0.694376  s :     0.694376
      pz      :     0.126845  p :     0.321681
      px      :     0.102281
      py      :     0.092555
 27 H s       :     0.726290  s :     0.726290
      pz      :     0.068768  p :     0.235702
      px      :     0.090998
      py      :     0.075935
 28 C s       :     2.682833  s :     2.682833
      pz      :     0.895505  p :     2.690816
      px      :     0.897878
      py      :     0.897433
      dz2     :     0.096937  d :     0.657307
      dxz     :     0.144782
      dyz     :     0.152794
      dx2y2   :     0.112047
      dxy     :     0.150747
 29 H s       :     0.715874  s :     0.715874
      pz      :     0.083167  p :     0.267358
      px      :     0.095747
      py      :     0.088444
 30 H s       :     0.732026  s :     0.732026
      pz      :     0.099263  p :     0.243297
      px      :     0.072131
      py      :     0.071903
 31 H s       :     0.712655  s :     0.712655
      pz      :     0.092391  p :     0.276366
      px      :     0.102832
      py      :     0.081142
 32 H s       :     0.726482  s :     0.726482
      pz      :     0.069620  p :     0.245924
      px      :     0.082982
      py      :     0.093321
 33 H s       :     0.727919  s :     0.727919
      pz      :     0.084533  p :     0.248933
      px      :     0.097975
      py      :     0.066424
 34 H s       :     0.729698  s :     0.729698
      pz      :     0.074330  p :     0.246345
      px      :     0.091665
      py      :     0.080350
 35 H s       :     0.719312  s :     0.719312
      pz      :     0.065280  p :     0.256199
      px      :     0.101988
      py      :     0.088932
 36 H s       :     0.729299  s :     0.729299
      pz      :     0.069071  p :     0.245596
      px      :     0.065530
      py      :     0.110995


                      *****************************
                      * MAYER POPULATION ANALYSIS *
                      *****************************

  NA   - Mulliken gross atomic population
  ZA   - Total nuclear charge
  QA   - Mulliken gross atomic charge
  VA   - Mayer's total valence
  BVA  - Mayer's bonded valence
  FA   - Mayer's free valence

  ATOM       NA         ZA         QA         VA         BVA        FA
  0 C      5.4401     6.0000     0.5599     4.0301     4.0301     0.0000
  1 C      5.5459     6.0000     0.4541     4.2735     4.2735    -0.0000
  2 C      5.9871     6.0000     0.0129     4.4549     4.4549    -0.0000
  3 H      0.7475     1.0000     0.2525     0.9344     0.9344     0.0000
  4 H      1.0528     1.0000    -0.0528     1.1344     1.1344    -0.0000
  5 C      5.2567     6.0000     0.7433     3.9645     3.9645    -0.0000
  6 C      6.5115     6.0000    -0.5115     5.5385     5.5385     0.0000
  7 N      6.6134     7.0000     0.3866     3.4779     3.4779    -0.0000
  8 C      5.0468     6.0000     0.9532     3.1217     3.1217    -0.0000
  9 H      1.7652     1.0000    -0.7652     0.7046     0.7046    -0.0000
 10 H      1.0867     1.0000    -0.0867     0.8903     0.8903    -0.0000
 11 H      0.9025     1.0000     0.0975     0.7506     0.7506    -0.0000
 12 H      1.5454     1.0000    -0.5454     0.8978     0.8978     0.0000
 13 F      9.4731     9.0000    -0.4731     1.0056     1.0056    -0.0000
 14 O      8.5870     8.0000    -0.5870     1.9614     1.9614     0.0000
 15 C      5.8840     6.0000     0.1160     4.7683     4.7683    -0.0000
 16 C      6.2388     6.0000    -0.2388     5.2314     5.2314    -0.0000
 17 C      6.2041     6.0000    -0.2041     5.1462     5.1462    -0.0000
 18 H      1.1578     1.0000    -0.1578     1.0791     1.0791    -0.0000
 19 H      1.0509     1.0000    -0.0509     1.2504     1.2504    -0.0000
 20 H      1.0244     1.0000    -0.0244     1.0113     1.0113    -0.0000
 21 H      0.9267     1.0000     0.0733     0.9240     0.9240    -0.0000
 22 C      5.8203     6.0000     0.1797     4.8209     4.8209    -0.0000
 23 H      0.9199     1.0000     0.0801     0.9705     0.9705    -0.0000
 24 H      1.2760     1.0000    -0.2760     1.0757     1.0757     0.0000
 25 C      6.0331     6.0000    -0.0331     4.9652     4.9652     0.0000
 26 H      1.4358     1.0000    -0.4358     1.4159     1.4159    -0.0000
 27 H      1.0033     1.0000    -0.0033     1.0623     1.0623    -0.0000
 28 C      5.2480     6.0000     0.7520     3.5451     3.5451     0.0000
 29 H      0.8427     1.0000     0.1573     0.9839     0.9839     0.0000
 30 H      1.3195     1.0000    -0.3195     1.1109     1.1109     0.0000
 31 H      0.8327     1.0000     0.1673     1.0338     1.0338    -0.0000
 32 H      1.4499     1.0000    -0.4499     1.1336     1.1336    -0.0000
 33 H      0.8956     1.0000     0.1044     0.9188     0.9188    -0.0000
 34 H      0.9950     1.0000     0.0050     0.9687     0.9687     0.0000
 35 H      0.8380     1.0000     0.1620     0.9035     0.9035    -0.0000
 36 H      1.0416     1.0000    -0.0416     1.1003     1.1003     0.0000

  Mayer bond orders larger than 0.100000
B(  0-C ,  6-C ) :   1.3284 B(  0-C ,  8-C ) :   0.1115 B(  0-C , 15-C ) :   1.1105 
B(  0-C , 23-H ) :   0.1072 B(  0-C , 24-H ) :   0.1194 B(  0-C , 35-H ) :   0.7460 
B(  0-C , 36-H ) :   0.5693 B(  1-C ,  2-C ) :   1.2075 B(  1-C ,  4-H ) :   0.1661 
B(  1-C , 17-C ) :   1.2374 B(  1-C , 20-H ) :   0.7829 B(  1-C , 21-H ) :   0.6645 
B(  2-C ,  3-H ) :   0.8268 B(  2-C ,  4-H ) :   0.7233 B(  2-C ,  5-C ) :   1.2279 
B(  2-C , 20-H ) :   0.1382 B(  2-C , 21-H ) :   0.1111 B(  3-H ,  5-C ) :   0.1291 
B(  4-H ,  5-C ) :   0.2421 B(  5-C , 13-F ) :   0.6442 B(  5-C , 14-O ) :   1.5841 
B(  6-C ,  7-N ) :   0.9614 B(  6-C ,  8-C ) :   2.0829 B(  6-C ,  9-H ) :   0.3798 
B(  6-C , 10-H ) :   0.2778 B(  6-C , 35-H ) :   0.1513 B(  6-C , 36-H ) :   0.2949 
B(  7-N ,  8-C ) :   0.3648 B(  7-N , 11-H ) :   0.9639 B(  7-N , 12-H ) :   1.0416 
B(  8-C , 10-H ) :   0.7020 B(  9-H , 13-F ) :   0.2178 B( 11-H , 12-H ) :  -0.2362 
B( 12-H , 14-O ) :   0.1979 B( 15-C , 22-C ) :   1.1129 B( 15-C , 23-H ) :   0.8411 
B( 15-C , 24-H ) :   0.9425 B( 15-C , 26-H ) :   0.1208 B( 15-C , 27-H ) :   0.1024 
B( 15-C , 35-H ) :   0.1450 B( 15-C , 36-H ) :   0.1756 B( 16-C , 17-C ) :   1.2596 
B( 16-C , 18-H ) :   0.1773 B( 16-C , 19-H ) :   0.1199 B( 16-C , 25-C ) :   0.1185 
B( 16-C , 28-C ) :   1.0763 B( 16-C , 31-H ) :   0.8166 B( 16-C , 32-H ) :   1.1576 
B( 16-C , 33-H ) :   0.1434 B( 16-C , 34-H ) :   0.2649 B( 17-C , 18-H ) :   0.9008 
B( 17-C , 19-H ) :   0.9440 B( 17-C , 20-H ) :   0.1952 B( 17-C , 21-H ) :   0.2360 
B( 17-C , 32-H ) :   0.1321 B( 20-H , 21-H ) :  -0.1078 B( 22-C , 23-H ) :   0.1185 
B( 22-C , 24-H ) :   0.2036 B( 22-C , 25-C ) :   1.1770 B( 22-C , 26-H ) :   0.9553 
B( 22-C , 27-H ) :   0.7418 B( 22-C , 29-H ) :   0.1210 B( 22-C , 30-H ) :   0.2411 
B( 25-C , 27-H ) :   0.1122 B( 25-C , 28-C ) :   1.1496 B( 25-C , 29-H ) :   0.8191 
B( 25-C , 30-H ) :   0.9780 B( 25-C , 33-H ) :   0.2055 B( 25-C , 34-H ) :   0.1538 
B( 26-H , 27-H ) :   0.2038 B( 26-H , 31-H ) :   0.1719 B( 28-C , 33-H ) :   0.6626 
B( 28-C , 34-H ) :   0.6410 B( 33-H , 34-H ) :  -0.1022 

-------
TIMINGS
-------

Total SCF time: 0 days 0 hours 1 min 36 sec 

Total time                  ....      96.074 sec
Sum of individual times     ....      94.828 sec  ( 98.7%)

Fock matrix formation       ....      90.936 sec  ( 94.7%)
  Split-RI-J                ....       4.289 sec  (  4.7% of F)
  Chain of spheres X        ....      72.963 sec  ( 80.2% of F)
  XC integration            ....       6.543 sec  (  7.2% of F)
    Basis function eval.    ....       1.486 sec  ( 22.7% of XC)
    Density eval.           ....       2.050 sec  ( 31.3% of XC)
    XC-Functional eval.     ....       0.194 sec  (  3.0% of XC)
    XC-Potential eval.      ....       1.888 sec  ( 28.9% of XC)
Diagonalization             ....       0.531 sec  (  0.6%)
Density matrix formation    ....       0.040 sec  (  0.0%)
Population analysis         ....       0.069 sec  (  0.1%)
Initial guess               ....       0.395 sec  (  0.4%)
Orbital Transformation      ....       0.000 sec  (  0.0%)
Orbital Orthonormalization  ....       0.000 sec  (  0.0%)
DIIS solution               ....       0.328 sec  (  0.3%)
SOSCF solution              ....       0.352 sec  (  0.4%)
Grid generation             ....       2.177 sec  (  2.3%)

Maximum memory used throughout the entire SCF-calculation: 106.4 MB


-------------------------------------------------------------------------------
                          DFT DISPERSION CORRECTION                            
                                                                               
                              DFTD3 V3.1  Rev 1                                
                              USING zero damping                               
-------------------------------------------------------------------------------
The omegaB97X-D3 functional is recognized. Fit by Chai et al.
Active option DFTDOPT                   ...         3   

molecular C6(AA) [au] = 10415.991379 


            DFT-D V3
 parameters
 s6 scaling factor         :     1.0000 
 rs6 scaling factor        :     1.2810 
 s8 scaling factor         :     1.0000 
 rs8 scaling factor        :     1.0940 
 Damping factor alpha6     :    14.0000 
 Damping factor alpha8     :    16.0000 
 ad hoc parameters k1-k3   :    16.0000     1.3333    -4.0000 

 Edisp/kcal,au: -12.376738441543  -0.019723586070 
 E6   /kcal   :  -5.733405649 
 E8   /kcal   :  -6.643332793 
 % E8         :  53.675956911 

-------------------------   ----------------
Dispersion correction           -0.019723586
-------------------------   ----------------


-------------------------   --------------------
FINAL SINGLE POINT ENERGY      -699.673566471677
-------------------------   --------------------


                            ***************************************
                            *     ORCA property calculations      *
                            ***************************************

                                    ---------------------
                                    Active property flags
                                    ---------------------
   (+) Dipole Moment


------------------------------------------------------------------------------
                       ORCA ELECTRIC PROPERTIES CALCULATION
------------------------------------------------------------------------------

Dipole Moment Calculation                       ... on
Quadrupole Moment Calculation                   ... off
Polarizability Calculation                      ... off
GBWName                                         ... D2_wb97.gbw
Electron density file                           ... D2_wb97.scfp
The origin for moment calculation is the CENTER OF MASS  = ( 3.717277, -0.906355  4.654746)

-------------
DIPOLE MOMENT
-------------
                                X             Y             Z
Electronic contribution:     -0.33973       6.38284      14.73521
Nuclear contribution   :     -1.39991      -5.60370     -16.00470
                        -----------------------------------------
Total Dipole Moment    :     -1.73964       0.77914      -1.26948
                        -----------------------------------------
Magnitude (a.u.)       :      2.29019
Magnitude (Debye)      :      5.82121



--------------------
Rotational spectrum 
--------------------
 
Rotational constants in cm-1:     0.021622     0.017313     0.011402 
Rotational constants in MHz :   648.226014   519.043632   341.814105 

 Dipole components along the rotational axes: 
x,y,z [a.u.] :    -1.749696    -1.473096     0.116364 
x,y,z [Debye]:    -4.447374    -3.744312     0.295773 

 

Timings for individual modules:

Sum of individual times         ...       97.607 sec (=   1.627 min)
GTO integral calculation        ...        1.057 sec (=   0.018 min)   1.1 %
SCF iterations                  ...       96.550 sec (=   1.609 min)  98.9 %
                             ****ORCA TERMINATED NORMALLY****
TOTAL RUN TIME: 0 days 0 hours 1 minutes 38 seconds 320 msec
