
                                        *****************
                                        * O   R   C   A *
                                        *****************

                                            #,                                       
                                            ###                                      
                                            ####                                     
                                            #####                                    
                                            ######                                   
                                           ########,                                 
                                     ,,################,,,,,                         
                               ,,#################################,,                 
                          ,,##########################################,,             
                       ,#########################################, ''#####,          
                    ,#############################################,,   '####,        
                  ,##################################################,,,,####,       
                ,###########''''           ''''###############################       
              ,#####''   ,,,,##########,,,,          '''####'''          '####       
            ,##' ,,,,###########################,,,                        '##       
           ' ,,###''''                  '''############,,,                           
         ,,##''                                '''############,,,,        ,,,,,,###''
      ,#''                                            '''#######################'''  
     '                                                          ''''####''''         
             ,#######,   #######,   ,#######,      ##                                
            ,#'     '#,  ##    ##  ,#'     '#,    #''#        ######   ,####,        
            ##       ##  ##   ,#'  ##            #'  '#       #        #'  '#        
            ##       ##  #######   ##           ,######,      #####,   #    #        
            '#,     ,#'  ##    ##  '#,     ,#' ,#      #,         ##   #,  ,#        
             '#######'   ##     ##  '#######'  #'      '#     #####' # '####'        



                  #######################################################
                  #                        -***-                        #
                  #          Department of theory and spectroscopy      #
                  #    Directorship and core code : Frank Neese         #
                  #        Max Planck Institute fuer Kohlenforschung    #
                  #                Kaiser Wilhelm Platz 1               #
                  #                 D-45470 Muelheim/Ruhr               #
                  #                      Germany                        #
                  #                                                     #
                  #                  All rights reserved                #
                  #                        -***-                        #
                  #######################################################


                         Program Version 5.0.0 -  RELEASE  -
                                (SVN: $Rev: 19529$)
                ($Date: 2021-06-28 11:36:33 +0200 (Mo, 28 Jun 2021) $)


 With contributions from (in alphabetic order):
   Daniel Aravena         : Magnetic Suceptibility
   Michael Atanasov       : Ab Initio Ligand Field Theory (pilot matlab implementation)
   Alexander A. Auer      : GIAO ZORA, VPT2 properties, NMR spectrum
   Ute Becker             : Parallelization
   Giovanni Bistoni       : ED, misc. LED, open-shell LED, HFLD
   Martin Brehm           : Molecular dynamics
   Dmytro Bykov           : SCF Hessian
   Vijay G. Chilkuri      : MRCI spin determinant printing, contributions to CSF-ICE
   Dipayan Datta          : RHF DLPNO-CCSD density
   Achintya Kumar Dutta   : EOM-CC, STEOM-CC
   Dmitry Ganyushin       : Spin-Orbit,Spin-Spin,Magnetic field MRCI
   Miquel Garcia          : C-PCM Hessian, Gaussian charge scheme
   Yang Guo               : DLPNO-NEVPT2, F12-NEVPT2, CIM, IAO-localization
   Andreas Hansen         : Spin unrestricted coupled pair/coupled cluster methods
   Benjamin Helmich-Paris : MC-RPA, TRAH-SCF, COSX integrals
   Lee Huntington         : MR-EOM, pCC
   Robert Izsak           : Overlap fitted RIJCOSX, COSX-SCS-MP3, EOM
   Marcus Kettner         : VPT2
   Christian Kollmar      : KDIIS, OOCD, Brueckner-CCSD(T), CCSD density, CASPT2, CASPT2-K
   Simone Kossmann        : Meta GGA functionals, TD-DFT gradient, OOMP2, MP2 Hessian
   Martin Krupicka        : Initial AUTO-CI
   Lucas Lang             : DCDCAS
   Marvin Lechner         : AUTO-CI (C++ implementation), FIC-MRCC
   Dagmar Lenk            : GEPOL surface, SMD
   Dimitrios Liakos       : Extrapolation schemes; Compound Job, initial MDCI parallelization
   Dimitrios Manganas     : Further ROCIS development; embedding schemes
   Dimitrios Pantazis     : SARC Basis sets
   Anastasios Papadopoulos: AUTO-CI, single reference methods and gradients
   Taras Petrenko         : DFT Hessian,TD-DFT gradient, ASA, ECA, R-Raman, ABS, FL, XAS/XES, NRVS
   Peter Pinski           : DLPNO-MP2, DLPNO-MP2 Gradient
   Christoph Reimann      : Effective Core Potentials
   Marius Retegan         : Local ZFS, SOC
   Christoph Riplinger    : Optimizer, TS searches, QM/MM, DLPNO-CCSD(T), (RO)-DLPNO pert. Triples
   Tobias Risthaus        : Range-separated hybrids, TD-DFT gradient, RPA, STAB
   Michael Roemelt        : Original ROCIS implementation
   Masaaki Saitow         : Open-shell DLPNO-CCSD energy and density
   Barbara Sandhoefer     : DKH picture change effects
   Avijit Sen             : IP-ROCIS
   Kantharuban Sivalingam : CASSCF convergence, NEVPT2, FIC-MRCI
   Bernardo de Souza      : ESD, SOC TD-DFT
   Georgi Stoychev        : AutoAux, RI-MP2 NMR
   Willem Van den Heuvel  : Paramagnetic NMR
   Boris Wezisla          : Elementary symmetry handling
   Frank Wennmohs         : Technical directorship


 We gratefully acknowledge several colleagues who have allowed us to
 interface, adapt or use parts of their codes:
   Stefan Grimme, W. Hujo, H. Kruse, P. Pracht,  : VdW corrections, initial TS optimization,
                  C. Bannwarth, S. Ehlert          DFT functionals, gCP, sTDA/sTD-DF
   Ed Valeev, F. Pavosevic, A. Kumar             : LibInt (2-el integral package), F12 methods
   Garnet Chan, S. Sharma, J. Yang, R. Olivares  : DMRG
   Ulf Ekstrom                                   : XCFun DFT Library
   Mihaly Kallay                                 : mrcc  (arbitrary order and MRCC methods)
   Jiri Pittner, Ondrej Demel                    : Mk-CCSD
   Frank Weinhold                                : gennbo (NPA and NBO analysis)
   Christopher J. Cramer and Donald G. Truhlar   : smd solvation model
   Lars Goerigk                                  : TD-DFT with DH, B97 family of functionals
   V. Asgeirsson, H. Jonsson                     : NEB implementation
   FAccTs GmbH                                   : IRC, NEB, NEB-TS, DLPNO-Multilevel, CI-OPT
                                                   MM, QMMM, 2- and 3-layer-ONIOM, Crystal-QMMM,
                                                   LR-CPCM, SF, NACMEs, symmetry and pop. for TD-DFT,
                                                   nearIR, NL-DFT gradient (VV10), updates on ESD,
                                                   ML-optimized integration grids
   S Lehtola, MJT Oliveira, MAL Marques          : LibXC Library
   Liviu Ungur et al                             : ANISO software


 Your calculation uses the libint2 library for the computation of 2-el integrals
 For citations please refer to: http://libint.valeyev.net

 Your ORCA version has been built with support for libXC version: 5.1.0
 For citations please refer to: https://tddft.org/programs/libxc/

 This ORCA versions uses:
   CBLAS   interface :  Fast vector & matrix operations
   LAPACKE interface :  Fast linear algebra routines
   SCALAPACK package :  Parallel linear algebra routines
   Shared memory     :  Shared parallel matrices
   BLAS/LAPACK       :  OpenBLAS 0.3.15  USE64BITINT DYNAMIC_ARCH NO_AFFINITY Haswell SINGLE_THREADED
        Core in use  :  Haswell
   Copyright (c) 2011-2014, The OpenBLAS Project


XCFun DFT library Copyright 2009-2010 Ulf Ekstrom and contributors.
See http://admol.org/xcfun for more information.
This is free software; see the source code for copying conditions.
There is ABSOLUTELY NO WARRANTY; not even for MERCHANTABILITY or FITNESS FOR A PARTICULAR PURPOSE.
For details see the documentation.
Scientific users of this library should cite U. Ekstrom, L. Visscher, R. Bast, A. J. Thorvaldsen and K. Ruud;
J.Chem.Theor.Comp. 2010, DOI: 10.1021/ct100117s
XCFun Version 0.99 

================================================================================

----- Orbital basis set information -----
Your calculation utilizes the basis: def2-SVPD
   F. Weigend and R. Ahlrichs, Phys. Chem. Chem. Phys. 7, 3297 (2005).
   D. Rappoport and F. Furche, J. Chem. Phys. 133 134105 (2010).

----- AuxJ basis set information -----
Your calculation utilizes the auxiliary basis: def2/J
   F. Weigend, Phys. Chem. Chem. Phys. 8, 1057 (2006).

================================================================================
                                        WARNINGS
                       Please study these warnings very carefully!
================================================================================


INFO   : the flag for use of the SHARK integral package has been found!

================================================================================
                                       INPUT FILE
================================================================================
NAME = SVPD_CAMB3LYP_C3_wt_dlpno_pos.com
|  1> !CAM-B3LYP RIJCOSX def2-SVPD def2/J TightSCF
|  2> *xyz 0 1
|  3> C          1.96337       -1.74915       -1.89689
|  4> N          2.73849       -2.01517       -3.09711
|  5> C          4.04974       -2.15472       -3.15204
|  6> N          4.65821       -1.98629       -4.31866
|  7> C          4.76423       -2.45444       -2.05049
|  8> H          4.28736       -2.77626       -1.21750
|  9> H          5.75082       -2.65835       -2.12599
| 10> H          2.34518       -1.69027       -3.97145
| 11> H          4.10900       -1.59268       -5.07176
| 12> H          5.64910       -2.15646       -4.42724
| 13> C          2.08852       -0.30091       -1.41520
| 14> H          2.23127       -2.45162       -1.10264
| 15> H          0.93025       -1.97780       -2.15544
| 16> H          1.82118        0.36368       -2.21003
| 17> H          3.09792       -0.11068       -1.11551
| 18> H          1.43391       -0.14382       -0.58352
| 19> *
| 20> %MaxCore 64000
| 21> 
| 22> %pal nprocs 4
| 23> end  
| 24> 
| 25> %scf
| 26>   MaxIter 150
| 27> end
| 28> 
| 29> 
| 30>                          ****END OF INPUT****
================================================================================

                       ****************************
                       * Single Point Calculation *
                       ****************************

---------------------------------
CARTESIAN COORDINATES (ANGSTROEM)
---------------------------------
  C      1.963370   -1.749150   -1.896890
  N      2.738490   -2.015170   -3.097110
  C      4.049740   -2.154720   -3.152040
  N      4.658210   -1.986290   -4.318660
  C      4.764230   -2.454440   -2.050490
  H      4.287360   -2.776260   -1.217500
  H      5.750820   -2.658350   -2.125990
  H      2.345180   -1.690270   -3.971450
  H      4.109000   -1.592680   -5.071760
  H      5.649100   -2.156460   -4.427240
  C      2.088520   -0.300910   -1.415200
  H      2.231270   -2.451620   -1.102640
  H      0.930250   -1.977800   -2.155440
  H      1.821180    0.363680   -2.210030
  H      3.097920   -0.110680   -1.115510
  H      1.433910   -0.143820   -0.583520

----------------------------
CARTESIAN COORDINATES (A.U.)
----------------------------
  NO LB      ZA    FRAG     MASS         X           Y           Z
   0 C     6.0000    0    12.011    3.710232   -3.305414   -3.584603
   1 N     7.0000    0    14.007    5.174996   -3.808119   -5.852690
   2 C     6.0000    0    12.011    7.652900   -4.071831   -5.956492
   3 N     7.0000    0    14.007    8.802741   -3.753544   -8.161085
   4 C     6.0000    0    12.011    9.003090   -4.638219   -3.874865
   5 H     1.0000    0     1.008    8.101936   -5.246371   -2.300742
   6 H     1.0000    0     1.008   10.867475   -5.023553   -4.017539
   7 H     1.0000    0     1.008    4.431748   -3.194147   -7.504953
   8 H     1.0000    0     1.008    7.764885   -3.009729   -9.584237
   9 H     1.0000    0     1.008   10.675252   -4.075119   -8.366271
  10 C     6.0000    0    12.011    3.946731   -0.568637   -2.674340
  11 H     1.0000    0     1.008    4.216489   -4.632890   -2.083688
  12 H     1.0000    0     1.008    1.757918   -3.737500   -4.073191
  13 H     1.0000    0     1.008    3.441531    0.687256   -4.176351
  14 H     1.0000    0     1.008    5.854220   -0.209155   -2.108008
  15 H     1.0000    0     1.008    2.709697   -0.271780   -1.102693

--------------------------------
INTERNAL COORDINATES (ANGSTROEM)
--------------------------------
 C      0   0   0     0.000000000000     0.00000000     0.00000000
 N      1   0   0     1.453308536822     0.00000000     0.00000000
 C      2   1   0     1.319798495945   125.70558414     0.00000000
 N      3   2   1     1.326501651036   118.61421616   200.38175597
 C      3   2   1     1.346751811211   121.10321023    20.01727886
 H      5   3   2     1.012346506588   119.59453702    13.56866466
 H      5   3   2     1.010266977685   120.12495650   173.22985716
 H      2   1   3     1.012286126399   116.57303880   207.34688220
 H      4   3   2     1.011790524862   117.06612917    10.99918763
 H      4   3   2     1.011242027113   121.50248980   185.08027543
 C      1   2   3     1.531367648933   112.91044782    74.86377029
 H      1   2   3     1.093648743153   110.58185151   309.76306189
 H      1   2   3     1.089250136286   105.74830411   195.84517559
 H     11   1   2     1.070002463829   109.47038636    55.14781126
 H     11   1   2     1.069995284569   109.47112396   295.14850402
 H     11   1   2     1.069992122681   109.47150790   175.14805691

---------------------------
INTERNAL COORDINATES (A.U.)
---------------------------
 C      0   0   0     0.000000000000     0.00000000     0.00000000
 N      1   0   0     2.746355122684     0.00000000     0.00000000
 C      2   1   0     2.494057709298   125.70558414     0.00000000
 N      3   2   1     2.506724836652   118.61421616   200.38175597
 C      3   2   1     2.544992093551   121.10321023    20.01727886
 H      5   3   2     1.913057650082   119.59453702    13.56866466
 H      5   3   2     1.909127909968   120.12495650   173.22985716
 H      2   1   3     1.912943548062   116.57303880   207.34688220
 H      4   3   2     1.912006996885   117.06612917    10.99918763
 H      4   3   2     1.910970486355   121.50248980   185.08027543
 C      1   2   3     2.893865466831   112.91044782    74.86377029
 H      1   2   3     2.066696611266   110.58185151   309.76306189
 H      1   2   3     2.058384448918   105.74830411   195.84517559
 H     11   1   2     2.022011619258   109.47038636    55.14781126
 H     11   1   2     2.021998052423   109.47112396   295.14850402
 H     11   1   2     2.021992077321   109.47150790   175.14805691

---------------------
BASIS SET INFORMATION
---------------------
There are 3 groups of distinct atoms

 Group   1 Type C   : 8s4p2d contracted to 4s2p2d pattern {5111/31/11}
 Group   2 Type N   : 8s4p2d contracted to 4s2p2d pattern {5111/31/11}
 Group   3 Type H   : 4s2p contracted to 2s2p pattern {31/11}

Atom   0C    basis set group =>   1
Atom   1N    basis set group =>   2
Atom   2C    basis set group =>   1
Atom   3N    basis set group =>   2
Atom   4C    basis set group =>   1
Atom   5H    basis set group =>   3
Atom   6H    basis set group =>   3
Atom   7H    basis set group =>   3
Atom   8H    basis set group =>   3
Atom   9H    basis set group =>   3
Atom  10C    basis set group =>   1
Atom  11H    basis set group =>   3
Atom  12H    basis set group =>   3
Atom  13H    basis set group =>   3
Atom  14H    basis set group =>   3
Atom  15H    basis set group =>   3
---------------------------------
AUXILIARY/J BASIS SET INFORMATION
---------------------------------
There are 3 groups of distinct atoms

 Group   1 Type C   : 12s5p4d2f1g contracted to 6s4p3d1f1g pattern {711111/2111/211/2/1}
 Group   2 Type N   : 12s5p4d2f1g contracted to 6s4p3d1f1g pattern {711111/2111/211/2/1}
 Group   3 Type H   : 5s2p1d contracted to 3s1p1d pattern {311/2/1}

Atom   0C    basis set group =>   1
Atom   1N    basis set group =>   2
Atom   2C    basis set group =>   1
Atom   3N    basis set group =>   2
Atom   4C    basis set group =>   1
Atom   5H    basis set group =>   3
Atom   6H    basis set group =>   3
Atom   7H    basis set group =>   3
Atom   8H    basis set group =>   3
Atom   9H    basis set group =>   3
Atom  10C    basis set group =>   1
Atom  11H    basis set group =>   3
Atom  12H    basis set group =>   3
Atom  13H    basis set group =>   3
Atom  14H    basis set group =>   3
Atom  15H    basis set group =>   3


           ************************************************************
           *        Program running with 4 parallel MPI-processes     *
           *              working on a common directory               *
           ************************************************************
------------------------------------------------------------------------------
                           ORCA GTO INTEGRAL CALCULATION
                           -- RI-GTO INTEGRALS CHOSEN --
------------------------------------------------------------------------------
------------------------------------------------------------------------------
                   ___                                                        
                  /   \      - P O W E R E D   B Y -                         
                 /     \                                                     
                 |  |  |   _    _      __       _____    __    __             
                 |  |  |  | |  | |    /  \     |  _  \  |  |  /  |          
                  \  \/   | |  | |   /    \    | | | |  |  | /  /          
                 / \  \   | |__| |  /  /\  \   | |_| |  |  |/  /          
                |  |  |   |  __  | /  /__\  \  |    /   |      \           
                |  |  |   | |  | | |   __   |  |    \   |  |\   \          
                \     /   | |  | | |  |  |  |  | |\  \  |  | \   \       
                 \___/    |_|  |_| |__|  |__|  |_| \__\ |__|  \__/        
                                                                              
                      - O R C A' S   B I G   F R I E N D -                    
                                      &                                       
                       - I N T E G R A L  F E E D E R -                       
                                                                              
 v1 FN, 2020, v2 2021                                                         
------------------------------------------------------------------------------


Reading SHARK input file SVPD_CAMB3LYP_C3_wt_dlpno_pos.SHARKINP.tmp ... ok
----------------------
SHARK INTEGRAL PACKAGE
----------------------

Number of atoms                             ...     16
Number of basis functions                   ...    200
Number of shells                            ...     88
Maximum angular momentum                    ...      2
Integral batch strategy                     ... SHARK/LIBINT Hybrid
RI-J (if used) integral strategy            ... SPLIT-RIJ (Revised 2003 algorithm where possible)
Printlevel                                  ...      1
Contraction scheme used                     ... SEGMENTED contraction
Coulomb Range Separation                    ... NOT USED
Exchange Range Separation                   ... Long Range
   Mu parameter                             ...  0.330000
   Scaling (regular/separated)              ...  0.190000  0.460000
Finite Nucleus Model                        ... NOT USED
Auxiliary Coulomb fitting basis             ... AVAILABLE
   # of basis functions in Aux-J            ...    404
   # of shells in Aux-J                     ...    140
   Maximum angular momentum in Aux-J        ...      4
Auxiliary J/K fitting basis                 ... NOT available
Auxiliary Correlation fitting basis         ... NOT available
Auxiliary 'external' fitting basis          ... NOT available
Integral threshold                          ...     2.500000e-11
Primitive cut-off                           ...     2.500000e-12
Primitive pair pre-selection threshold      ...     2.500000e-12

Calculating pre-screening integrals         ... done (  0.0 sec) Dimension = 88
Organizing shell pair data                  ... done (  0.0 sec)
Shell pair information
Total number of shell pairs                 ...      3916
Shell pairs after pre-screening             ...      3853
Total number of primitive shell pairs       ...     10548
Primitive shell pairs kept                  ...      8650
          la=0 lb=0:    970 shell pairs
          la=1 lb=0:   1382 shell pairs
          la=1 lb=1:    518 shell pairs
          la=2 lb=0:    523 shell pairs
          la=2 lb=1:    382 shell pairs
          la=2 lb=2:     78 shell pairs

Calculating one electron integrals          ... done (  0.0 sec)
Calculating RI/J V-Matrix + Cholesky decomp.... done (  0.0 sec)
Calculating Nuclear repulsion               ... done (  0.0 sec) ENN=    249.971116437649 Eh

SHARK setup successfully completed in   0.2 seconds

Maximum memory used throughout the entire GTOINT-calculation: 8.9 MB


           ************************************************************
           *        Program running with 4 parallel MPI-processes     *
           *              working on a common directory               *
           ************************************************************
-------------------------------------------------------------------------------
                                 ORCA SCF
-------------------------------------------------------------------------------

------------
SCF SETTINGS
------------
Hamiltonian:
 Density Functional     Method          .... DFT(GTOs)
 Exchange Functional    Exchange        .... WB88
 Correlation Functional Correlation     .... LYP
 LDA part of GGA corr.  LDAOpt          .... VWN-5
 Gradients option       PostSCFGGA      .... off
 Hybrid DFT is turned on
   Fraction HF Exchange ScalHFX         ....  0.190000
   Scaling of DF-GGA-X  ScalDFX         ....  0.350000
   Scaling of DF-GGA-C  ScalDFC         ....  0.810000
   Scaling of DF-LDA-C  ScalLDAC        ....  1.000000
   Perturbative correction              ....  0.000000
   Density functional embedding theory  .... OFF
 Long-range corrected/Screened/Range-Separated Hybrid DFT is turned on
   Amount of maximum screened exact exchange              ....  0.460000
   Range separation parameter mu (erf(mu*r12)/r12)        ....  0.330000
 RI-approximation to the Coulomb term is turned on
   Number of AuxJ basis functions       .... 404
   RIJ-COSX (HFX calculated with COS-X)).... on


General Settings:
 Integral files         IntName         .... SVPD_CAMB3LYP_C3_wt_dlpno_pos
 Hartree-Fock type      HFTyp           .... RHF
 Total Charge           Charge          ....    0
 Multiplicity           Mult            ....    1
 Number of Electrons    NEL             ....   48
 Basis Dimension        Dim             ....  200
 Nuclear Repulsion      ENuc            ....    249.9711164376 Eh

Convergence Acceleration:
 DIIS                   CNVDIIS         .... on
   Start iteration      DIISMaxIt       ....    12
   Startup error        DIISStart       ....  0.200000
   # of expansion vecs  DIISMaxEq       ....     5
   Bias factor          DIISBfac        ....   1.050
   Max. coefficient     DIISMaxC        ....  10.000
 Trust-Rad. Augm. Hess. CNVTRAH         .... auto
   Auto Start mean grad. ratio tolernc. ....  1.125000
   Auto Start start iteration           ....    20
   Auto Start num. interpolation iter.  ....    10
   Max. Number of Micro iterations      ....    16
   Max. Number of Macro iterations      .... Maxiter - #DIIS iter
   Number of Davidson start vectors     ....     2
   Converg. threshold I  (grad. norm)   ....   1.000e-05
   Converg. threshold II (energy diff.) ....   1.000e-08
   Grad. Scal. Fac. for Micro threshold ....   0.100
   Minimum threshold for Micro iter.    ....   0.010
   NR start threshold (gradient norm)   ....   0.001
   Initial trust radius                 ....   0.400
   Minimum AH scaling param. (alpha)    ....   1.000
   Maximum AH scaling param. (alpha)    .... 1000.000
   Orbital update algorithm             .... Taylor
   White noise on init. David. guess    .... on
   Maximum white noise                  ....   0.010
   Quad. conv. algorithm                .... NR
 SOSCF                  CNVSOSCF        .... on
   Start iteration      SOSCFMaxIt      ....   150
   Startup grad/error   SOSCFStart      ....  0.003300
 Level Shifting         CNVShift        .... on
   Level shift para.    LevelShift      ....    0.2500
   Turn off err/grad.   ShiftErr        ....    0.0010
 Zerner damping         CNVZerner       .... off
 Static damping         CNVDamp         .... on
   Fraction old density DampFac         ....    0.7000
   Max. Damping (<1)    DampMax         ....    0.9800
   Min. Damping (>=0)   DampMin         ....    0.0000
   Turn off err/grad.   DampErr         ....    0.1000
 Fernandez-Rico         CNVRico         .... off

SCF Procedure:
 Maximum # iterations   MaxIter         ....   150
 SCF integral mode      SCFMode         .... Direct
   Integral package                     .... SHARK and LIBINT hybrid scheme
 Reset frequency        DirectResetFreq ....    20
 Integral Threshold     Thresh          ....  2.500e-11 Eh
 Primitive CutOff       TCut            ....  2.500e-12 Eh

Convergence Tolerance:
 Convergence Check Mode ConvCheckMode   .... Total+1el-Energy
 Convergence forced     ConvForced      .... 0
 Energy Change          TolE            ....  1.000e-08 Eh
 1-El. energy change                    ....  1.000e-05 Eh
 Orbital Gradient       TolG            ....  1.000e-05
 Orbital Rotation angle TolX            ....  1.000e-05
 DIIS Error             TolErr          ....  5.000e-07


Diagonalization of the overlap matrix:
Smallest eigenvalue                        ... 5.588e-05
Time for diagonalization                   ...    0.012 sec
Threshold for overlap eigenvalues          ... 1.000e-08
Number of eigenvalues below threshold      ... 0
Time for construction of square roots      ...    0.007 sec
Total time needed                          ...    0.020 sec

Time for model grid setup =    0.091 sec

------------------------------
INITIAL GUESS: MODEL POTENTIAL
------------------------------
Loading Hartree-Fock densities                     ... done
Calculating cut-offs                               ... done
Initializing the effective Hamiltonian             ... done
Setting up the integral package (SHARK)            ... done
Starting the Coulomb interaction                   ... done (   0.0 sec)
Reading the grid                                   ... done
Mapping shells                                     ... done
Starting the XC term evaluation                    ... done (   0.1 sec)
  promolecular density results
     # of electrons  =     47.998238588
     EX              =    -36.581387785
     EC              =     -1.576928991
     EX+EC           =    -38.158316776
Transforming the Hamiltonian                       ... done (   0.0 sec)
Diagonalizing the Hamiltonian                      ... done (   0.0 sec)
Back transforming the eigenvectors                 ... done (   0.0 sec)
Now organizing SCF variables                       ... done
                      ------------------
                      INITIAL GUESS DONE (   0.3 sec)
                      ------------------
-------------------
DFT GRID GENERATION
-------------------

General Integration Accuracy     IntAcc      ... 4.388
Radial Grid Type                 RadialGrid  ... OptM3 with GC (2021)
Angular Grid (max. ang.)         AngularGrid ... 4 (Lebedev-302)
Angular grid pruning method      GridPruning ... 4 (adaptive)
Weight generation scheme         WeightScheme... Becke
Basis function cutoff            BFCut       ... 1.0000e-11
Integration weight cutoff        WCut        ... 1.0000e-14
Angular grids for H and He will be reduced by one unit
Partially contracted basis set               ... off
Rotationally invariant grid construction     ... off

Total number of grid points                  ...    70243
Total number of batches                      ...     1106
Average number of points per batch           ...       63
Average number of grid points per atom       ...     4390
Time for grid setup =    0.437 sec

--------------------
COSX GRID GENERATION
--------------------

GRIDX 1
-------
General Integration Accuracy     IntAcc      ... 3.816
Radial Grid Type                 RadialGrid  ... OptM3 with GC (2021)
Angular Grid (max. ang.)         AngularGrid ... 1 (Lebedev-50)
Angular grid pruning method      GridPruning ... 4 (adaptive)
Weight generation scheme         WeightScheme... Becke
Basis function cutoff            BFCut       ... 1.0000e-11
Integration weight cutoff        WCut        ... 1.0000e-14
Angular grids for H and He will be reduced by one unit
Partially contracted basis set               ... on
Rotationally invariant grid construction     ... off

Total number of grid points                  ...     8798
Total number of batches                      ...      148
Average number of points per batch           ...       59
Average number of grid points per atom       ...      550
UseSFitting                                  ... on

GRIDX 2
-------
General Integration Accuracy     IntAcc      ... 4.020
Radial Grid Type                 RadialGrid  ... OptM3 with GC (2021)
Angular Grid (max. ang.)         AngularGrid ... 2 (Lebedev-110)
Angular grid pruning method      GridPruning ... 4 (adaptive)
Weight generation scheme         WeightScheme... Becke
Basis function cutoff            BFCut       ... 1.0000e-11
Integration weight cutoff        WCut        ... 1.0000e-14
Angular grids for H and He will be reduced by one unit
Partially contracted basis set               ... on
Rotationally invariant grid construction     ... off

Total number of grid points                  ...    19248
Total number of batches                      ...      308
Average number of points per batch           ...       62
Average number of grid points per atom       ...     1203
UseSFitting                                  ... on

GRIDX 3
-------
General Integration Accuracy     IntAcc      ... 4.338
Radial Grid Type                 RadialGrid  ... OptM3 with GC (2021)
Angular Grid (max. ang.)         AngularGrid ... 3 (Lebedev-194)
Angular grid pruning method      GridPruning ... 4 (adaptive)
Weight generation scheme         WeightScheme... Becke
Basis function cutoff            BFCut       ... 1.0000e-11
Integration weight cutoff        WCut        ... 1.0000e-14
Angular grids for H and He will be reduced by one unit
Partially contracted basis set               ... on
Rotationally invariant grid construction     ... off

Total number of grid points                  ...    44003
Total number of batches                      ...      696
Average number of points per batch           ...       63
Average number of grid points per atom       ...     2750
UseSFitting                                  ... on

Time for X-Grid setup             =    0.376 sec

--------------
SCF ITERATIONS
--------------
ITER       Energy         Delta-E        Max-DP      RMS-DP      [F,P]     Damp
               ***  Starting incremental Fock matrix formation  ***
  0   -267.3236262652   0.000000000000 0.10094848  0.00273447  0.2280731 0.7000
  1   -267.4367100887  -0.113083823580 0.12310468  0.00227336  0.1301748 0.7000
                               ***Turning on DIIS***
  2   -267.4904834023  -0.053773313581 0.31824699  0.00495417  0.0598506 0.0000
  3   -267.5689016582  -0.078418255858 0.05399415  0.00152058  0.0626196 0.0000
  4   -267.5865190236  -0.017617365420 0.02217596  0.00042406  0.0106132 0.0000
                      *** Initiating the SOSCF procedure ***
                           *** Shutting down DIIS ***
                      *** Re-Reading the Fockian *** 
                      *** Removing any level shift *** 
ITER      Energy       Delta-E        Grad      Rot      Max-DP    RMS-DP
  5   -267.58703803  -0.0005190022  0.000587  0.000587  0.009798  0.000188
               *** Restarting incremental Fock matrix formation ***
  6   -267.58704263  -0.0000046091  0.000302  0.000655  0.009313  0.000176
  7   -267.58704853  -0.0000058907  0.000281  0.000675  0.003916  0.000057
  8   -267.58705187  -0.0000033477  0.000051  0.000058  0.001087  0.000016
  9   -267.58705193  -0.0000000560  0.000031  0.000043  0.000134  0.000004
 10   -267.58705202  -0.0000000860  0.000004  0.000014  0.000221  0.000003
                  ***Gradient check signals convergence***
              ***Rediagonalizing the Fockian in SOSCF/NRSCF***

               *****************************************************
               *                     SUCCESS                       *
               *           SCF CONVERGED AFTER  11 CYCLES          *
               *****************************************************

Old exchange energy                            =    -10.884850685 Eh
New exchange energy                            =    -10.884847248 Eh
Exchange energy change after final integration =      0.000003437 Eh
Total energy after final integration           =   -267.587048582 Eh
Final COS-X integration done in                =     5.496 sec

----------------
TOTAL SCF ENERGY
----------------

Total Energy       :         -267.58704858 Eh           -7281.41377 eV

Components:
Nuclear Repulsion  :          249.97111644 Eh            6802.05989 eV
Electronic Energy  :         -517.55816502 Eh          -14083.47366 eV
One Electron Energy:         -855.22798365 Eh          -23271.93656 eV
Two Electron Energy:          337.66981863 Eh            9188.46290 eV
Max COSX asymmetry :            0.00000374 Eh               0.00010 eV

Virial components:
Potential Energy   :         -532.68699489 Eh          -14495.15005 eV
Kinetic Energy     :          265.09994631 Eh            7213.73628 eV
Virial Ratio       :            2.00938175


DFT components:
N(Alpha)           :       24.000004754783 electrons
N(Beta)            :       24.000004754783 electrons
N(Total)           :       48.000009509566 electrons
E(XC)              :      -28.350114356920 Eh       
DFET-embed. en.    :        0.000000000000 Eh       

---------------
SCF CONVERGENCE
---------------

  Last Energy change         ...   -3.7491e-09  Tolerance :   1.0000e-08
  Last MAX-Density change    ...    3.1086e-15  Tolerance :   1.0000e-07
  Last RMS-Density change    ...    3.8433e-17  Tolerance :   5.0000e-09
  Last Orbital Gradient      ...    1.7160e-06  Tolerance :   1.0000e-05
  Last Orbital Rotation      ...    5.1006e-06  Tolerance :   1.0000e-05

             **** THE GBW FILE WAS UPDATED (SVPD_CAMB3LYP_C3_wt_dlpno_pos.gbw) ****
             **** DENSITY SVPD_CAMB3LYP_C3_wt_dlpno_pos.scfp WAS UPDATED ****
             **** ENERGY FILE WAS UPDATED (SVPD_CAMB3LYP_C3_wt_dlpno_pos.en.tmp) ****
             **** THE GBW FILE WAS UPDATED (SVPD_CAMB3LYP_C3_wt_dlpno_pos.gbw) ****
             **** DENSITY SVPD_CAMB3LYP_C3_wt_dlpno_pos.scfp WAS UPDATED ****
----------------
ORBITAL ENERGIES
----------------

  NO   OCC          E(Eh)            E(eV) 
   0   2.0000     -14.407569      -392.0499 
   1   2.0000     -14.407457      -392.0468 
   2   2.0000     -10.307444      -280.4798 
   3   2.0000     -10.292349      -280.0690 
   4   2.0000     -10.241139      -278.6756 
   5   2.0000     -10.170599      -276.7561 
   6   2.0000      -1.050910       -28.5967 
   7   2.0000      -0.961618       -26.1670 
   8   2.0000      -0.829594       -22.5744 
   9   2.0000      -0.782265       -21.2865 
  10   2.0000      -0.717025       -19.5112 
  11   2.0000      -0.634051       -17.2534 
  12   2.0000      -0.620835       -16.8938 
  13   2.0000      -0.595868       -16.2144 
  14   2.0000      -0.539166       -14.6715 
  15   2.0000      -0.510169       -13.8824 
  16   2.0000      -0.488262       -13.2863 
  17   2.0000      -0.467711       -12.7271 
  18   2.0000      -0.448686       -12.2094 
  19   2.0000      -0.435756       -11.8575 
  20   2.0000      -0.431236       -11.7345 
  21   2.0000      -0.412811       -11.2332 
  22   2.0000      -0.316940        -8.6244 
  23   2.0000      -0.223400        -6.0790 
  24   0.0000       0.043907         1.1948 
  25   0.0000       0.067654         1.8410 
  26   0.0000       0.079673         2.1680 
  27   0.0000       0.083069         2.2604 
  28   0.0000       0.113108         3.0778 
  29   0.0000       0.117430         3.1954 
  30   0.0000       0.122992         3.3468 
  31   0.0000       0.140172         3.8143 
  32   0.0000       0.150740         4.1018 
  33   0.0000       0.159967         4.3529 
  34   0.0000       0.163149         4.4395 
  35   0.0000       0.185488         5.0474 
  36   0.0000       0.187812         5.1106 
  37   0.0000       0.193733         5.2717 
  38   0.0000       0.203134         5.5276 
  39   0.0000       0.213882         5.8200 
  40   0.0000       0.225632         6.1397 
  41   0.0000       0.226744         6.1700 
  42   0.0000       0.238202         6.4818 
  43   0.0000       0.257280         7.0009 
  44   0.0000       0.263607         7.1731 
  45   0.0000       0.277424         7.5491 
  46   0.0000       0.288463         7.8495 
  47   0.0000       0.293460         7.9854 
  48   0.0000       0.303472         8.2579 
  49   0.0000       0.314855         8.5676 
  50   0.0000       0.327742         8.9183 
  51   0.0000       0.338288         9.2053 
  52   0.0000       0.345914         9.4128 
  53   0.0000       0.360500         9.8097 
  54   0.0000       0.366807         9.9813 
  55   0.0000       0.370448        10.0804 
  56   0.0000       0.376595        10.2477 
  57   0.0000       0.382538        10.4094 
  58   0.0000       0.387246        10.5375 
  59   0.0000       0.396129        10.7792 
  60   0.0000       0.398930        10.8554 
  61   0.0000       0.403028        10.9669 
  62   0.0000       0.409834        11.1522 
  63   0.0000       0.418190        11.3795 
  64   0.0000       0.424816        11.5598 
  65   0.0000       0.432984        11.7821 
  66   0.0000       0.438779        11.9398 
  67   0.0000       0.453382        12.3372 
  68   0.0000       0.464127        12.6295 
  69   0.0000       0.472944        12.8695 
  70   0.0000       0.480306        13.0698 
  71   0.0000       0.480766        13.0823 
  72   0.0000       0.494049        13.4438 
  73   0.0000       0.501434        13.6447 
  74   0.0000       0.503960        13.7134 
  75   0.0000       0.519870        14.1464 
  76   0.0000       0.525232        14.2923 
  77   0.0000       0.532194        14.4817 
  78   0.0000       0.544408        14.8141 
  79   0.0000       0.549303        14.9473 
  80   0.0000       0.559516        15.2252 
  81   0.0000       0.562785        15.3142 
  82   0.0000       0.571051        15.5391 
  83   0.0000       0.577377        15.7112 
  84   0.0000       0.590020        16.0553 
  85   0.0000       0.591223        16.0880 
  86   0.0000       0.603548        16.4234 
  87   0.0000       0.616732        16.7821 
  88   0.0000       0.620639        16.8884 
  89   0.0000       0.635176        17.2840 
  90   0.0000       0.643001        17.4970 
  91   0.0000       0.659860        17.9557 
  92   0.0000       0.679699        18.4956 
  93   0.0000       0.696273        18.9465 
  94   0.0000       0.701500        19.0888 
  95   0.0000       0.727960        19.8088 
  96   0.0000       0.735047        20.0017 
  97   0.0000       0.741232        20.1700 
  98   0.0000       0.758661        20.6442 
  99   0.0000       0.768539        20.9130 
 100   0.0000       0.783604        21.3229 
 101   0.0000       0.792380        21.5617 
 102   0.0000       0.812933        22.1210 
 103   0.0000       0.833056        22.6686 
 104   0.0000       0.838793        22.8247 
 105   0.0000       0.868752        23.6399 
 106   0.0000       0.907275        24.6882 
 107   0.0000       0.938890        25.5485 
 108   0.0000       0.977102        26.5883 
 109   0.0000       0.994636        27.0654 
 110   0.0000       1.022431        27.8218 
 111   0.0000       1.043094        28.3840 
 112   0.0000       1.051829        28.6217 
 113   0.0000       1.065607        28.9966 
 114   0.0000       1.072767        29.1915 
 115   0.0000       1.096021        29.8243 
 116   0.0000       1.108127        30.1537 
 117   0.0000       1.136041        30.9133 
 118   0.0000       1.148991        31.2656 
 119   0.0000       1.161326        31.6013 
 120   0.0000       1.190284        32.3893 
 121   0.0000       1.217421        33.1277 
 122   0.0000       1.227660        33.4063 
 123   0.0000       1.238284        33.6954 
 124   0.0000       1.247032        33.9335 
 125   0.0000       1.286694        35.0127 
 126   0.0000       1.315588        35.7990 
 127   0.0000       1.320912        35.9438 
 128   0.0000       1.352616        36.8065 
 129   0.0000       1.391749        37.8714 
 130   0.0000       1.426780        38.8247 
 131   0.0000       1.446381        39.3580 
 132   0.0000       1.486420        40.4475 
 133   0.0000       1.555075        42.3157 
 134   0.0000       1.593181        43.3526 
 135   0.0000       1.639795        44.6211 
 136   0.0000       1.650213        44.9046 
 137   0.0000       1.667775        45.3825 
 138   0.0000       1.691202        46.0199 
 139   0.0000       1.732855        47.1534 
 140   0.0000       1.756680        47.8017 
 141   0.0000       1.765642        48.0456 
 142   0.0000       1.788002        48.6540 
 143   0.0000       1.815943        49.4143 
 144   0.0000       1.831141        49.8279 
 145   0.0000       1.867760        50.8243 
 146   0.0000       1.885777        51.3146 
 147   0.0000       1.909037        51.9475 
 148   0.0000       1.918759        52.2121 
 149   0.0000       1.962605        53.4052 
 150   0.0000       1.964187        53.4483 
 151   0.0000       2.004883        54.5557 
 152   0.0000       2.023261        55.0557 
 153   0.0000       2.052176        55.8426 
 154   0.0000       2.055589        55.9354 
 155   0.0000       2.064459        56.1768 
 156   0.0000       2.090918        56.8968 
 157   0.0000       2.112444        57.4825 
 158   0.0000       2.143808        58.3360 
 159   0.0000       2.154666        58.6314 
 160   0.0000       2.163911        58.8830 
 161   0.0000       2.184088        59.4320 
 162   0.0000       2.198028        59.8114 
 163   0.0000       2.225011        60.5456 
 164   0.0000       2.241138        60.9845 
 165   0.0000       2.279096        62.0173 
 166   0.0000       2.305206        62.7278 
 167   0.0000       2.325254        63.2734 
 168   0.0000       2.372655        64.5632 
 169   0.0000       2.402105        65.3646 
 170   0.0000       2.430319        66.1323 
 171   0.0000       2.483154        67.5701 
 172   0.0000       2.512794        68.3766 
 173   0.0000       2.525762        68.7295 
 174   0.0000       2.550567        69.4045 
 175   0.0000       2.560575        69.6768 
 176   0.0000       2.600110        70.7526 
 177   0.0000       2.651387        72.1479 
 178   0.0000       2.694942        73.3331 
 179   0.0000       2.706830        73.6566 
 180   0.0000       2.727474        74.2183 
 181   0.0000       2.767029        75.2947 
 182   0.0000       2.800327        76.2008 
 183   0.0000       2.812831        76.5410 
 184   0.0000       2.901329        78.9492 
 185   0.0000       2.935522        79.8796 
 186   0.0000       2.975259        80.9609 
 187   0.0000       3.061244        83.3007 
 188   0.0000       3.107025        84.5464 
 189   0.0000       3.168469        86.2184 
 190   0.0000       3.208689        87.3129 
 191   0.0000       3.269922        88.9791 
 192   0.0000       3.276988        89.1714 
 193   0.0000       3.299637        89.7877 
 194   0.0000       3.308170        90.0199 
 195   0.0000       3.400801        92.5405 
 196   0.0000       3.439165        93.5844 
 197   0.0000       3.488292        94.9212 
 198   0.0000       3.769731       102.5796 
 199   0.0000       3.823369       104.0392 

                    ********************************
                    * MULLIKEN POPULATION ANALYSIS *
                    ********************************

-----------------------
MULLIKEN ATOMIC CHARGES
-----------------------
   0 C :    0.404786
   1 N :   -0.240148
   2 C :    0.617777
   3 N :    0.165246
   4 C :    0.486729
   5 H :   -0.164967
   6 H :   -0.658746
   7 H :   -0.314424
   8 H :   -0.175433
   9 H :   -0.128724
  10 C :    0.884692
  11 H :   -0.068595
  12 H :   -0.416403
  13 H :   -0.143308
  14 H :   -0.142917
  15 H :   -0.105563
Sum of atomic charges:    0.0000000

--------------------------------
MULLIKEN REDUCED ORBITAL CHARGES
--------------------------------
  0 C s       :     2.729750  s :     2.729750
      pz      :     0.794619  p :     2.525242
      px      :     0.745777
      py      :     0.984846
      dz2     :     0.001779  d :     0.340223
      dxz     :     0.004844
      dyz     :     0.146062
      dx2y2   :     0.084621
      dxy     :     0.102917
  1 N s       :     3.339156  s :     3.339156
      pz      :     1.064532  p :     3.722179
      px      :     1.038391
      py      :     1.619256
      dz2     :     0.042321  d :     0.178812
      dxz     :     0.021616
      dyz     :     0.025770
      dx2y2   :     0.068487
      dxy     :     0.020618
  2 C s       :     2.725245  s :     2.725245
      pz      :     0.716201  p :     2.360887
      px      :     0.822144
      py      :     0.822541
      dz2     :     0.155383  d :     0.296091
      dxz     :    -0.117966
      dyz     :     0.125003
      dx2y2   :     0.105580
      dxy     :     0.028091
  3 N s       :     3.214696  s :     3.214696
      pz      :     1.025036  p :     3.617968
      px      :     1.010133
      py      :     1.582799
      dz2     :     0.004442  d :     0.002090
      dxz     :    -0.014073
      dyz     :     0.011456
      dx2y2   :    -0.006797
      dxy     :     0.007061
  4 C s       :     2.815136  s :     2.815136
      pz      :     0.886592  p :     2.601687
      px      :     0.612160
      py      :     1.102935
      dz2     :     0.046634  d :     0.096448
      dxz     :    -0.014260
      dyz     :     0.023844
      dx2y2   :     0.040215
      dxy     :     0.000015
  5 H s       :     1.131539  s :     1.131539
      pz      :     0.019345  p :     0.033427
      px      :    -0.056729
      py      :     0.070811
  6 H s       :     1.553818  s :     1.553818
      pz      :     0.021040  p :     0.104928
      px      :     0.025206
      py      :     0.058681
  7 H s       :     1.271243  s :     1.271243
      pz      :     0.014813  p :     0.043181
      px      :    -0.019151
      py      :     0.047520
  8 H s       :     1.126497  s :     1.126497
      pz      :     0.021429  p :     0.048936
      px      :    -0.042038
      py      :     0.069546
  9 H s       :     1.096027  s :     1.096027
      pz      :    -0.019651  p :     0.032697
      px      :    -0.009634
      py      :     0.061982
 10 C s       :     2.404297  s :     2.404297
      pz      :     0.824585  p :     2.669356
      px      :     0.862654
      py      :     0.982117
      dz2     :     0.004170  d :     0.041655
      dxz     :    -0.009516
      dyz     :     0.013927
      dx2y2   :     0.004448
      dxy     :     0.028626
 11 H s       :     1.072998  s :     1.072998
      pz      :     0.012479  p :    -0.004403
      px      :    -0.036324
      py      :     0.019442
 12 H s       :     1.389525  s :     1.389525
      pz      :     0.028032  p :     0.026879
      px      :     0.035404
      py      :    -0.036557
 13 H s       :     1.102353  s :     1.102353
      pz      :     0.051116  p :     0.040955
      px      :    -0.030321
      py      :     0.020160
 14 H s       :     1.059952  s :     1.059952
      pz      :    -0.022137  p :     0.082964
      px      :     0.096476
      py      :     0.008625
 15 H s       :     1.089493  s :     1.089493
      pz      :     0.012965  p :     0.016070
      px      :     0.004151
      py      :    -0.001046


                     *******************************
                     * LOEWDIN POPULATION ANALYSIS *
                     *******************************

----------------------
LOEWDIN ATOMIC CHARGES
----------------------
   0 C :    0.016760
   1 N :   -0.019963
   2 C :   -0.243709
   3 N :    0.187545
   4 C :    0.158112
   5 H :   -0.113771
   6 H :   -0.107554
   7 H :    0.017166
   8 H :   -0.010475
   9 H :    0.011210
  10 C :    0.138549
  11 H :    0.016848
  12 H :    0.017057
  13 H :   -0.022658
  14 H :   -0.024434
  15 H :   -0.020683

-------------------------------
LOEWDIN REDUCED ORBITAL CHARGES
-------------------------------
  0 C s       :     2.667881  s :     2.667881
      pz      :     0.833907  p :     2.605456
      px      :     0.868730
      py      :     0.902819
      dz2     :     0.133926  d :     0.709903
      dxz     :     0.095260
      dyz     :     0.209977
      dx2y2   :     0.150592
      dxy     :     0.120148
  1 N s       :     2.906684  s :     2.906684
      pz      :     1.047006  p :     3.498084
      px      :     1.079599
      py      :     1.371479
      dz2     :     0.128015  d :     0.615195
      dxz     :     0.186422
      dyz     :     0.083314
      dx2y2   :     0.113735
      dxy     :     0.103708
  2 C s       :     2.631601  s :     2.631601
      pz      :     0.907377  p :     2.512158
      px      :     0.880228
      py      :     0.724553
      dz2     :     0.254004  d :     1.099950
      dxz     :     0.272844
      dyz     :     0.219637
      dx2y2   :     0.152683
      dxy     :     0.200783
  3 N s       :     2.922410  s :     2.922410
      pz      :     1.096380  p :     3.541647
      px      :     1.066700
      py      :     1.378567
      dz2     :     0.106317  d :     0.348398
      dxz     :     0.092708
      dyz     :     0.082244
      dx2y2   :     0.044035
      dxy     :     0.023093
  4 C s       :     2.726880  s :     2.726880
      pz      :     0.922027  p :     2.796607
      px      :     0.917185
      py      :     0.957395
      dz2     :     0.097093  d :     0.318401
      dxz     :     0.085996
      dyz     :     0.051171
      dx2y2   :     0.053708
      dxy     :     0.030433
  5 H s       :     0.758663  s :     0.758663
      pz      :     0.109965  p :     0.355108
      px      :     0.119668
      py      :     0.125475
  6 H s       :     0.775454  s :     0.775454
      pz      :     0.082075  p :     0.332100
      px      :     0.128080
      py      :     0.121945
  7 H s       :     0.651496  s :     0.651496
      pz      :     0.127794  p :     0.331337
      px      :     0.087043
      py      :     0.116500
  8 H s       :     0.661231  s :     0.661231
      pz      :     0.113334  p :     0.349244
      px      :     0.104787
      py      :     0.131123
  9 H s       :     0.651655  s :     0.651655
      pz      :     0.076902  p :     0.337135
      px      :     0.145132
      py      :     0.115101
 10 C s       :     2.712140  s :     2.712140
      pz      :     0.927204  p :     2.767779
      px      :     0.943117
      py      :     0.897458
      dz2     :     0.048674  d :     0.381531
      dxz     :     0.057437
      dyz     :     0.099141
      dx2y2   :     0.096952
      dxy     :     0.079327
 11 H s       :     0.722597  s :     0.722597
      pz      :     0.083216  p :     0.260556
      px      :     0.093650
      py      :     0.083690
 12 H s       :     0.740542  s :     0.740542
      pz      :     0.065302  p :     0.242401
      px      :     0.113175
      py      :     0.063925
 13 H s       :     0.747046  s :     0.747046
      pz      :     0.110653  p :     0.275612
      px      :     0.079061
      py      :     0.085898
 14 H s       :     0.734677  s :     0.734677
      pz      :     0.078239  p :     0.289757
      px      :     0.139183
      py      :     0.072335
 15 H s       :     0.744709  s :     0.744709
      pz      :     0.110453  p :     0.275974
      px      :     0.098283
      py      :     0.067239


                      *****************************
                      * MAYER POPULATION ANALYSIS *
                      *****************************

  NA   - Mulliken gross atomic population
  ZA   - Total nuclear charge
  QA   - Mulliken gross atomic charge
  VA   - Mayer's total valence
  BVA  - Mayer's bonded valence
  FA   - Mayer's free valence

  ATOM       NA         ZA         QA         VA         BVA        FA
  0 C      5.5952     6.0000     0.4048     4.4641     4.4641    -0.0000
  1 N      7.2401     7.0000    -0.2401     4.0394     4.0394     0.0000
  2 C      5.3822     6.0000     0.6178     3.4853     3.4853     0.0000
  3 N      6.8348     7.0000     0.1652     3.8097     3.8097    -0.0000
  4 C      5.5133     6.0000     0.4867     3.6167     3.6167     0.0000
  5 H      1.1650     1.0000    -0.1650     1.0951     1.0951    -0.0000
  6 H      1.6587     1.0000    -0.6587     1.0070     1.0070    -0.0000
  7 H      1.3144     1.0000    -0.3144     0.9018     0.9018    -0.0000
  8 H      1.1754     1.0000    -0.1754     0.9635     0.9635    -0.0000
  9 H      1.1287     1.0000    -0.1287     0.8983     0.8983     0.0000
 10 C      5.1153     6.0000     0.8847     3.6806     3.6806     0.0000
 11 H      1.0686     1.0000    -0.0686     0.9652     0.9652    -0.0000
 12 H      1.4164     1.0000    -0.4164     0.9485     0.9485     0.0000
 13 H      1.1433     1.0000    -0.1433     1.0221     1.0221     0.0000
 14 H      1.1429     1.0000    -0.1429     1.1015     1.1015     0.0000
 15 H      1.1056     1.0000    -0.1056     1.0109     1.0109     0.0000

  Mayer bond orders larger than 0.100000
B(  0-C ,  1-N ) :   0.9317 B(  0-C ,  4-C ) :   0.1013 B(  0-C ,  7-H ) :  -0.1179 
B(  0-C , 10-C ) :   1.1829 B(  0-C , 11-H ) :   0.8720 B(  0-C , 12-H ) :   0.8589 
B(  0-C , 13-H ) :   0.2490 B(  0-C , 14-H ) :   0.2061 B(  0-C , 15-H ) :   0.1905 
B(  1-N ,  2-C ) :   0.9836 B(  1-N ,  3-N ) :   0.1726 B(  1-N ,  4-C ) :   0.3407 
B(  1-N ,  7-H ) :   1.2327 B(  1-N , 11-H ) :   0.1010 B(  1-N , 12-H ) :   0.1856 
B(  2-C ,  3-N ) :   0.9302 B(  2-C ,  4-C ) :   1.6337 B(  2-C ,  5-H ) :   0.2852 
B(  2-C ,  6-H ) :   0.1189 B(  2-C ,  7-H ) :  -0.2160 B(  3-N ,  4-C ) :   0.2112 
B(  3-N ,  8-H ) :   1.1739 B(  3-N ,  9-H ) :   1.2410 B(  4-C ,  5-H ) :   0.5932 
B(  4-C ,  6-H ) :   0.8626 B(  8-H ,  9-H ) :  -0.1766 B( 10-C , 13-H ) :   0.7679 
B( 10-C , 14-H ) :   0.8170 B( 10-C , 15-H ) :   0.7794 B( 11-H , 12-H ) :  -0.1015 


-------
TIMINGS
-------

Total SCF time: 0 days 0 hours 0 min 33 sec 

Total time                  ....      33.378 sec
Sum of individual times     ....      33.193 sec  ( 99.4%)

Fock matrix formation       ....      31.994 sec  ( 95.9%)
  Split-RI-J                ....       1.188 sec  (  3.7% of F)
  Chain of spheres X        ....      26.776 sec  ( 83.7% of F)
  XC integration            ....       3.987 sec  ( 12.5% of F)
    Basis function eval.    ....       1.187 sec  ( 29.8% of XC)
    Density eval.           ....       0.893 sec  ( 22.4% of XC)
    XC-Functional eval.     ....       0.556 sec  ( 13.9% of XC)
    XC-Potential eval.      ....       1.158 sec  ( 29.0% of XC)
Diagonalization             ....       0.055 sec  (  0.2%)
Density matrix formation    ....       0.004 sec  (  0.0%)
Population analysis         ....       0.008 sec  (  0.0%)
Initial guess               ....       0.160 sec  (  0.5%)
Orbital Transformation      ....       0.000 sec  (  0.0%)
Orbital Orthonormalization  ....       0.000 sec  (  0.0%)
DIIS solution               ....       0.032 sec  (  0.1%)
SOSCF solution              ....       0.037 sec  (  0.1%)
Grid generation             ....       0.904 sec  (  2.7%)

Maximum memory used throughout the entire SCF-calculation: 55.0 MB

-------------------------   --------------------
FINAL SINGLE POINT ENERGY      -267.587048581755
-------------------------   --------------------


                            ***************************************
                            *     ORCA property calculations      *
                            ***************************************

                                    ---------------------
                                    Active property flags
                                    ---------------------
   (+) Dipole Moment


------------------------------------------------------------------------------
                       ORCA ELECTRIC PROPERTIES CALCULATION
------------------------------------------------------------------------------

Dipole Moment Calculation                       ... on
Quadrupole Moment Calculation                   ... off
Polarizability Calculation                      ... off
GBWName                                         ... SVPD_CAMB3LYP_C3_wt_dlpno_pos.gbw
Electron density file                           ... SVPD_CAMB3LYP_C3_wt_dlpno_pos.scfp
The origin for moment calculation is the CENTER OF MASS  = ( 6.363147, -3.320330 -5.052726)

-------------
DIPOLE MOMENT
-------------
                                X             Y             Z
Electronic contribution:      1.33943      -1.82716      -3.41909
Nuclear contribution   :     -1.88803       2.22658       2.57497
                        -----------------------------------------
Total Dipole Moment    :     -0.54860       0.39942      -0.84412
                        -----------------------------------------
Magnitude (a.u.)       :      1.08307
Magnitude (Debye)      :      2.75294



--------------------
Rotational spectrum 
--------------------
 
Rotational constants in cm-1:     0.226509     0.075782     0.067928 
Rotational constants in MHz :  6790.555051  2271.890226  2036.439218 

 Dipole components along the rotational axes: 
x,y,z [a.u.] :    -0.076031    -1.069733     0.151416 
x,y,z [Debye]:    -0.193256    -2.719046     0.384869 

 

Timings for individual modules:

Sum of individual times         ...       33.954 sec (=   0.566 min)
GTO integral calculation        ...        0.379 sec (=   0.006 min)   1.1 %
SCF iterations                  ...       33.576 sec (=   0.560 min)  98.9 %
                             ****ORCA TERMINATED NORMALLY****
TOTAL RUN TIME: 0 days 0 hours 0 minutes 34 seconds 305 msec
