
                                        *****************
                                        * O   R   C   A *
                                        *****************

                                            #,                                       
                                            ###                                      
                                            ####                                     
                                            #####                                    
                                            ######                                   
                                           ########,                                 
                                     ,,################,,,,,                         
                               ,,#################################,,                 
                          ,,##########################################,,             
                       ,#########################################, ''#####,          
                    ,#############################################,,   '####,        
                  ,##################################################,,,,####,       
                ,###########''''           ''''###############################       
              ,#####''   ,,,,##########,,,,          '''####'''          '####       
            ,##' ,,,,###########################,,,                        '##       
           ' ,,###''''                  '''############,,,                           
         ,,##''                                '''############,,,,        ,,,,,,###''
      ,#''                                            '''#######################'''  
     '                                                          ''''####''''         
             ,#######,   #######,   ,#######,      ##                                
            ,#'     '#,  ##    ##  ,#'     '#,    #''#        ######   ,####,        
            ##       ##  ##   ,#'  ##            #'  '#       #        #'  '#        
            ##       ##  #######   ##           ,######,      #####,   #    #        
            '#,     ,#'  ##    ##  '#,     ,#' ,#      #,         ##   #,  ,#        
             '#######'   ##     ##  '#######'  #'      '#     #####' # '####'        



                  #######################################################
                  #                        -***-                        #
                  #          Department of theory and spectroscopy      #
                  #    Directorship and core code : Frank Neese         #
                  #        Max Planck Institute fuer Kohlenforschung    #
                  #                Kaiser Wilhelm Platz 1               #
                  #                 D-45470 Muelheim/Ruhr               #
                  #                      Germany                        #
                  #                                                     #
                  #                  All rights reserved                #
                  #                        -***-                        #
                  #######################################################


                         Program Version 5.0.0 -  RELEASE  -
                                (SVN: $Rev: 19529$)
                ($Date: 2021-06-28 11:36:33 +0200 (Mo, 28 Jun 2021) $)


 With contributions from (in alphabetic order):
   Daniel Aravena         : Magnetic Suceptibility
   Michael Atanasov       : Ab Initio Ligand Field Theory (pilot matlab implementation)
   Alexander A. Auer      : GIAO ZORA, VPT2 properties, NMR spectrum
   Ute Becker             : Parallelization
   Giovanni Bistoni       : ED, misc. LED, open-shell LED, HFLD
   Martin Brehm           : Molecular dynamics
   Dmytro Bykov           : SCF Hessian
   Vijay G. Chilkuri      : MRCI spin determinant printing, contributions to CSF-ICE
   Dipayan Datta          : RHF DLPNO-CCSD density
   Achintya Kumar Dutta   : EOM-CC, STEOM-CC
   Dmitry Ganyushin       : Spin-Orbit,Spin-Spin,Magnetic field MRCI
   Miquel Garcia          : C-PCM Hessian, Gaussian charge scheme
   Yang Guo               : DLPNO-NEVPT2, F12-NEVPT2, CIM, IAO-localization
   Andreas Hansen         : Spin unrestricted coupled pair/coupled cluster methods
   Benjamin Helmich-Paris : MC-RPA, TRAH-SCF, COSX integrals
   Lee Huntington         : MR-EOM, pCC
   Robert Izsak           : Overlap fitted RIJCOSX, COSX-SCS-MP3, EOM
   Marcus Kettner         : VPT2
   Christian Kollmar      : KDIIS, OOCD, Brueckner-CCSD(T), CCSD density, CASPT2, CASPT2-K
   Simone Kossmann        : Meta GGA functionals, TD-DFT gradient, OOMP2, MP2 Hessian
   Martin Krupicka        : Initial AUTO-CI
   Lucas Lang             : DCDCAS
   Marvin Lechner         : AUTO-CI (C++ implementation), FIC-MRCC
   Dagmar Lenk            : GEPOL surface, SMD
   Dimitrios Liakos       : Extrapolation schemes; Compound Job, initial MDCI parallelization
   Dimitrios Manganas     : Further ROCIS development; embedding schemes
   Dimitrios Pantazis     : SARC Basis sets
   Anastasios Papadopoulos: AUTO-CI, single reference methods and gradients
   Taras Petrenko         : DFT Hessian,TD-DFT gradient, ASA, ECA, R-Raman, ABS, FL, XAS/XES, NRVS
   Peter Pinski           : DLPNO-MP2, DLPNO-MP2 Gradient
   Christoph Reimann      : Effective Core Potentials
   Marius Retegan         : Local ZFS, SOC
   Christoph Riplinger    : Optimizer, TS searches, QM/MM, DLPNO-CCSD(T), (RO)-DLPNO pert. Triples
   Tobias Risthaus        : Range-separated hybrids, TD-DFT gradient, RPA, STAB
   Michael Roemelt        : Original ROCIS implementation
   Masaaki Saitow         : Open-shell DLPNO-CCSD energy and density
   Barbara Sandhoefer     : DKH picture change effects
   Avijit Sen             : IP-ROCIS
   Kantharuban Sivalingam : CASSCF convergence, NEVPT2, FIC-MRCI
   Bernardo de Souza      : ESD, SOC TD-DFT
   Georgi Stoychev        : AutoAux, RI-MP2 NMR
   Willem Van den Heuvel  : Paramagnetic NMR
   Boris Wezisla          : Elementary symmetry handling
   Frank Wennmohs         : Technical directorship


 We gratefully acknowledge several colleagues who have allowed us to
 interface, adapt or use parts of their codes:
   Stefan Grimme, W. Hujo, H. Kruse, P. Pracht,  : VdW corrections, initial TS optimization,
                  C. Bannwarth, S. Ehlert          DFT functionals, gCP, sTDA/sTD-DF
   Ed Valeev, F. Pavosevic, A. Kumar             : LibInt (2-el integral package), F12 methods
   Garnet Chan, S. Sharma, J. Yang, R. Olivares  : DMRG
   Ulf Ekstrom                                   : XCFun DFT Library
   Mihaly Kallay                                 : mrcc  (arbitrary order and MRCC methods)
   Jiri Pittner, Ondrej Demel                    : Mk-CCSD
   Frank Weinhold                                : gennbo (NPA and NBO analysis)
   Christopher J. Cramer and Donald G. Truhlar   : smd solvation model
   Lars Goerigk                                  : TD-DFT with DH, B97 family of functionals
   V. Asgeirsson, H. Jonsson                     : NEB implementation
   FAccTs GmbH                                   : IRC, NEB, NEB-TS, DLPNO-Multilevel, CI-OPT
                                                   MM, QMMM, 2- and 3-layer-ONIOM, Crystal-QMMM,
                                                   LR-CPCM, SF, NACMEs, symmetry and pop. for TD-DFT,
                                                   nearIR, NL-DFT gradient (VV10), updates on ESD,
                                                   ML-optimized integration grids
   S Lehtola, MJT Oliveira, MAL Marques          : LibXC Library
   Liviu Ungur et al                             : ANISO software


 Your calculation uses the libint2 library for the computation of 2-el integrals
 For citations please refer to: http://libint.valeyev.net

 Your ORCA version has been built with support for libXC version: 5.1.0
 For citations please refer to: https://tddft.org/programs/libxc/

 This ORCA versions uses:
   CBLAS   interface :  Fast vector & matrix operations
   LAPACKE interface :  Fast linear algebra routines
   SCALAPACK package :  Parallel linear algebra routines
   Shared memory     :  Shared parallel matrices
   BLAS/LAPACK       :  OpenBLAS 0.3.15  USE64BITINT DYNAMIC_ARCH NO_AFFINITY Haswell SINGLE_THREADED
        Core in use  :  Haswell
   Copyright (c) 2011-2014, The OpenBLAS Project


XCFun DFT library Copyright 2009-2010 Ulf Ekstrom and contributors.
See http://admol.org/xcfun for more information.
This is free software; see the source code for copying conditions.
There is ABSOLUTELY NO WARRANTY; not even for MERCHANTABILITY or FITNESS FOR A PARTICULAR PURPOSE.
For details see the documentation.
Scientific users of this library should cite U. Ekstrom, L. Visscher, R. Bast, A. J. Thorvaldsen and K. Ruud;
J.Chem.Theor.Comp. 2010, DOI: 10.1021/ct100117s
XCFun Version 0.99 

================================================================================

----- Orbital basis set information -----
Your calculation utilizes the basis: def2-TZVP
   F. Weigend and R. Ahlrichs, Phys. Chem. Chem. Phys. 7, 3297 (2005).

----- AuxJ basis set information -----
Your calculation utilizes the auxiliary basis: def2/J
   F. Weigend, Phys. Chem. Chem. Phys. 8, 1057 (2006).

================================================================================
                                        WARNINGS
                       Please study these warnings very carefully!
================================================================================


INFO   : the flag for use of the SHARK integral package has been found!

================================================================================
                                       INPUT FILE
================================================================================
NAME = TZVP_CAMB3LYP_C1_wt_dlpno_pos.com
|  1> !CAM-B3LYP RIJCOSX def2-TZVP def2/J TightSCF
|  2> *xyz 0 1
|  3> C         -2.16038       -1.36949       -3.46710
|  4> C         -3.03011       -1.91086       -4.54107
|  5> C         -2.04772        0.14658       -3.51177
|  6> H         -3.47744       -2.79151       -4.25710
|  7> H         -2.53801       -2.01786       -5.43808
|  8> H         -3.89159       -1.37604       -4.71437
|  9> H         -1.18444       -1.84400       -3.56639
| 10> H         -2.59819       -1.70838       -2.52848
| 11> H         -1.61525        0.44478       -4.44395
| 12> H         -1.42718        0.48198       -2.70720
| 13> H         -3.02145        0.57958       -3.41560
| 14> *
| 15> %MaxCore 64000
| 16> 
| 17> %pal nprocs 4
| 18> end  
| 19> 
| 20> %scf
| 21>   MaxIter 150
| 22> end
| 23> 
| 24> 
| 25>                          ****END OF INPUT****
================================================================================

                       ****************************
                       * Single Point Calculation *
                       ****************************

---------------------------------
CARTESIAN COORDINATES (ANGSTROEM)
---------------------------------
  C     -2.160380   -1.369490   -3.467100
  C     -3.030110   -1.910860   -4.541070
  C     -2.047720    0.146580   -3.511770
  H     -3.477440   -2.791510   -4.257100
  H     -2.538010   -2.017860   -5.438080
  H     -3.891590   -1.376040   -4.714370
  H     -1.184440   -1.844000   -3.566390
  H     -2.598190   -1.708380   -2.528480
  H     -1.615250    0.444780   -4.443950
  H     -1.427180    0.481980   -2.707200
  H     -3.021450    0.579580   -3.415600

----------------------------
CARTESIAN COORDINATES (A.U.)
----------------------------
  NO LB      ZA    FRAG     MASS         X           Y           Z
   0 C     6.0000    0    12.011   -4.082527   -2.587961   -6.551869
   1 C     6.0000    0    12.011   -5.726078   -3.611002   -8.581379
   2 C     6.0000    0    12.011   -3.869630    0.276996   -6.636284
   3 H     1.0000    0     1.008   -6.571409   -5.275189   -8.044753
   4 H     1.0000    0     1.008   -4.796144   -3.813203  -10.276482
   5 H     1.0000    0     1.008   -7.354039   -2.600339   -8.908868
   6 H     1.0000    0     1.008   -2.238267   -3.484655   -6.739500
   7 H     1.0000    0     1.008   -4.909868   -3.228370   -4.778135
   8 H     1.0000    0     1.008   -3.052380    0.840512   -8.397848
   9 H     1.0000    0     1.008   -2.696979    0.910810   -5.115867
  10 H     1.0000    0     1.008   -5.709713    1.095247   -6.454549

--------------------------------
INTERNAL COORDINATES (ANGSTROEM)
--------------------------------
 C      0   0   0     0.000000000000     0.00000000     0.00000000
 C      1   0   0     1.484224818112     0.00000000     0.00000000
 C      1   2   0     1.520906285542   112.68989898     0.00000000
 H      2   1   3     1.027758489286   111.57141282   208.68702051
 H      2   1   3     1.028707125522   112.86607625    82.75194771
 H      2   1   3     1.028694858935   115.02396937   318.31445448
 H      1   2   3     1.089714241350   107.46020485   236.88756357
 H      1   2   3     1.089739203938   105.92585088   122.05753436
 H      3   1   2     1.070006118347   109.47103197   298.90706596
 H      3   1   2     1.069998101167   109.47137598   178.90786579
 H      3   1   2     1.069994290546   109.47153035    58.90731461

---------------------------
INTERNAL COORDINATES (A.U.)
---------------------------
 C      0   0   0     0.000000000000     0.00000000     0.00000000
 C      1   0   0     2.804778427401     0.00000000     0.00000000
 C      1   2   0     2.874096355033   112.68989898     0.00000000
 H      2   1   3     1.942182076564   111.57141282   208.68702051
 H      2   1   3     1.943974739250   112.86607625    82.75194771
 H      2   1   3     1.943951558761   115.02396937   318.31445448
 H      1   2   3     2.059261480384   107.46020485   236.88756357
 H      1   2   3     2.059308652841   105.92585088   122.05753436
 H      3   1   2     2.022018525296   109.47103197   298.90706596
 H      3   1   2     2.022003375021   109.47137598   178.90786579
 H      3   1   2     2.021996173990   109.47153035    58.90731461

---------------------
BASIS SET INFORMATION
---------------------
There are 2 groups of distinct atoms

 Group   1 Type C   : 11s6p2d1f contracted to 5s3p2d1f pattern {62111/411/11/1}
 Group   2 Type H   : 5s1p contracted to 3s1p pattern {311/1}

Atom   0C    basis set group =>   1
Atom   1C    basis set group =>   1
Atom   2C    basis set group =>   1
Atom   3H    basis set group =>   2
Atom   4H    basis set group =>   2
Atom   5H    basis set group =>   2
Atom   6H    basis set group =>   2
Atom   7H    basis set group =>   2
Atom   8H    basis set group =>   2
Atom   9H    basis set group =>   2
Atom  10H    basis set group =>   2
---------------------------------
AUXILIARY/J BASIS SET INFORMATION
---------------------------------
There are 2 groups of distinct atoms

 Group   1 Type C   : 12s5p4d2f1g contracted to 6s4p3d1f1g pattern {711111/2111/211/2/1}
 Group   2 Type H   : 5s2p1d contracted to 3s1p1d pattern {311/2/1}

Atom   0C    basis set group =>   1
Atom   1C    basis set group =>   1
Atom   2C    basis set group =>   1
Atom   3H    basis set group =>   2
Atom   4H    basis set group =>   2
Atom   5H    basis set group =>   2
Atom   6H    basis set group =>   2
Atom   7H    basis set group =>   2
Atom   8H    basis set group =>   2
Atom   9H    basis set group =>   2
Atom  10H    basis set group =>   2


           ************************************************************
           *        Program running with 4 parallel MPI-processes     *
           *              working on a common directory               *
           ************************************************************
------------------------------------------------------------------------------
                           ORCA GTO INTEGRAL CALCULATION
                           -- RI-GTO INTEGRALS CHOSEN --
------------------------------------------------------------------------------
------------------------------------------------------------------------------
                   ___                                                        
                  /   \      - P O W E R E D   B Y -                         
                 /     \                                                     
                 |  |  |   _    _      __       _____    __    __             
                 |  |  |  | |  | |    /  \     |  _  \  |  |  /  |          
                  \  \/   | |  | |   /    \    | | | |  |  | /  /          
                 / \  \   | |__| |  /  /\  \   | |_| |  |  |/  /          
                |  |  |   |  __  | /  /__\  \  |    /   |      \           
                |  |  |   | |  | | |   __   |  |    \   |  |\   \          
                \     /   | |  | | |  |  |  |  | |\  \  |  | \   \       
                 \___/    |_|  |_| |__|  |__|  |_| \__\ |__|  \__/        
                                                                              
                      - O R C A' S   B I G   F R I E N D -                    
                                      &                                       
                       - I N T E G R A L  F E E D E R -                       
                                                                              
 v1 FN, 2020, v2 2021                                                         
------------------------------------------------------------------------------


Reading SHARK input file TZVP_CAMB3LYP_C1_wt_dlpno_pos.SHARKINP.tmp ... ok
----------------------
SHARK INTEGRAL PACKAGE
----------------------

Number of atoms                             ...     11
Number of basis functions                   ...    141
Number of shells                            ...     65
Maximum angular momentum                    ...      3
Integral batch strategy                     ... SHARK/LIBINT Hybrid
RI-J (if used) integral strategy            ... SPLIT-RIJ (Revised 2003 algorithm where possible)
Printlevel                                  ...      1
Contraction scheme used                     ... SEGMENTED contraction
Coulomb Range Separation                    ... NOT USED
Exchange Range Separation                   ... Long Range
   Mu parameter                             ...  0.330000
   Scaling (regular/separated)              ...  0.190000  0.460000
Finite Nucleus Model                        ... NOT USED
Auxiliary Coulomb fitting basis             ... AVAILABLE
   # of basis functions in Aux-J            ...    235
   # of shells in Aux-J                     ...     85
   Maximum angular momentum in Aux-J        ...      4
Auxiliary J/K fitting basis                 ... NOT available
Auxiliary Correlation fitting basis         ... NOT available
Auxiliary 'external' fitting basis          ... NOT available
Integral threshold                          ...     2.500000e-11
Primitive cut-off                           ...     2.500000e-12
Primitive pair pre-selection threshold      ...     2.500000e-12

Calculating pre-screening integrals         ... done (  0.1 sec) Dimension = 65
Organizing shell pair data                  ... done (  0.0 sec)
Shell pair information
Total number of shell pairs                 ...      2145
Shell pairs after pre-screening             ...      2123
Total number of primitive shell pairs       ...      5976
Primitive shell pairs kept                  ...      5049
          la=0 lb=0:    762 shell pairs
          la=1 lb=0:    659 shell pairs
          la=1 lb=1:    153 shell pairs
          la=2 lb=0:    234 shell pairs
          la=2 lb=1:    102 shell pairs
          la=2 lb=2:     21 shell pairs
          la=3 lb=0:    117 shell pairs
          la=3 lb=1:     51 shell pairs
          la=3 lb=2:     18 shell pairs
          la=3 lb=3:      6 shell pairs

Calculating one electron integrals          ... done (  0.0 sec)
Calculating RI/J V-Matrix + Cholesky decomp.... done (  0.0 sec)
Calculating Nuclear repulsion               ... done (  0.0 sec) ENN=     84.445958584945 Eh

SHARK setup successfully completed in   0.2 seconds

Maximum memory used throughout the entire GTOINT-calculation: 13.8 MB


           ************************************************************
           *        Program running with 4 parallel MPI-processes     *
           *              working on a common directory               *
           ************************************************************
-------------------------------------------------------------------------------
                                 ORCA SCF
-------------------------------------------------------------------------------

------------
SCF SETTINGS
------------
Hamiltonian:
 Density Functional     Method          .... DFT(GTOs)
 Exchange Functional    Exchange        .... WB88
 Correlation Functional Correlation     .... LYP
 LDA part of GGA corr.  LDAOpt          .... VWN-5
 Gradients option       PostSCFGGA      .... off
 Hybrid DFT is turned on
   Fraction HF Exchange ScalHFX         ....  0.190000
   Scaling of DF-GGA-X  ScalDFX         ....  0.350000
   Scaling of DF-GGA-C  ScalDFC         ....  0.810000
   Scaling of DF-LDA-C  ScalLDAC        ....  1.000000
   Perturbative correction              ....  0.000000
   Density functional embedding theory  .... OFF
 Long-range corrected/Screened/Range-Separated Hybrid DFT is turned on
   Amount of maximum screened exact exchange              ....  0.460000
   Range separation parameter mu (erf(mu*r12)/r12)        ....  0.330000
 RI-approximation to the Coulomb term is turned on
   Number of AuxJ basis functions       .... 235
   RIJ-COSX (HFX calculated with COS-X)).... on


General Settings:
 Integral files         IntName         .... TZVP_CAMB3LYP_C1_wt_dlpno_pos
 Hartree-Fock type      HFTyp           .... RHF
 Total Charge           Charge          ....    0
 Multiplicity           Mult            ....    1
 Number of Electrons    NEL             ....   26
 Basis Dimension        Dim             ....  141
 Nuclear Repulsion      ENuc            ....     84.4459585849 Eh

Convergence Acceleration:
 DIIS                   CNVDIIS         .... on
   Start iteration      DIISMaxIt       ....    12
   Startup error        DIISStart       ....  0.200000
   # of expansion vecs  DIISMaxEq       ....     5
   Bias factor          DIISBfac        ....   1.050
   Max. coefficient     DIISMaxC        ....  10.000
 Trust-Rad. Augm. Hess. CNVTRAH         .... auto
   Auto Start mean grad. ratio tolernc. ....  1.125000
   Auto Start start iteration           ....    20
   Auto Start num. interpolation iter.  ....    10
   Max. Number of Micro iterations      ....    16
   Max. Number of Macro iterations      .... Maxiter - #DIIS iter
   Number of Davidson start vectors     ....     2
   Converg. threshold I  (grad. norm)   ....   1.000e-05
   Converg. threshold II (energy diff.) ....   1.000e-08
   Grad. Scal. Fac. for Micro threshold ....   0.100
   Minimum threshold for Micro iter.    ....   0.010
   NR start threshold (gradient norm)   ....   0.001
   Initial trust radius                 ....   0.400
   Minimum AH scaling param. (alpha)    ....   1.000
   Maximum AH scaling param. (alpha)    .... 1000.000
   Orbital update algorithm             .... Taylor
   White noise on init. David. guess    .... on
   Maximum white noise                  ....   0.010
   Quad. conv. algorithm                .... NR
 SOSCF                  CNVSOSCF        .... on
   Start iteration      SOSCFMaxIt      ....   150
   Startup grad/error   SOSCFStart      ....  0.003300
 Level Shifting         CNVShift        .... on
   Level shift para.    LevelShift      ....    0.2500
   Turn off err/grad.   ShiftErr        ....    0.0010
 Zerner damping         CNVZerner       .... off
 Static damping         CNVDamp         .... on
   Fraction old density DampFac         ....    0.7000
   Max. Damping (<1)    DampMax         ....    0.9800
   Min. Damping (>=0)   DampMin         ....    0.0000
   Turn off err/grad.   DampErr         ....    0.1000
 Fernandez-Rico         CNVRico         .... off

SCF Procedure:
 Maximum # iterations   MaxIter         ....   150
 SCF integral mode      SCFMode         .... Direct
   Integral package                     .... SHARK and LIBINT hybrid scheme
 Reset frequency        DirectResetFreq ....    20
 Integral Threshold     Thresh          ....  2.500e-11 Eh
 Primitive CutOff       TCut            ....  2.500e-12 Eh

Convergence Tolerance:
 Convergence Check Mode ConvCheckMode   .... Total+1el-Energy
 Convergence forced     ConvForced      .... 0
 Energy Change          TolE            ....  1.000e-08 Eh
 1-El. energy change                    ....  1.000e-05 Eh
 Orbital Gradient       TolG            ....  1.000e-05
 Orbital Rotation angle TolX            ....  1.000e-05
 DIIS Error             TolErr          ....  5.000e-07


Diagonalization of the overlap matrix:
Smallest eigenvalue                        ... 3.052e-04
Time for diagonalization                   ...    0.004 sec
Threshold for overlap eigenvalues          ... 1.000e-08
Number of eigenvalues below threshold      ... 0
Time for construction of square roots      ...    0.004 sec
Total time needed                          ...    0.008 sec

Time for model grid setup =    0.073 sec

------------------------------
INITIAL GUESS: MODEL POTENTIAL
------------------------------
Loading Hartree-Fock densities                     ... done
Calculating cut-offs                               ... done
Initializing the effective Hamiltonian             ... done
Setting up the integral package (SHARK)            ... done
Starting the Coulomb interaction                   ... done (   0.0 sec)
Reading the grid                                   ... done
Mapping shells                                     ... done
Starting the XC term evaluation                    ... done (   0.1 sec)
  promolecular density results
     # of electrons  =     25.994097081
     EX              =    -17.744709048
     EC              =     -0.825084597
     EX+EC           =    -18.569793645
Transforming the Hamiltonian                       ... done (   0.0 sec)
Diagonalizing the Hamiltonian                      ... done (   0.0 sec)
Back transforming the eigenvectors                 ... done (   0.0 sec)
Now organizing SCF variables                       ... done
                      ------------------
                      INITIAL GUESS DONE (   0.2 sec)
                      ------------------
-------------------
DFT GRID GENERATION
-------------------

General Integration Accuracy     IntAcc      ... 4.388
Radial Grid Type                 RadialGrid  ... OptM3 with GC (2021)
Angular Grid (max. ang.)         AngularGrid ... 4 (Lebedev-302)
Angular grid pruning method      GridPruning ... 4 (adaptive)
Weight generation scheme         WeightScheme... Becke
Basis function cutoff            BFCut       ... 1.0000e-11
Integration weight cutoff        WCut        ... 1.0000e-14
Angular grids for H and He will be reduced by one unit
Partially contracted basis set               ... off
Rotationally invariant grid construction     ... off

Total number of grid points                  ...    43997
Total number of batches                      ...      693
Average number of points per batch           ...       63
Average number of grid points per atom       ...     4000
Time for grid setup =    0.273 sec

--------------------
COSX GRID GENERATION
--------------------

GRIDX 1
-------
General Integration Accuracy     IntAcc      ... 3.816
Radial Grid Type                 RadialGrid  ... OptM3 with GC (2021)
Angular Grid (max. ang.)         AngularGrid ... 1 (Lebedev-50)
Angular grid pruning method      GridPruning ... 4 (adaptive)
Weight generation scheme         WeightScheme... Becke
Basis function cutoff            BFCut       ... 1.0000e-11
Integration weight cutoff        WCut        ... 1.0000e-14
Angular grids for H and He will be reduced by one unit
Partially contracted basis set               ... on
Rotationally invariant grid construction     ... off

Total number of grid points                  ...     5713
Total number of batches                      ...       97
Average number of points per batch           ...       58
Average number of grid points per atom       ...      519
UseSFitting                                  ... on

GRIDX 2
-------
General Integration Accuracy     IntAcc      ... 4.020
Radial Grid Type                 RadialGrid  ... OptM3 with GC (2021)
Angular Grid (max. ang.)         AngularGrid ... 2 (Lebedev-110)
Angular grid pruning method      GridPruning ... 4 (adaptive)
Weight generation scheme         WeightScheme... Becke
Basis function cutoff            BFCut       ... 1.0000e-11
Integration weight cutoff        WCut        ... 1.0000e-14
Angular grids for H and He will be reduced by one unit
Partially contracted basis set               ... on
Rotationally invariant grid construction     ... off

Total number of grid points                  ...    11675
Total number of batches                      ...      190
Average number of points per batch           ...       61
Average number of grid points per atom       ...     1061
UseSFitting                                  ... on

GRIDX 3
-------
General Integration Accuracy     IntAcc      ... 4.338
Radial Grid Type                 RadialGrid  ... OptM3 with GC (2021)
Angular Grid (max. ang.)         AngularGrid ... 3 (Lebedev-194)
Angular grid pruning method      GridPruning ... 4 (adaptive)
Weight generation scheme         WeightScheme... Becke
Basis function cutoff            BFCut       ... 1.0000e-11
Integration weight cutoff        WCut        ... 1.0000e-14
Angular grids for H and He will be reduced by one unit
Partially contracted basis set               ... on
Rotationally invariant grid construction     ... off

Total number of grid points                  ...    25537
Total number of batches                      ...      404
Average number of points per batch           ...       63
Average number of grid points per atom       ...     2322
UseSFitting                                  ... on

Time for X-Grid setup             =    0.214 sec

--------------
SCF ITERATIONS
--------------
ITER       Energy         Delta-E        Max-DP      RMS-DP      [F,P]     Damp
               ***  Starting incremental Fock matrix formation  ***
  0   -118.9213456231   0.000000000000 0.03727030  0.00134411  0.1980598 0.7000
  1   -118.9942511711  -0.072905548010 0.02256218  0.00102741  0.1130506 0.7000
                               ***Turning on DIIS***
  2   -119.0289789263  -0.034727755158 0.04279432  0.00198217  0.0523913 0.0000
  3   -119.0800623790  -0.051083452691 0.01750942  0.00060764  0.0521936 0.0000
  4   -119.0912085573  -0.011146178330 0.00256559  0.00014710  0.0094805 0.0000
                      *** Initiating the SOSCF procedure ***
                           *** Shutting down DIIS ***
                      *** Re-Reading the Fockian *** 
                      *** Removing any level shift *** 
ITER      Energy       Delta-E        Grad      Rot      Max-DP    RMS-DP
  5   -119.09157057  -0.0003620172  0.000588  0.000588  0.000936  0.000047
               *** Restarting incremental Fock matrix formation ***
  6   -119.09159275  -0.0000221770  0.000184  0.000275  0.000454  0.000026
  7   -119.09159378  -0.0000010310  0.000122  0.000070  0.000186  0.000008
  8   -119.09159422  -0.0000004367  0.000008  0.000009  0.000034  0.000001
                 **** Energy Check signals convergence ****
              ***Rediagonalizing the Fockian in SOSCF/NRSCF***

               *****************************************************
               *                     SUCCESS                       *
               *           SCF CONVERGED AFTER   9 CYCLES          *
               *****************************************************

Old exchange energy                            =     -5.532194793 Eh
New exchange energy                            =     -5.532196394 Eh
Exchange energy change after final integration =     -0.000001600 Eh
Total energy after final integration           =   -119.091595824 Eh
Final COS-X integration done in                =     2.127 sec

----------------
TOTAL SCF ENERGY
----------------

Total Energy       :         -119.09159582 Eh           -3240.64707 eV

Components:
Nuclear Repulsion  :           84.44595858 Eh            2297.89136 eV
Electronic Energy  :         -203.53755441 Eh           -5538.53843 eV
One Electron Energy:         -325.45031725 Eh           -8855.95336 eV
Two Electron Energy:          121.91276284 Eh            3317.41493 eV
Max COSX asymmetry :            0.00000089 Eh               0.00002 eV

Virial components:
Potential Energy   :         -238.01035485 Eh           -6476.59102 eV
Kinetic Energy     :          118.91875902 Eh            3235.94395 eV
Virial Ratio       :            2.00145340


DFT components:
N(Alpha)           :       13.000002968662 electrons
N(Beta)            :       13.000002968662 electrons
N(Total)           :       26.000005937323 electrons
E(XC)              :      -13.805846465225 Eh       
DFET-embed. en.    :        0.000000000000 Eh       

---------------
SCF CONVERGENCE
---------------

  Last Energy change         ...   -4.9571e-09  Tolerance :   1.0000e-08
  Last MAX-Density change    ...    8.8818e-16  Tolerance :   1.0000e-07
  Last RMS-Density change    ...    1.6566e-17  Tolerance :   5.0000e-09
  Last Orbital Gradient      ...    2.4848e-06  Tolerance :   1.0000e-05
  Last Orbital Rotation      ...    2.6347e-06  Tolerance :   1.0000e-05

             **** THE GBW FILE WAS UPDATED (TZVP_CAMB3LYP_C1_wt_dlpno_pos.gbw) ****
             **** DENSITY TZVP_CAMB3LYP_C1_wt_dlpno_pos.scfp WAS UPDATED ****
             **** ENERGY FILE WAS UPDATED (TZVP_CAMB3LYP_C1_wt_dlpno_pos.en.tmp) ****
             **** THE GBW FILE WAS UPDATED (TZVP_CAMB3LYP_C1_wt_dlpno_pos.gbw) ****
             **** DENSITY TZVP_CAMB3LYP_C1_wt_dlpno_pos.scfp WAS UPDATED ****
----------------
ORBITAL ENERGIES
----------------

  NO   OCC          E(Eh)            E(eV) 
   0   2.0000     -10.228863      -278.3415 
   1   2.0000     -10.219308      -278.0815 
   2   2.0000     -10.200886      -277.5802 
   3   2.0000      -0.874240       -23.7893 
   4   2.0000      -0.772351       -21.0167 
   5   2.0000      -0.665663       -18.1136 
   6   2.0000      -0.541407       -14.7324 
   7   2.0000      -0.509840       -13.8734 
   8   2.0000      -0.469762       -12.7829 
   9   2.0000      -0.461502       -12.5581 
  10   2.0000      -0.404914       -11.0183 
  11   2.0000      -0.392676       -10.6852 
  12   2.0000      -0.391659       -10.6576 
  13   0.0000       0.076945         2.0938 
  14   0.0000       0.119409         3.2493 
  15   0.0000       0.125170         3.4060 
  16   0.0000       0.131156         3.5689 
  17   0.0000       0.155309         4.2262 
  18   0.0000       0.162885         4.4323 
  19   0.0000       0.186294         5.0693 
  20   0.0000       0.192522         5.2388 
  21   0.0000       0.212729         5.7887 
  22   0.0000       0.244963         6.6658 
  23   0.0000       0.255041         6.9400 
  24   0.0000       0.263076         7.1587 
  25   0.0000       0.278596         7.5810 
  26   0.0000       0.313367         8.5271 
  27   0.0000       0.324164         8.8209 
  28   0.0000       0.347073         9.4443 
  29   0.0000       0.384392        10.4598 
  30   0.0000       0.438876        11.9424 
  31   0.0000       0.458370        12.4729 
  32   0.0000       0.481410        13.0998 
  33   0.0000       0.490913        13.3584 
  34   0.0000       0.496557        13.5120 
  35   0.0000       0.500607        13.6222 
  36   0.0000       0.543180        14.7807 
  37   0.0000       0.547622        14.9015 
  38   0.0000       0.568347        15.4655 
  39   0.0000       0.589272        16.0349 
  40   0.0000       0.641615        17.4592 
  41   0.0000       0.659186        17.9374 
  42   0.0000       0.689458        18.7611 
  43   0.0000       0.718894        19.5621 
  44   0.0000       0.753051        20.4915 
  45   0.0000       0.878024        23.8923 
  46   0.0000       0.909681        24.7537 
  47   0.0000       0.931864        25.3573 
  48   0.0000       0.985457        26.8156 
  49   0.0000       1.017191        27.6792 
  50   0.0000       1.047719        28.5099 
  51   0.0000       1.083129        29.4734 
  52   0.0000       1.119285        30.4573 
  53   0.0000       1.143811        31.1247 
  54   0.0000       1.154031        31.4028 
  55   0.0000       1.182444        32.1759 
  56   0.0000       1.233784        33.5730 
  57   0.0000       1.279702        34.8225 
  58   0.0000       1.508400        41.0456 
  59   0.0000       1.553062        42.2610 
  60   0.0000       1.583165        43.0801 
  61   0.0000       1.592297        43.3286 
  62   0.0000       1.609159        43.7875 
  63   0.0000       1.616961        43.9997 
  64   0.0000       1.633521        44.4504 
  65   0.0000       1.644479        44.7485 
  66   0.0000       1.703652        46.3587 
  67   0.0000       1.716257        46.7017 
  68   0.0000       1.766289        48.0632 
  69   0.0000       1.788452        48.6663 
  70   0.0000       1.859274        50.5934 
  71   0.0000       1.878503        51.1167 
  72   0.0000       1.934460        52.6393 
  73   0.0000       1.961835        53.3842 
  74   0.0000       1.978725        53.8438 
  75   0.0000       1.995793        54.3083 
  76   0.0000       2.067518        56.2600 
  77   0.0000       2.129114        57.9361 
  78   0.0000       2.181675        59.3664 
  79   0.0000       2.212411        60.2028 
  80   0.0000       2.355458        64.0953 
  81   0.0000       2.367264        64.4165 
  82   0.0000       2.392123        65.0930 
  83   0.0000       2.416577        65.7584 
  84   0.0000       2.441435        66.4348 
  85   0.0000       2.457104        66.8612 
  86   0.0000       2.480492        67.4976 
  87   0.0000       2.540274        69.1244 
  88   0.0000       2.558202        69.6122 
  89   0.0000       2.619956        71.2926 
  90   0.0000       2.660153        72.3864 
  91   0.0000       2.687700        73.1360 
  92   0.0000       2.711006        73.7702 
  93   0.0000       2.714283        73.8594 
  94   0.0000       2.736704        74.4695 
  95   0.0000       2.760513        75.1174 
  96   0.0000       2.809193        76.4420 
  97   0.0000       2.856462        77.7283 
  98   0.0000       2.880903        78.3933 
  99   0.0000       2.924087        79.5685 
 100   0.0000       2.970954        80.8438 
 101   0.0000       3.022052        82.2342 
 102   0.0000       3.062399        83.3321 
 103   0.0000       3.130996        85.1987 
 104   0.0000       3.165234        86.1304 
 105   0.0000       3.186470        86.7083 
 106   0.0000       3.219762        87.6142 
 107   0.0000       3.254090        88.5483 
 108   0.0000       3.300326        89.8064 
 109   0.0000       3.321717        90.3885 
 110   0.0000       3.347542        91.0913 
 111   0.0000       3.412174        92.8500 
 112   0.0000       3.427847        93.2765 
 113   0.0000       3.459074        94.1262 
 114   0.0000       3.522345        95.8479 
 115   0.0000       3.569635        97.1347 
 116   0.0000       3.591678        97.7345 
 117   0.0000       3.626638        98.6858 
 118   0.0000       3.688117       100.3588 
 119   0.0000       3.722643       101.2983 
 120   0.0000       3.792998       103.2127 
 121   0.0000       3.908351       106.3516 
 122   0.0000       3.949976       107.4843 
 123   0.0000       3.954338       107.6030 
 124   0.0000       4.036162       109.8296 
 125   0.0000       4.106430       111.7416 
 126   0.0000       4.126633       112.2914 
 127   0.0000       4.193168       114.1019 
 128   0.0000       4.383182       119.2724 
 129   0.0000       4.421180       120.3064 
 130   0.0000       4.502048       122.5070 
 131   0.0000       4.568568       124.3170 
 132   0.0000       4.636927       126.1772 
 133   0.0000       4.701772       127.9417 
 134   0.0000       4.712999       128.2472 
 135   0.0000       4.837175       131.6262 
 136   0.0000       4.852744       132.0499 
 137   0.0000       4.913178       133.6944 
 138   0.0000      22.426962       610.2687 
 139   0.0000      22.507836       612.4693 
 140   0.0000      22.708225       617.9222 

                    ********************************
                    * MULLIKEN POPULATION ANALYSIS *
                    ********************************

-----------------------
MULLIKEN ATOMIC CHARGES
-----------------------
   0 C :   -0.147690
   1 C :   -0.354274
   2 C :   -0.331255
   3 H :    0.114874
   4 H :    0.111295
   5 H :    0.108660
   6 H :    0.088523
   7 H :    0.087519
   8 H :    0.104603
   9 H :    0.110501
  10 H :    0.107244
Sum of atomic charges:   -0.0000000

--------------------------------
MULLIKEN REDUCED ORBITAL CHARGES
--------------------------------
  0 C s       :     3.222061  s :     3.222061
      pz      :     0.959461  p :     2.825555
      px      :     0.969350
      py      :     0.896743
      dz2     :     0.020842  d :     0.094033
      dxz     :     0.008317
      dyz     :     0.023534
      dx2y2   :     0.012885
      dxy     :     0.028457
      f0      :     0.000858  f :     0.006040
      f+1     :     0.001064
      f-1     :     0.000644
      f+2     :     0.001113
      f-2     :     0.000249
      f+3     :     0.001078
      f-3     :     0.001033
  1 C s       :     3.244735  s :     3.244735
      pz      :     0.984947  p :     3.051413
      px      :     1.001177
      py      :     1.065289
      dz2     :     0.021324  d :     0.054408
      dxz     :     0.006226
      dyz     :     0.004605
      dx2y2   :     0.011071
      dxy     :     0.011182
      f0      :     0.000632  f :     0.003718
      f+1     :     0.001114
      f-1     :     0.000096
      f+2     :     0.000563
      f-2     :     0.000668
      f+3     :     0.000314
      f-3     :     0.000332
  2 C s       :     3.264202  s :     3.264202
      pz      :     1.042042  p :     3.014292
      px      :     1.044812
      py      :     0.927438
      dz2     :     0.005582  d :     0.049186
      dxz     :     0.005128
      dyz     :     0.015835
      dx2y2   :     0.004955
      dxy     :     0.017685
      f0      :     0.000413  f :     0.003576
      f+1     :     0.000827
      f-1     :     0.000287
      f+2     :     0.000537
      f-2     :    -0.000075
      f+3     :     0.000779
      f-3     :     0.000806
  3 H s       :     0.861485  s :     0.861485
      pz      :     0.005354  p :     0.023641
      px      :     0.007366
      py      :     0.010921
  4 H s       :     0.866136  s :     0.866136
      pz      :     0.010668  p :     0.022568
      px      :     0.006443
      py      :     0.005457
  5 H s       :     0.867795  s :     0.867795
      pz      :     0.005415  p :     0.023545
      px      :     0.010384
      py      :     0.007746
  6 H s       :     0.890570  s :     0.890570
      pz      :     0.004165  p :     0.020907
      px      :     0.010934
      py      :     0.005809
  7 H s       :     0.891584  s :     0.891584
      pz      :     0.010544  p :     0.020897
      px      :     0.005392
      py      :     0.004961
  8 H s       :     0.874067  s :     0.874067
      pz      :     0.010301  p :     0.021330
      px      :     0.005670
      py      :     0.005359
  9 H s       :     0.867984  s :     0.867984
      pz      :     0.008849  p :     0.021514
      px      :     0.007061
      py      :     0.005604
 10 H s       :     0.871428  s :     0.871428
      pz      :     0.004422  p :     0.021328
      px      :     0.010829
      py      :     0.006078


                     *******************************
                     * LOEWDIN POPULATION ANALYSIS *
                     *******************************

----------------------
LOEWDIN ATOMIC CHARGES
----------------------
   0 C :   -0.320019
   1 C :   -0.311216
   2 C :   -0.305610
   3 H :    0.111290
   4 H :    0.107847
   5 H :    0.109851
   6 H :    0.131825
   7 H :    0.131880
   8 H :    0.115404
   9 H :    0.114057
  10 H :    0.114691

-------------------------------
LOEWDIN REDUCED ORBITAL CHARGES
-------------------------------
  0 C s       :     2.768413  s :     2.768413
      pz      :     1.033982  p :     3.085682
      px      :     1.027397
      py      :     1.024304
      dz2     :     0.096286  d :     0.422397
      dxz     :     0.052699
      dyz     :     0.089948
      dx2y2   :     0.083589
      dxy     :     0.099875
      f0      :     0.005212  f :     0.043527
      f+1     :     0.006220
      f-1     :     0.005910
      f+2     :     0.008241
      f-2     :     0.004995
      f+3     :     0.006798
      f-3     :     0.006151
  1 C s       :     2.781032  s :     2.781032
      pz      :     1.067870  p :     3.210376
      px      :     1.058059
      py      :     1.084447
      dz2     :     0.088094  d :     0.289836
      dxz     :     0.060277
      dyz     :     0.032077
      dx2y2   :     0.044562
      dxy     :     0.064827
      f0      :     0.004870  f :     0.029972
      f+1     :     0.006147
      f-1     :     0.003180
      f+2     :     0.005296
      f-2     :     0.003560
      f+3     :     0.003281
      f-3     :     0.003637
  2 C s       :     2.817331  s :     2.817331
      pz      :     1.071623  p :     3.197409
      px      :     1.072735
      py      :     1.053051
      dz2     :     0.038970  d :     0.264507
      dxz     :     0.035642
      dyz     :     0.066249
      dx2y2   :     0.047282
      dxy     :     0.076364
      f0      :     0.002688  f :     0.026363
      f+1     :     0.003439
      f-1     :     0.003382
      f+2     :     0.004432
      f-2     :     0.002089
      f+3     :     0.005541
      f-3     :     0.004792
  3 H s       :     0.817137  s :     0.817137
      pz      :     0.018292  p :     0.071573
      px      :     0.021425
      py      :     0.031856
  4 H s       :     0.821826  s :     0.821826
      pz      :     0.031190  p :     0.070326
      px      :     0.020989
      py      :     0.018148
  5 H s       :     0.818491  s :     0.818491
      pz      :     0.017765  p :     0.071658
      px      :     0.029773
      py      :     0.024120
  6 H s       :     0.810537  s :     0.810537
      pz      :     0.013380  p :     0.057639
      px      :     0.027991
      py      :     0.016267
  7 H s       :     0.810506  s :     0.810506
      pz      :     0.026700  p :     0.057614
      px      :     0.016572
      py      :     0.014341
  8 H s       :     0.821192  s :     0.821192
      pz      :     0.030137  p :     0.063404
      px      :     0.017619
      py      :     0.015648
  9 H s       :     0.822752  s :     0.822752
      pz      :     0.026060  p :     0.063192
      px      :     0.021242
      py      :     0.015889
 10 H s       :     0.822056  s :     0.822056
      pz      :     0.014388  p :     0.063254
      px      :     0.031681
      py      :     0.017185


                      *****************************
                      * MAYER POPULATION ANALYSIS *
                      *****************************

  NA   - Mulliken gross atomic population
  ZA   - Total nuclear charge
  QA   - Mulliken gross atomic charge
  VA   - Mayer's total valence
  BVA  - Mayer's bonded valence
  FA   - Mayer's free valence

  ATOM       NA         ZA         QA         VA         BVA        FA
  0 C      6.1477     6.0000    -0.1477     3.8126     3.8126     0.0000
  1 C      6.3543     6.0000    -0.3543     3.8522     3.8522    -0.0000
  2 C      6.3313     6.0000    -0.3313     3.8749     3.8749    -0.0000
  3 H      0.8851     1.0000     0.1149     0.9652     0.9652     0.0000
  4 H      0.8887     1.0000     0.1113     0.9708     0.9708     0.0000
  5 H      0.8913     1.0000     0.1087     0.9629     0.9629     0.0000
  6 H      0.9115     1.0000     0.0885     0.9627     0.9627     0.0000
  7 H      0.9125     1.0000     0.0875     0.9638     0.9638    -0.0000
  8 H      0.8954     1.0000     0.1046     0.9680     0.9680    -0.0000
  9 H      0.8895     1.0000     0.1105     0.9695     0.9695    -0.0000
 10 H      0.8928     1.0000     0.1072     0.9699     0.9699    -0.0000

  Mayer bond orders larger than 0.100000
B(  0-C ,  1-C ) :   0.9427 B(  0-C ,  2-C ) :   0.9582 B(  0-C ,  6-H ) :   0.9788 
B(  0-C ,  7-H ) :   0.9833 B(  1-C ,  3-H ) :   0.9868 B(  1-C ,  4-H ) :   0.9804 
B(  1-C ,  5-H ) :   0.9832 B(  2-C ,  8-H ) :   0.9781 B(  2-C ,  9-H ) :   0.9837 
B(  2-C , 10-H ) :   0.9805 

-------
TIMINGS
-------

Total SCF time: 0 days 0 hours 0 min 12 sec 

Total time                  ....      12.578 sec
Sum of individual times     ....      12.421 sec  ( 98.8%)

Fock matrix formation       ....      11.675 sec  ( 92.8%)
  Split-RI-J                ....       0.557 sec  (  4.8% of F)
  Chain of spheres X        ....       9.449 sec  ( 80.9% of F)
  XC integration            ....       1.645 sec  ( 14.1% of F)
    Basis function eval.    ....       0.501 sec  ( 30.4% of XC)
    Density eval.           ....       0.314 sec  ( 19.1% of XC)
    XC-Functional eval.     ....       0.318 sec  ( 19.3% of XC)
    XC-Potential eval.      ....       0.435 sec  ( 26.5% of XC)
Diagonalization             ....       0.032 sec  (  0.3%)
Density matrix formation    ....       0.003 sec  (  0.0%)
Population analysis         ....       0.006 sec  (  0.0%)
Initial guess               ....       0.110 sec  (  0.9%)
Orbital Transformation      ....       0.000 sec  (  0.0%)
Orbital Orthonormalization  ....       0.000 sec  (  0.0%)
DIIS solution               ....       0.020 sec  (  0.2%)
SOSCF solution              ....       0.015 sec  (  0.1%)
Grid generation             ....       0.560 sec  (  4.4%)

Maximum memory used throughout the entire SCF-calculation: 63.7 MB

-------------------------   --------------------
FINAL SINGLE POINT ENERGY      -119.091595824363
-------------------------   --------------------


                            ***************************************
                            *     ORCA property calculations      *
                            ***************************************

                                    ---------------------
                                    Active property flags
                                    ---------------------
   (+) Dipole Moment


------------------------------------------------------------------------------
                       ORCA ELECTRIC PROPERTIES CALCULATION
------------------------------------------------------------------------------

Dipole Moment Calculation                       ... on
Quadrupole Moment Calculation                   ... off
Polarizability Calculation                      ... off
GBWName                                         ... TZVP_CAMB3LYP_C1_wt_dlpno_pos.gbw
Electron density file                           ... TZVP_CAMB3LYP_C1_wt_dlpno_pos.scfp
The origin for moment calculation is the CENTER OF MASS  = (-4.578922, -1.968578 -7.271687)

-------------
DIPOLE MOMENT
-------------
                                X             Y             Z
Electronic contribution:      0.31636      -0.13249       0.27673
Nuclear contribution   :     -0.34625       0.09603      -0.26933
                        -----------------------------------------
Total Dipole Moment    :     -0.02988      -0.03646       0.00740
                        -----------------------------------------
Magnitude (a.u.)       :      0.04772
Magnitude (Debye)      :      0.12128



--------------------
Rotational spectrum 
--------------------
 
Rotational constants in cm-1:     1.028617     0.291238     0.258956 
Rotational constants in MHz : 30837.159054  8731.095379  7763.318586 

 Dipole components along the rotational axes: 
x,y,z [a.u.] :     0.038822    -0.011624    -0.025191 
x,y,z [Debye]:     0.098677    -0.029545    -0.064030 

 

Timings for individual modules:

Sum of individual times         ...       15.987 sec (=   0.266 min)
GTO integral calculation        ...        2.494 sec (=   0.042 min)  15.6 %
SCF iterations                  ...       13.493 sec (=   0.225 min)  84.4 %
                             ****ORCA TERMINATED NORMALLY****
TOTAL RUN TIME: 0 days 0 hours 0 minutes 16 seconds 516 msec
