
                                        *****************
                                        * O   R   C   A *
                                        *****************

                                            #,                                       
                                            ###                                      
                                            ####                                     
                                            #####                                    
                                            ######                                   
                                           ########,                                 
                                     ,,################,,,,,                         
                               ,,#################################,,                 
                          ,,##########################################,,             
                       ,#########################################, ''#####,          
                    ,#############################################,,   '####,        
                  ,##################################################,,,,####,       
                ,###########''''           ''''###############################       
              ,#####''   ,,,,##########,,,,          '''####'''          '####       
            ,##' ,,,,###########################,,,                        '##       
           ' ,,###''''                  '''############,,,                           
         ,,##''                                '''############,,,,        ,,,,,,###''
      ,#''                                            '''#######################'''  
     '                                                          ''''####''''         
             ,#######,   #######,   ,#######,      ##                                
            ,#'     '#,  ##    ##  ,#'     '#,    #''#        ######   ,####,        
            ##       ##  ##   ,#'  ##            #'  '#       #        #'  '#        
            ##       ##  #######   ##           ,######,      #####,   #    #        
            '#,     ,#'  ##    ##  '#,     ,#' ,#      #,         ##   #,  ,#        
             '#######'   ##     ##  '#######'  #'      '#     #####' # '####'        



                  #######################################################
                  #                        -***-                        #
                  #          Department of theory and spectroscopy      #
                  #    Directorship and core code : Frank Neese         #
                  #        Max Planck Institute fuer Kohlenforschung    #
                  #                Kaiser Wilhelm Platz 1               #
                  #                 D-45470 Muelheim/Ruhr               #
                  #                      Germany                        #
                  #                                                     #
                  #                  All rights reserved                #
                  #                        -***-                        #
                  #######################################################


                         Program Version 5.0.0 -  RELEASE  -
                                (SVN: $Rev: 19529$)
                ($Date: 2021-06-28 11:36:33 +0200 (Mo, 28 Jun 2021) $)


 With contributions from (in alphabetic order):
   Daniel Aravena         : Magnetic Suceptibility
   Michael Atanasov       : Ab Initio Ligand Field Theory (pilot matlab implementation)
   Alexander A. Auer      : GIAO ZORA, VPT2 properties, NMR spectrum
   Ute Becker             : Parallelization
   Giovanni Bistoni       : ED, misc. LED, open-shell LED, HFLD
   Martin Brehm           : Molecular dynamics
   Dmytro Bykov           : SCF Hessian
   Vijay G. Chilkuri      : MRCI spin determinant printing, contributions to CSF-ICE
   Dipayan Datta          : RHF DLPNO-CCSD density
   Achintya Kumar Dutta   : EOM-CC, STEOM-CC
   Dmitry Ganyushin       : Spin-Orbit,Spin-Spin,Magnetic field MRCI
   Miquel Garcia          : C-PCM Hessian, Gaussian charge scheme
   Yang Guo               : DLPNO-NEVPT2, F12-NEVPT2, CIM, IAO-localization
   Andreas Hansen         : Spin unrestricted coupled pair/coupled cluster methods
   Benjamin Helmich-Paris : MC-RPA, TRAH-SCF, COSX integrals
   Lee Huntington         : MR-EOM, pCC
   Robert Izsak           : Overlap fitted RIJCOSX, COSX-SCS-MP3, EOM
   Marcus Kettner         : VPT2
   Christian Kollmar      : KDIIS, OOCD, Brueckner-CCSD(T), CCSD density, CASPT2, CASPT2-K
   Simone Kossmann        : Meta GGA functionals, TD-DFT gradient, OOMP2, MP2 Hessian
   Martin Krupicka        : Initial AUTO-CI
   Lucas Lang             : DCDCAS
   Marvin Lechner         : AUTO-CI (C++ implementation), FIC-MRCC
   Dagmar Lenk            : GEPOL surface, SMD
   Dimitrios Liakos       : Extrapolation schemes; Compound Job, initial MDCI parallelization
   Dimitrios Manganas     : Further ROCIS development; embedding schemes
   Dimitrios Pantazis     : SARC Basis sets
   Anastasios Papadopoulos: AUTO-CI, single reference methods and gradients
   Taras Petrenko         : DFT Hessian,TD-DFT gradient, ASA, ECA, R-Raman, ABS, FL, XAS/XES, NRVS
   Peter Pinski           : DLPNO-MP2, DLPNO-MP2 Gradient
   Christoph Reimann      : Effective Core Potentials
   Marius Retegan         : Local ZFS, SOC
   Christoph Riplinger    : Optimizer, TS searches, QM/MM, DLPNO-CCSD(T), (RO)-DLPNO pert. Triples
   Tobias Risthaus        : Range-separated hybrids, TD-DFT gradient, RPA, STAB
   Michael Roemelt        : Original ROCIS implementation
   Masaaki Saitow         : Open-shell DLPNO-CCSD energy and density
   Barbara Sandhoefer     : DKH picture change effects
   Avijit Sen             : IP-ROCIS
   Kantharuban Sivalingam : CASSCF convergence, NEVPT2, FIC-MRCI
   Bernardo de Souza      : ESD, SOC TD-DFT
   Georgi Stoychev        : AutoAux, RI-MP2 NMR
   Willem Van den Heuvel  : Paramagnetic NMR
   Boris Wezisla          : Elementary symmetry handling
   Frank Wennmohs         : Technical directorship


 We gratefully acknowledge several colleagues who have allowed us to
 interface, adapt or use parts of their codes:
   Stefan Grimme, W. Hujo, H. Kruse, P. Pracht,  : VdW corrections, initial TS optimization,
                  C. Bannwarth, S. Ehlert          DFT functionals, gCP, sTDA/sTD-DF
   Ed Valeev, F. Pavosevic, A. Kumar             : LibInt (2-el integral package), F12 methods
   Garnet Chan, S. Sharma, J. Yang, R. Olivares  : DMRG
   Ulf Ekstrom                                   : XCFun DFT Library
   Mihaly Kallay                                 : mrcc  (arbitrary order and MRCC methods)
   Jiri Pittner, Ondrej Demel                    : Mk-CCSD
   Frank Weinhold                                : gennbo (NPA and NBO analysis)
   Christopher J. Cramer and Donald G. Truhlar   : smd solvation model
   Lars Goerigk                                  : TD-DFT with DH, B97 family of functionals
   V. Asgeirsson, H. Jonsson                     : NEB implementation
   FAccTs GmbH                                   : IRC, NEB, NEB-TS, DLPNO-Multilevel, CI-OPT
                                                   MM, QMMM, 2- and 3-layer-ONIOM, Crystal-QMMM,
                                                   LR-CPCM, SF, NACMEs, symmetry and pop. for TD-DFT,
                                                   nearIR, NL-DFT gradient (VV10), updates on ESD,
                                                   ML-optimized integration grids
   S Lehtola, MJT Oliveira, MAL Marques          : LibXC Library
   Liviu Ungur et al                             : ANISO software


 Your calculation uses the libint2 library for the computation of 2-el integrals
 For citations please refer to: http://libint.valeyev.net

 Your ORCA version has been built with support for libXC version: 5.1.0
 For citations please refer to: https://tddft.org/programs/libxc/

 This ORCA versions uses:
   CBLAS   interface :  Fast vector & matrix operations
   LAPACKE interface :  Fast linear algebra routines
   SCALAPACK package :  Parallel linear algebra routines
   Shared memory     :  Shared parallel matrices
   BLAS/LAPACK       :  OpenBLAS 0.3.15  USE64BITINT DYNAMIC_ARCH NO_AFFINITY Haswell SINGLE_THREADED
        Core in use  :  Haswell
   Copyright (c) 2011-2014, The OpenBLAS Project


XCFun DFT library Copyright 2009-2010 Ulf Ekstrom and contributors.
See http://admol.org/xcfun for more information.
This is free software; see the source code for copying conditions.
There is ABSOLUTELY NO WARRANTY; not even for MERCHANTABILITY or FITNESS FOR A PARTICULAR PURPOSE.
For details see the documentation.
Scientific users of this library should cite U. Ekstrom, L. Visscher, R. Bast, A. J. Thorvaldsen and K. Ruud;
J.Chem.Theor.Comp. 2010, DOI: 10.1021/ct100117s
XCFun Version 0.99 

================================================================================

----- Orbital basis set information -----
Your calculation utilizes the basis: def2-TZVP
   F. Weigend and R. Ahlrichs, Phys. Chem. Chem. Phys. 7, 3297 (2005).

----- AuxJ basis set information -----
Your calculation utilizes the auxiliary basis: def2/J
   F. Weigend, Phys. Chem. Chem. Phys. 8, 1057 (2006).

================================================================================
                                        WARNINGS
                       Please study these warnings very carefully!
================================================================================


INFO   : the flag for use of the SHARK integral package has been found!

================================================================================
                                       INPUT FILE
================================================================================
NAME = TZVP_CAMB3LYP_C3_wt_dlpno_neg.com
|  1> !CAM-B3LYP RIJCOSX def2-TZVP def2/J TightSCF
|  2> *xyz 0 1
|  3> C         -7.33044       -2.67899       -3.20681
|  4> S         -6.01966       -2.92697       -4.41913
|  5> O         -5.64583       -1.58838       -4.91931
|  6> O         -4.88196       -3.50370       -3.66724
|  7> F         -6.54927       -3.80515       -5.42507
|  8> C         -7.46900       -1.24615       -2.71383
|  9> H         -7.11825       -3.37982       -2.39805
| 10> H         -8.24184       -3.00474       -3.70651
| 11> H         -7.67580       -0.60214       -3.54292
| 12> H         -6.55749       -0.94096       -2.24382
| 13> H         -8.27114       -1.18777       -2.00810
| 14> *
| 15> %MaxCore 64000
| 16> 
| 17> %pal nprocs 4
| 18> end  
| 19> 
| 20> %scf
| 21>   MaxIter 150
| 22> end
| 23> 
| 24> 
| 25>                          ****END OF INPUT****
================================================================================

                       ****************************
                       * Single Point Calculation *
                       ****************************

---------------------------------
CARTESIAN COORDINATES (ANGSTROEM)
---------------------------------
  C     -7.330440   -2.678990   -3.206810
  S     -6.019660   -2.926970   -4.419130
  O     -5.645830   -1.588380   -4.919310
  O     -4.881960   -3.503700   -3.667240
  F     -6.549270   -3.805150   -5.425070
  C     -7.469000   -1.246150   -2.713830
  H     -7.118250   -3.379820   -2.398050
  H     -8.241840   -3.004740   -3.706510
  H     -7.675800   -0.602140   -3.542920
  H     -6.557490   -0.940960   -2.243820
  H     -8.271140   -1.187770   -2.008100

----------------------------
CARTESIAN COORDINATES (A.U.)
----------------------------
  NO LB      ZA    FRAG     MASS         X           Y           Z
   0 C     6.0000    0    12.011  -13.852524   -5.062557   -6.059993
   1 S    16.0000    0    32.060  -11.375509   -5.531172   -8.350945
   2 O     8.0000    0    15.999  -10.669072   -3.001603   -9.296149
   3 O     8.0000    0    15.999   -9.225567   -6.621033   -6.930079
   4 F     9.0000    0    18.998  -12.376327   -7.190691  -10.251897
   5 C     6.0000    0    12.011  -14.114364   -2.354882   -5.128395
   6 H     1.0000    0     1.008  -13.451543   -6.386934   -4.531658
   7 H     1.0000    0     1.008  -15.574820   -5.678136   -7.004289
   8 H     1.0000    0     1.008  -14.505160   -1.137880   -6.695149
   9 H     1.0000    0     1.008  -12.391860   -1.778157   -4.240205
  10 H     1.0000    0     1.008  -15.630189   -2.244560   -3.794759

--------------------------------
INTERNAL COORDINATES (ANGSTROEM)
--------------------------------
 C      0   0   0     0.000000000000     0.00000000     0.00000000
 S      1   0   0     1.802597589924     0.00000000     0.00000000
 O      2   1   0     1.477075519193   106.68484156     0.00000000
 O      2   1   3     1.480647613377   105.71170368   116.27732212
 F      2   1   3     1.436524329101   106.67637160   237.53370600
 C      1   2   3     1.521597390771   114.43469957   344.25628115
 H      1   2   3     1.090999552062   105.59041318   220.00070323
 H      1   2   3     1.089248875372   104.99648834   105.87797466
 H      6   1   2     1.070002499156   109.47078658    59.49944213
 H      6   1   2     1.070000381449   109.47091758   299.49982289
 H      6   1   2     1.069996092002   109.47134776   179.49931912

---------------------------
INTERNAL COORDINATES (A.U.)
---------------------------
 C      0   0   0     0.000000000000     0.00000000     0.00000000
 S      1   0   0     3.406415774623     0.00000000     0.00000000
 O      2   1   0     2.791268210395   106.68484156     0.00000000
 O      2   1   3     2.798018490127   105.71170368   116.27732212
 F      2   1   3     2.714637566716   106.67637160   237.53370600
 C      1   2   3     2.875402354646   114.43469957   344.25628115
 H      1   2   3     2.061690365628   105.59041318   220.00070323
 H      1   2   3     2.058382066136   104.99648834   105.87797466
 H      6   1   2     2.022011686016   109.47078658    59.49944213
 H      6   1   2     2.022007684129   109.47091758   299.49982289
 H      6   1   2     2.021999578250   109.47134776   179.49931912

---------------------
BASIS SET INFORMATION
---------------------
There are 5 groups of distinct atoms

 Group   1 Type C   : 11s6p2d1f contracted to 5s3p2d1f pattern {62111/411/11/1}
 Group   2 Type S   : 14s9p3d1f contracted to 5s5p2d1f pattern {73211/51111/21/1}
 Group   3 Type O   : 11s6p2d1f contracted to 5s3p2d1f pattern {62111/411/11/1}
 Group   4 Type F   : 11s6p2d1f contracted to 5s3p2d1f pattern {62111/411/11/1}
 Group   5 Type H   : 5s1p contracted to 3s1p pattern {311/1}

Atom   0C    basis set group =>   1
Atom   1S    basis set group =>   2
Atom   2O    basis set group =>   3
Atom   3O    basis set group =>   3
Atom   4F    basis set group =>   4
Atom   5C    basis set group =>   1
Atom   6H    basis set group =>   5
Atom   7H    basis set group =>   5
Atom   8H    basis set group =>   5
Atom   9H    basis set group =>   5
Atom  10H    basis set group =>   5
---------------------------------
AUXILIARY/J BASIS SET INFORMATION
---------------------------------
There are 5 groups of distinct atoms

 Group   1 Type C   : 12s5p4d2f1g contracted to 6s4p3d1f1g pattern {711111/2111/211/2/1}
 Group   2 Type S   : 14s5p5d2f1g contracted to 8s4p3d1f1g pattern {71111111/2111/311/2/1}
 Group   3 Type O   : 12s5p4d2f1g contracted to 6s4p3d1f1g pattern {711111/2111/211/2/1}
 Group   4 Type F   : 12s5p4d2f1g contracted to 6s4p3d1f1g pattern {711111/2111/211/2/1}
 Group   5 Type H   : 5s2p1d contracted to 3s1p1d pattern {311/2/1}

Atom   0C    basis set group =>   1
Atom   1S    basis set group =>   2
Atom   2O    basis set group =>   3
Atom   3O    basis set group =>   3
Atom   4F    basis set group =>   4
Atom   5C    basis set group =>   1
Atom   6H    basis set group =>   5
Atom   7H    basis set group =>   5
Atom   8H    basis set group =>   5
Atom   9H    basis set group =>   5
Atom  10H    basis set group =>   5


           ************************************************************
           *        Program running with 4 parallel MPI-processes     *
           *              working on a common directory               *
           ************************************************************
------------------------------------------------------------------------------
                           ORCA GTO INTEGRAL CALCULATION
                           -- RI-GTO INTEGRALS CHOSEN --
------------------------------------------------------------------------------
------------------------------------------------------------------------------
                   ___                                                        
                  /   \      - P O W E R E D   B Y -                         
                 /     \                                                     
                 |  |  |   _    _      __       _____    __    __             
                 |  |  |  | |  | |    /  \     |  _  \  |  |  /  |          
                  \  \/   | |  | |   /    \    | | | |  |  | /  /          
                 / \  \   | |__| |  /  /\  \   | |_| |  |  |/  /          
                |  |  |   |  __  | /  /__\  \  |    /   |      \           
                |  |  |   | |  | | |   __   |  |    \   |  |\   \          
                \     /   | |  | | |  |  |  |  | |\  \  |  | \   \       
                 \___/    |_|  |_| |__|  |__|  |_| \__\ |__|  \__/        
                                                                              
                      - O R C A' S   B I G   F R I E N D -                    
                                      &                                       
                       - I N T E G R A L  F E E D E R -                       
                                                                              
 v1 FN, 2020, v2 2021                                                         
------------------------------------------------------------------------------


Reading SHARK input file TZVP_CAMB3LYP_C3_wt_dlpno_neg.SHARKINP.tmp ... ok
----------------------
SHARK INTEGRAL PACKAGE
----------------------

Number of atoms                             ...     11
Number of basis functions                   ...    222
Number of shells                            ...     88
Maximum angular momentum                    ...      3
Integral batch strategy                     ... SHARK/LIBINT Hybrid
RI-J (if used) integral strategy            ... SPLIT-RIJ (Revised 2003 algorithm where possible)
Printlevel                                  ...      1
Contraction scheme used                     ... SEGMENTED contraction
Coulomb Range Separation                    ... NOT USED
Exchange Range Separation                   ... Long Range
   Mu parameter                             ...  0.330000
   Scaling (regular/separated)              ...  0.190000  0.460000
Finite Nucleus Model                        ... NOT USED
Auxiliary Coulomb fitting basis             ... AVAILABLE
   # of basis functions in Aux-J            ...    351
   # of shells in Aux-J                     ...    117
   Maximum angular momentum in Aux-J        ...      4
Auxiliary J/K fitting basis                 ... NOT available
Auxiliary Correlation fitting basis         ... NOT available
Auxiliary 'external' fitting basis          ... NOT available
Integral threshold                          ...     2.500000e-11
Primitive cut-off                           ...     2.500000e-12
Primitive pair pre-selection threshold      ...     2.500000e-12

Calculating pre-screening integrals         ... done (  0.1 sec) Dimension = 88
Organizing shell pair data                  ... done (  0.0 sec)
Shell pair information
Total number of shell pairs                 ...      3916
Shell pairs after pre-screening             ...      3653
Total number of primitive shell pairs       ...     12564
Primitive shell pairs kept                  ...      8833
          la=0 lb=0:    923 shell pairs
          la=1 lb=0:   1059 shell pairs
          la=1 lb=1:    317 shell pairs
          la=2 lb=0:    496 shell pairs
          la=2 lb=1:    292 shell pairs
          la=2 lb=2:     76 shell pairs
          la=3 lb=0:    251 shell pairs
          la=3 lb=1:    147 shell pairs
          la=3 lb=2:     71 shell pairs
          la=3 lb=3:     21 shell pairs

Calculating one electron integrals          ... done (  0.0 sec)
Calculating RI/J V-Matrix + Cholesky decomp.... done (  0.0 sec)
Calculating Nuclear repulsion               ... done (  0.0 sec) ENN=    361.680361195623 Eh

SHARK setup successfully completed in   0.2 seconds

Maximum memory used throughout the entire GTOINT-calculation: 15.3 MB


           ************************************************************
           *        Program running with 4 parallel MPI-processes     *
           *              working on a common directory               *
           ************************************************************
-------------------------------------------------------------------------------
                                 ORCA SCF
-------------------------------------------------------------------------------

------------
SCF SETTINGS
------------
Hamiltonian:
 Density Functional     Method          .... DFT(GTOs)
 Exchange Functional    Exchange        .... WB88
 Correlation Functional Correlation     .... LYP
 LDA part of GGA corr.  LDAOpt          .... VWN-5
 Gradients option       PostSCFGGA      .... off
 Hybrid DFT is turned on
   Fraction HF Exchange ScalHFX         ....  0.190000
   Scaling of DF-GGA-X  ScalDFX         ....  0.350000
   Scaling of DF-GGA-C  ScalDFC         ....  0.810000
   Scaling of DF-LDA-C  ScalLDAC        ....  1.000000
   Perturbative correction              ....  0.000000
   Density functional embedding theory  .... OFF
 Long-range corrected/Screened/Range-Separated Hybrid DFT is turned on
   Amount of maximum screened exact exchange              ....  0.460000
   Range separation parameter mu (erf(mu*r12)/r12)        ....  0.330000
 RI-approximation to the Coulomb term is turned on
   Number of AuxJ basis functions       .... 351
   RIJ-COSX (HFX calculated with COS-X)).... on


General Settings:
 Integral files         IntName         .... TZVP_CAMB3LYP_C3_wt_dlpno_neg
 Hartree-Fock type      HFTyp           .... RHF
 Total Charge           Charge          ....    0
 Multiplicity           Mult            ....    1
 Number of Electrons    NEL             ....   58
 Basis Dimension        Dim             ....  222
 Nuclear Repulsion      ENuc            ....    361.6803611956 Eh

Convergence Acceleration:
 DIIS                   CNVDIIS         .... on
   Start iteration      DIISMaxIt       ....    12
   Startup error        DIISStart       ....  0.200000
   # of expansion vecs  DIISMaxEq       ....     5
   Bias factor          DIISBfac        ....   1.050
   Max. coefficient     DIISMaxC        ....  10.000
 Trust-Rad. Augm. Hess. CNVTRAH         .... auto
   Auto Start mean grad. ratio tolernc. ....  1.125000
   Auto Start start iteration           ....    20
   Auto Start num. interpolation iter.  ....    10
   Max. Number of Micro iterations      ....    16
   Max. Number of Macro iterations      .... Maxiter - #DIIS iter
   Number of Davidson start vectors     ....     2
   Converg. threshold I  (grad. norm)   ....   1.000e-05
   Converg. threshold II (energy diff.) ....   1.000e-08
   Grad. Scal. Fac. for Micro threshold ....   0.100
   Minimum threshold for Micro iter.    ....   0.010
   NR start threshold (gradient norm)   ....   0.001
   Initial trust radius                 ....   0.400
   Minimum AH scaling param. (alpha)    ....   1.000
   Maximum AH scaling param. (alpha)    .... 1000.000
   Orbital update algorithm             .... Taylor
   White noise on init. David. guess    .... on
   Maximum white noise                  ....   0.010
   Quad. conv. algorithm                .... NR
 SOSCF                  CNVSOSCF        .... on
   Start iteration      SOSCFMaxIt      ....   150
   Startup grad/error   SOSCFStart      ....  0.003300
 Level Shifting         CNVShift        .... on
   Level shift para.    LevelShift      ....    0.2500
   Turn off err/grad.   ShiftErr        ....    0.0010
 Zerner damping         CNVZerner       .... off
 Static damping         CNVDamp         .... on
   Fraction old density DampFac         ....    0.7000
   Max. Damping (<1)    DampMax         ....    0.9800
   Min. Damping (>=0)   DampMin         ....    0.0000
   Turn off err/grad.   DampErr         ....    0.1000
 Fernandez-Rico         CNVRico         .... off

SCF Procedure:
 Maximum # iterations   MaxIter         ....   150
 SCF integral mode      SCFMode         .... Direct
   Integral package                     .... SHARK and LIBINT hybrid scheme
 Reset frequency        DirectResetFreq ....    20
 Integral Threshold     Thresh          ....  2.500e-11 Eh
 Primitive CutOff       TCut            ....  2.500e-12 Eh

Convergence Tolerance:
 Convergence Check Mode ConvCheckMode   .... Total+1el-Energy
 Convergence forced     ConvForced      .... 0
 Energy Change          TolE            ....  1.000e-08 Eh
 1-El. energy change                    ....  1.000e-05 Eh
 Orbital Gradient       TolG            ....  1.000e-05
 Orbital Rotation angle TolX            ....  1.000e-05
 DIIS Error             TolErr          ....  5.000e-07


Diagonalization of the overlap matrix:
Smallest eigenvalue                        ... 4.355e-04
Time for diagonalization                   ...    0.008 sec
Threshold for overlap eigenvalues          ... 1.000e-08
Number of eigenvalues below threshold      ... 0
Time for construction of square roots      ...    0.007 sec
Total time needed                          ...    0.016 sec

Time for model grid setup =    0.088 sec

------------------------------
INITIAL GUESS: MODEL POTENTIAL
------------------------------
Loading Hartree-Fock densities                     ... done
Calculating cut-offs                               ... done
Initializing the effective Hamiltonian             ... done
Setting up the integral package (SHARK)            ... done
Starting the Coulomb interaction                   ... done (   0.1 sec)
Reading the grid                                   ... done
Mapping shells                                     ... done
Starting the XC term evaluation                    ... done (   0.1 sec)
  promolecular density results
     # of electrons  =     57.996949088
     EX              =    -63.043690002
     EC              =     -2.062516319
     EX+EC           =    -65.106206321
Transforming the Hamiltonian                       ... done (   0.0 sec)
Diagonalizing the Hamiltonian                      ... done (   0.0 sec)
Back transforming the eigenvectors                 ... done (   0.0 sec)
Now organizing SCF variables                       ... done
                      ------------------
                      INITIAL GUESS DONE (   0.2 sec)
                      ------------------
-------------------
DFT GRID GENERATION
-------------------

General Integration Accuracy     IntAcc      ... 4.388
Radial Grid Type                 RadialGrid  ... OptM3 with GC (2021)
Angular Grid (max. ang.)         AngularGrid ... 4 (Lebedev-302)
Angular grid pruning method      GridPruning ... 4 (adaptive)
Weight generation scheme         WeightScheme... Becke
Basis function cutoff            BFCut       ... 1.0000e-11
Integration weight cutoff        WCut        ... 1.0000e-14
Angular grids for H and He will be reduced by one unit
Partially contracted basis set               ... off
Rotationally invariant grid construction     ... off

Total number of grid points                  ...    53895
Total number of batches                      ...      847
Average number of points per batch           ...       63
Average number of grid points per atom       ...     4900
Time for grid setup =    0.379 sec

--------------------
COSX GRID GENERATION
--------------------

GRIDX 1
-------
General Integration Accuracy     IntAcc      ... 3.816
Radial Grid Type                 RadialGrid  ... OptM3 with GC (2021)
Angular Grid (max. ang.)         AngularGrid ... 1 (Lebedev-50)
Angular grid pruning method      GridPruning ... 4 (adaptive)
Weight generation scheme         WeightScheme... Becke
Basis function cutoff            BFCut       ... 1.0000e-11
Integration weight cutoff        WCut        ... 1.0000e-14
Angular grids for H and He will be reduced by one unit
Partially contracted basis set               ... on
Rotationally invariant grid construction     ... off

Total number of grid points                  ...     6791
Total number of batches                      ...      113
Average number of points per batch           ...       60
Average number of grid points per atom       ...      617
UseSFitting                                  ... on

GRIDX 2
-------
General Integration Accuracy     IntAcc      ... 4.020
Radial Grid Type                 RadialGrid  ... OptM3 with GC (2021)
Angular Grid (max. ang.)         AngularGrid ... 2 (Lebedev-110)
Angular grid pruning method      GridPruning ... 4 (adaptive)
Weight generation scheme         WeightScheme... Becke
Basis function cutoff            BFCut       ... 1.0000e-11
Integration weight cutoff        WCut        ... 1.0000e-14
Angular grids for H and He will be reduced by one unit
Partially contracted basis set               ... on
Rotationally invariant grid construction     ... off

Total number of grid points                  ...    14995
Total number of batches                      ...      239
Average number of points per batch           ...       62
Average number of grid points per atom       ...     1363
UseSFitting                                  ... on

GRIDX 3
-------
General Integration Accuracy     IntAcc      ... 4.338
Radial Grid Type                 RadialGrid  ... OptM3 with GC (2021)
Angular Grid (max. ang.)         AngularGrid ... 3 (Lebedev-194)
Angular grid pruning method      GridPruning ... 4 (adaptive)
Weight generation scheme         WeightScheme... Becke
Basis function cutoff            BFCut       ... 1.0000e-11
Integration weight cutoff        WCut        ... 1.0000e-14
Angular grids for H and He will be reduced by one unit
Partially contracted basis set               ... on
Rotationally invariant grid construction     ... off

Total number of grid points                  ...    33637
Total number of batches                      ...      531
Average number of points per batch           ...       63
Average number of grid points per atom       ...     3058
UseSFitting                                  ... on

Time for X-Grid setup             =    0.399 sec

--------------
SCF ITERATIONS
--------------
ITER       Energy         Delta-E        Max-DP      RMS-DP      [F,P]     Damp
               ***  Starting incremental Fock matrix formation  ***
  0   -727.3814367179   0.000000000000 0.13746505  0.00157717  0.2968510 0.7000
  1   -727.5415567240  -0.160120006155 0.06230363  0.00098520  0.1157348 0.7000
                               ***Turning on DIIS***
  2   -727.5969003709  -0.055343646863 0.04069200  0.00142184  0.0446125 0.0000
  3   -727.6992173254  -0.102316954538 0.04967326  0.00064689  0.0605859 0.0000
  4   -727.7150318475  -0.015814522047 0.00672742  0.00017238  0.0143113 0.0000
                      *** Initiating the SOSCF procedure ***
                           *** Shutting down DIIS ***
                      *** Re-Reading the Fockian *** 
                      *** Removing any level shift *** 
ITER      Energy       Delta-E        Grad      Rot      Max-DP    RMS-DP
  5   -727.71586338  -0.0008315337  0.000669  0.000669  0.002375  0.000055
               *** Restarting incremental Fock matrix formation ***
  6   -727.71589129  -0.0000279064  0.000225  0.000302  0.001007  0.000027
  7   -727.71589510  -0.0000038084  0.000199  0.000394  0.000666  0.000017
  8   -727.71589642  -0.0000013257  0.000104  0.000105  0.000406  0.000007
  9   -727.71589667  -0.0000002513  0.000047  0.000031  0.000261  0.000003
 10   -727.71589675  -0.0000000727  0.000017  0.000018  0.000046  0.000001
 11   -727.71589675  -0.0000000044  0.000008  0.000006  0.000014  0.000000
 12   -727.71589675  -0.0000000005  0.000003  0.000004  0.000009  0.000000
                  ***Gradient check signals convergence***
              ***Rediagonalizing the Fockian in SOSCF/NRSCF***

               *****************************************************
               *                     SUCCESS                       *
               *           SCF CONVERGED AFTER  13 CYCLES          *
               *****************************************************

Old exchange energy                            =    -16.754740201 Eh
New exchange energy                            =    -16.754726503 Eh
Exchange energy change after final integration =      0.000013698 Eh
Total energy after final integration           =   -727.715883056 Eh
Final COS-X integration done in                =     5.312 sec

----------------
TOTAL SCF ENERGY
----------------

Total Energy       :         -727.71588306 Eh          -19802.15590 eV

Components:
Nuclear Repulsion  :          361.68036120 Eh            9841.82298 eV
Electronic Energy  :        -1089.39624425 Eh          -29643.97888 eV
One Electron Energy:        -1719.49255906 Eh          -46789.77128 eV
Two Electron Energy:          630.09631481 Eh           17145.79240 eV
Max COSX asymmetry :            0.00000221 Eh               0.00006 eV

Virial components:
Potential Energy   :        -1453.48915585 Eh          -39551.45069 eV
Kinetic Energy     :          725.77327279 Eh           19749.29479 eV
Virial Ratio       :            2.00267661


DFT components:
N(Alpha)           :       28.999996441718 electrons
N(Beta)            :       28.999996441718 electrons
N(Total)           :       57.999992883436 electrons
E(XC)              :      -49.400985859276 Eh       
DFET-embed. en.    :        0.000000000000 Eh       

---------------
SCF CONVERGENCE
---------------

  Last Energy change         ...   -3.3833e-09  Tolerance :   1.0000e-08
  Last MAX-Density change    ...    1.5543e-15  Tolerance :   1.0000e-07
  Last RMS-Density change    ...    2.2122e-17  Tolerance :   5.0000e-09
  Last Orbital Gradient      ...    1.0164e-06  Tolerance :   1.0000e-05
  Last Orbital Rotation      ...    9.4533e-07  Tolerance :   1.0000e-05

             **** THE GBW FILE WAS UPDATED (TZVP_CAMB3LYP_C3_wt_dlpno_neg.gbw) ****
             **** DENSITY TZVP_CAMB3LYP_C3_wt_dlpno_neg.scfp WAS UPDATED ****
             **** ENERGY FILE WAS UPDATED (TZVP_CAMB3LYP_C3_wt_dlpno_neg.en.tmp) ****
             **** THE GBW FILE WAS UPDATED (TZVP_CAMB3LYP_C3_wt_dlpno_neg.gbw) ****
             **** DENSITY TZVP_CAMB3LYP_C3_wt_dlpno_neg.scfp WAS UPDATED ****
----------------
ORBITAL ENERGIES
----------------

  NO   OCC          E(Eh)            E(eV) 
   0   2.0000     -89.179511     -2426.6979 
   1   2.0000     -24.882739      -677.0937 
   2   2.0000     -19.202753      -522.5335 
   3   2.0000     -19.199621      -522.4482 
   4   2.0000     -10.310280      -280.5570 
   5   2.0000     -10.261979      -279.2426 
   6   2.0000      -8.223267      -223.7665 
   7   2.0000      -6.191109      -168.4686 
   8   2.0000      -6.184582      -168.2910 
   9   2.0000      -6.184265      -168.2824 
  10   2.0000      -1.474533       -40.1241 
  11   2.0000      -1.176344       -32.0100 
  12   2.0000      -1.076619       -29.2963 
  13   2.0000      -0.909919       -24.7602 
  14   2.0000      -0.819680       -22.3046 
  15   2.0000      -0.756832       -20.5945 
  16   2.0000      -0.669593       -18.2206 
  17   2.0000      -0.667301       -18.1582 
  18   2.0000      -0.630281       -17.1508 
  19   2.0000      -0.568683       -15.4746 
  20   2.0000      -0.552410       -15.0318 
  21   2.0000      -0.513502       -13.9731 
  22   2.0000      -0.495289       -13.4775 
  23   2.0000      -0.475174       -12.9301 
  24   2.0000      -0.458419       -12.4742 
  25   2.0000      -0.448301       -12.1989 
  26   2.0000      -0.394178       -10.7261 
  27   2.0000      -0.387478       -10.5438 
  28   2.0000      -0.366598        -9.9756 
  29   0.0000       0.057129         1.5545 
  30   0.0000       0.072823         1.9816 
  31   0.0000       0.092141         2.5073 
  32   0.0000       0.111707         3.0397 
  33   0.0000       0.120120         3.2686 
  34   0.0000       0.125209         3.4071 
  35   0.0000       0.139686         3.8010 
  36   0.0000       0.151143         4.1128 
  37   0.0000       0.179585         4.8868 
  38   0.0000       0.205549         5.5933 
  39   0.0000       0.226735         6.1698 
  40   0.0000       0.240624         6.5477 
  41   0.0000       0.250145         6.8068 
  42   0.0000       0.303028         8.2458 
  43   0.0000       0.312158         8.4942 
  44   0.0000       0.326529         8.8853 
  45   0.0000       0.337452         9.1825 
  46   0.0000       0.344532         9.3752 
  47   0.0000       0.401209        10.9175 
  48   0.0000       0.419736        11.4216 
  49   0.0000       0.437141        11.8952 
  50   0.0000       0.439325        11.9546 
  51   0.0000       0.467775        12.7288 
  52   0.0000       0.476001        12.9526 
  53   0.0000       0.482359        13.1257 
  54   0.0000       0.486898        13.2492 
  55   0.0000       0.506433        13.7808 
  56   0.0000       0.524116        14.2619 
  57   0.0000       0.539114        14.6700 
  58   0.0000       0.544995        14.8301 
  59   0.0000       0.565285        15.3822 
  60   0.0000       0.607154        16.5215 
  61   0.0000       0.621358        16.9080 
  62   0.0000       0.636125        17.3098 
  63   0.0000       0.661522        18.0009 
  64   0.0000       0.666202        18.1283 
  65   0.0000       0.689481        18.7617 
  66   0.0000       0.734466        19.9858 
  67   0.0000       0.769260        20.9326 
  68   0.0000       0.784601        21.3501 
  69   0.0000       0.820223        22.3194 
  70   0.0000       0.874508        23.7966 
  71   0.0000       0.892380        24.2829 
  72   0.0000       0.900188        24.4954 
  73   0.0000       0.943720        25.6799 
  74   0.0000       0.949569        25.8391 
  75   0.0000       0.975382        26.5415 
  76   0.0000       1.014218        27.5983 
  77   0.0000       1.059472        28.8297 
  78   0.0000       1.089146        29.6372 
  79   0.0000       1.101808        29.9817 
  80   0.0000       1.123046        30.5596 
  81   0.0000       1.172122        31.8951 
  82   0.0000       1.192375        32.4462 
  83   0.0000       1.342897        36.5421 
  84   0.0000       1.376101        37.4456 
  85   0.0000       1.378254        37.5042 
  86   0.0000       1.471831        40.0506 
  87   0.0000       1.485163        40.4133 
  88   0.0000       1.502838        40.8943 
  89   0.0000       1.521129        41.3920 
  90   0.0000       1.546085        42.0711 
  91   0.0000       1.558659        42.4133 
  92   0.0000       1.579994        42.9938 
  93   0.0000       1.588693        43.2305 
  94   0.0000       1.605546        43.6891 
  95   0.0000       1.608097        43.7585 
  96   0.0000       1.626033        44.2466 
  97   0.0000       1.653638        44.9978 
  98   0.0000       1.680095        45.7177 
  99   0.0000       1.697663        46.1957 
 100   0.0000       1.724671        46.9307 
 101   0.0000       1.734697        47.2035 
 102   0.0000       1.786062        48.6012 
 103   0.0000       1.816141        49.4197 
 104   0.0000       1.861875        50.6642 
 105   0.0000       1.890009        51.4298 
 106   0.0000       1.900828        51.7242 
 107   0.0000       1.952371        53.1267 
 108   0.0000       1.994690        54.2783 
 109   0.0000       2.002053        54.4786 
 110   0.0000       2.075109        56.4666 
 111   0.0000       2.086147        56.7669 
 112   0.0000       2.121810        57.7374 
 113   0.0000       2.146812        58.4177 
 114   0.0000       2.205154        60.0053 
 115   0.0000       2.244496        61.0758 
 116   0.0000       2.300531        62.6006 
 117   0.0000       2.328581        63.3639 
 118   0.0000       2.344818        63.8057 
 119   0.0000       2.352386        64.0117 
 120   0.0000       2.381297        64.7984 
 121   0.0000       2.393224        65.1229 
 122   0.0000       2.400210        65.3130 
 123   0.0000       2.418070        65.7990 
 124   0.0000       2.441555        66.4381 
 125   0.0000       2.473137        67.2975 
 126   0.0000       2.500948        68.0543 
 127   0.0000       2.517156        68.4953 
 128   0.0000       2.531094        68.8746 
 129   0.0000       2.625213        71.4357 
 130   0.0000       2.639454        71.8232 
 131   0.0000       2.652271        72.1720 
 132   0.0000       2.663921        72.4890 
 133   0.0000       2.676511        72.8316 
 134   0.0000       2.690404        73.2096 
 135   0.0000       2.725017        74.1515 
 136   0.0000       2.731604        74.3307 
 137   0.0000       2.787424        75.8497 
 138   0.0000       2.833108        77.0928 
 139   0.0000       2.859686        77.8160 
 140   0.0000       2.932060        79.7854 
 141   0.0000       2.968183        80.7684 
 142   0.0000       2.979885        81.0868 
 143   0.0000       3.021282        82.2133 
 144   0.0000       3.036272        82.6212 
 145   0.0000       3.064410        83.3868 
 146   0.0000       3.114615        84.7530 
 147   0.0000       3.134202        85.2860 
 148   0.0000       3.167335        86.1876 
 149   0.0000       3.195475        86.9533 
 150   0.0000       3.241007        88.1923 
 151   0.0000       3.255163        88.5775 
 152   0.0000       3.311597        90.1131 
 153   0.0000       3.399804        92.5134 
 154   0.0000       3.407777        92.7303 
 155   0.0000       3.429524        93.3221 
 156   0.0000       3.436014        93.4987 
 157   0.0000       3.487525        94.9004 
 158   0.0000       3.515606        95.6645 
 159   0.0000       3.553428        96.6937 
 160   0.0000       3.583713        97.5178 
 161   0.0000       3.659911        99.5912 
 162   0.0000       3.793405       103.2238 
 163   0.0000       3.807901       103.6183 
 164   0.0000       3.870797       105.3297 
 165   0.0000       3.880024       105.5808 
 166   0.0000       3.929820       106.9358 
 167   0.0000       3.992366       108.6378 
 168   0.0000       4.046593       110.1134 
 169   0.0000       4.120061       112.1126 
 170   0.0000       4.297971       116.9537 
 171   0.0000       4.344328       118.2152 
 172   0.0000       4.480453       121.9193 
 173   0.0000       4.495515       122.3292 
 174   0.0000       4.603544       125.2688 
 175   0.0000       4.619248       125.6961 
 176   0.0000       4.800541       130.6294 
 177   0.0000       5.210363       141.7812 
 178   0.0000       5.213558       141.8681 
 179   0.0000       5.217180       141.9667 
 180   0.0000       5.228183       142.2661 
 181   0.0000       5.237497       142.5196 
 182   0.0000       5.249834       142.8553 
 183   0.0000       5.271660       143.4492 
 184   0.0000       5.403709       147.0424 
 185   0.0000       5.443204       148.1171 
 186   0.0000       5.486264       149.2888 
 187   0.0000       5.544046       150.8612 
 188   0.0000       5.577635       151.7752 
 189   0.0000       5.629858       153.1962 
 190   0.0000       5.703278       155.1941 
 191   0.0000       6.339178       172.4978 
 192   0.0000       6.404858       174.2850 
 193   0.0000       6.418858       174.6660 
 194   0.0000       6.446411       175.4158 
 195   0.0000       6.639248       180.6631 
 196   0.0000       6.716458       182.7641 
 197   0.0000       6.750183       183.6818 
 198   0.0000       6.816093       185.4753 
 199   0.0000       6.836263       186.0242 
 200   0.0000       6.864121       186.7822 
 201   0.0000       6.897741       187.6971 
 202   0.0000       6.900947       187.7843 
 203   0.0000       6.909077       188.0055 
 204   0.0000       6.956243       189.2890 
 205   0.0000       6.960484       189.4044 
 206   0.0000       7.040244       191.5748 
 207   0.0000       7.106256       193.3710 
 208   0.0000       8.293074       225.6660 
 209   0.0000       8.307225       226.0511 
 210   0.0000       8.668497       235.8818 
 211   0.0000       8.683477       236.2894 
 212   0.0000       8.755424       238.2472 
 213   0.0000       9.380613       255.2595 
 214   0.0000       9.531728       259.3715 
 215   0.0000       9.763361       265.6745 
 216   0.0000      22.104343       601.4898 
 217   0.0000      22.391223       609.2962 
 218   0.0000      22.448446       610.8533 
 219   0.0000      43.451112      1182.3649 
 220   0.0000      43.629054      1187.2069 
 221   0.0000      56.996470      1550.9528 

                    ********************************
                    * MULLIKEN POPULATION ANALYSIS *
                    ********************************

-----------------------
MULLIKEN ATOMIC CHARGES
-----------------------
   0 C :   -0.255012
   1 S :    0.872253
   2 O :   -0.442949
   3 O :   -0.447580
   4 F :   -0.100387
   5 C :   -0.334129
   6 H :    0.162153
   7 H :    0.131218
   8 H :    0.140259
   9 H :    0.145587
  10 H :    0.128586
Sum of atomic charges:   -0.0000000

--------------------------------
MULLIKEN REDUCED ORBITAL CHARGES
--------------------------------
  0 C s       :     3.238339  s :     3.238339
      pz      :     0.967827  p :     2.928580
      px      :     0.949239
      py      :     1.011514
      dz2     :     0.005926  d :     0.083142
      dxz     :     0.021203
      dyz     :     0.022836
      dx2y2   :     0.011759
      dxy     :     0.021419
      f0      :     0.000138  f :     0.004952
      f+1     :     0.000523
      f-1     :     0.000828
      f+2     :     0.001509
      f-2     :     0.000607
      f+3     :     0.000850
      f-3     :     0.000498
  1 S s       :     5.383157  s :     5.383157
      pz      :     2.848840  p :     8.537796
      px      :     2.902678
      py      :     2.786278
      dz2     :     0.174836  d :     1.082916
      dxz     :     0.234033
      dyz     :     0.225810
      dx2y2   :     0.233599
      dxy     :     0.214638
      f0      :     0.012338  f :     0.123878
      f+1     :     0.015894
      f-1     :     0.022067
      f+2     :     0.020633
      f-2     :     0.015276
      f+3     :     0.021013
      f-3     :     0.016658
  2 O s       :     3.841430  s :     3.841430
      pz      :     1.634421  p :     4.566251
      px      :     1.640566
      py      :     1.291264
      dz2     :     0.004733  d :     0.033369
      dxz     :     0.001931
      dyz     :     0.008757
      dx2y2   :     0.009209
      dxy     :     0.008739
      f0      :     0.000149  f :     0.001899
      f+1     :     0.000045
      f-1     :     0.000355
      f+2     :     0.000308
      f-2     :     0.000210
      f+3     :     0.000409
      f-3     :     0.000422
  3 O s       :     3.839807  s :     3.839807
      pz      :     1.522416  p :     4.572793
      px      :     1.415101
      py      :     1.635275
      dz2     :     0.005792  d :     0.033097
      dxz     :     0.009074
      dyz     :     0.003549
      dx2y2   :     0.007251
      dxy     :     0.007430
      f0      :     0.000162  f :     0.001883
      f+1     :     0.000387
      f-1     :     0.000091
      f+2     :     0.000338
      f-2     :     0.000350
      f+3     :     0.000289
      f-3     :     0.000267
  4 F s       :     3.890142  s :     3.890142
      pz      :     1.674252  p :     5.187756
      px      :     1.798038
      py      :     1.715466
      dz2     :     0.004891  d :     0.021540
      dxz     :     0.004176
      dyz     :     0.006198
      dx2y2   :     0.003016
      dxy     :     0.003260
      f0      :     0.000119  f :     0.000949
      f+1     :     0.000103
      f-1     :     0.000213
      f+2     :     0.000170
      f-2     :     0.000210
      f+3     :     0.000070
      f-3     :     0.000062
  5 C s       :     3.271992  s :     3.271992
      pz      :     1.047062  p :     3.009501
      px      :     1.069471
      py      :     0.892969
      dz2     :     0.003103  d :     0.048972
      dxz     :     0.009832
      dyz     :     0.015608
      dx2y2   :     0.008822
      dxy     :     0.011606
      f0      :     0.000082  f :     0.003663
      f+1     :     0.000142
      f-1     :     0.000715
      f+2     :     0.001494
      f-2     :     0.000311
      f+3     :     0.000563
      f-3     :     0.000357
  6 H s       :     0.815752  s :     0.815752
      pz      :     0.009482  p :     0.022095
      px      :     0.004312
      py      :     0.008301
  7 H s       :     0.846931  s :     0.846931
      pz      :     0.005674  p :     0.021851
      px      :     0.010952
      py      :     0.005225
  8 H s       :     0.837877  s :     0.837877
      pz      :     0.009502  p :     0.021863
      px      :     0.004612
      py      :     0.007749
  9 H s       :     0.832682  s :     0.832682
      pz      :     0.006006  p :     0.021731
      px      :     0.010632
      py      :     0.005094
 10 H s       :     0.849863  s :     0.849863
      pz      :     0.008237  p :     0.021551
      px      :     0.009048
      py      :     0.004266


                     *******************************
                     * LOEWDIN POPULATION ANALYSIS *
                     *******************************

----------------------
LOEWDIN ATOMIC CHARGES
----------------------
   0 C :   -0.391141
   1 S :    0.560698
   2 O :   -0.304222
   3 O :   -0.317278
   4 F :    0.100958
   5 C :   -0.305207
   6 H :    0.144365
   7 H :    0.132661
   8 H :    0.126124
   9 H :    0.128665
  10 H :    0.124377

-------------------------------
LOEWDIN REDUCED ORBITAL CHARGES
-------------------------------
  0 C s       :     2.849033  s :     2.849033
      pz      :     1.032138  p :     3.147914
      px      :     1.026120
      py      :     1.089657
      dz2     :     0.036222  d :     0.361624
      dxz     :     0.090891
      dyz     :     0.093617
      dx2y2   :     0.070237
      dxy     :     0.070657
      f0      :     0.003035  f :     0.032570
      f+1     :     0.003566
      f-1     :     0.005832
      f+2     :     0.005684
      f-2     :     0.003871
      f+3     :     0.006294
      f-3     :     0.004287
  1 S s       :     4.771358  s :     4.771358
      pz      :     2.840357  p :     8.570524
      px      :     2.897738
      py      :     2.832429
      dz2     :     0.259883  d :     1.725813
      dxz     :     0.395056
      dyz     :     0.372654
      dx2y2   :     0.365321
      dxy     :     0.332899
      f0      :     0.037779  f :     0.371607
      f+1     :     0.046468
      f-1     :     0.064452
      f+2     :     0.061434
      f-2     :     0.052039
      f+3     :     0.060394
      f-3     :     0.049041
  2 O s       :     3.582629  s :     3.582629
      pz      :     1.602203  p :     4.653126
      px      :     1.598785
      py      :     1.452138
      dz2     :     0.008224  d :     0.064181
      dxz     :     0.003240
      dyz     :     0.016866
      dx2y2   :     0.020726
      dxy     :     0.015126
      f0      :     0.000458  f :     0.004285
      f+1     :     0.000072
      f-1     :     0.000642
      f+2     :     0.000759
      f-2     :     0.000515
      f+3     :     0.000957
      f-3     :     0.000881
  3 O s       :     3.587696  s :     3.587696
      pz      :     1.544296  p :     4.661804
      px      :     1.502942
      py      :     1.614566
      dz2     :     0.007288  d :     0.063559
      dxz     :     0.021411
      dyz     :     0.007327
      dx2y2   :     0.013070
      dxy     :     0.014463
      f0      :     0.000474  f :     0.004219
      f+1     :     0.000596
      f-1     :     0.000167
      f+2     :     0.000786
      f-2     :     0.000963
      f+3     :     0.000488
      f-3     :     0.000745
  4 F s       :     3.649809  s :     3.649809
      pz      :     1.708856  p :     5.207352
      px      :     1.767307
      py      :     1.731190
      dz2     :     0.007356  d :     0.040076
      dxz     :     0.007883
      dyz     :     0.014177
      dx2y2   :     0.004754
      dxy     :     0.005906
      f0      :     0.000194  f :     0.001805
      f+1     :     0.000202
      f-1     :     0.000445
      f+2     :     0.000304
      f-2     :     0.000425
      f+3     :     0.000142
      f-3     :     0.000093
  5 C s       :     2.822786  s :     2.822786
      pz      :     1.080021  p :     3.198961
      px      :     1.084452
      py      :     1.034488
      dz2     :     0.020567  d :     0.257099
      dxz     :     0.053590
      dyz     :     0.073222
      dx2y2   :     0.060979
      dxy     :     0.048741
      f0      :     0.002897  f :     0.026361
      f+1     :     0.001344
      f-1     :     0.005933
      f+2     :     0.004643
      f-2     :     0.002000
      f+3     :     0.005658
      f-3     :     0.003885
  6 H s       :     0.792774  s :     0.792774
      pz      :     0.027262  p :     0.062861
      px      :     0.012902
      py      :     0.022697
  7 H s       :     0.804444  s :     0.804444
      pz      :     0.016960  p :     0.062895
      px      :     0.030636
      py      :     0.015299
  8 H s       :     0.809120  s :     0.809120
      pz      :     0.028696  p :     0.064756
      px      :     0.014779
      py      :     0.021281
  9 H s       :     0.806902  s :     0.806902
      pz      :     0.018135  p :     0.064432
      px      :     0.031427
      py      :     0.014871
 10 H s       :     0.811549  s :     0.811549
      pz      :     0.024005  p :     0.064074
      px      :     0.026760
      py      :     0.013309


                      *****************************
                      * MAYER POPULATION ANALYSIS *
                      *****************************

  NA   - Mulliken gross atomic population
  ZA   - Total nuclear charge
  QA   - Mulliken gross atomic charge
  VA   - Mayer's total valence
  BVA  - Mayer's bonded valence
  FA   - Mayer's free valence

  ATOM       NA         ZA         QA         VA         BVA        FA
  0 C      6.2550     6.0000    -0.2550     3.8256     3.8256    -0.0000
  1 S     15.1277    16.0000     0.8723     5.8896     5.8896     0.0000
  2 O      8.4429     8.0000    -0.4429     1.9946     1.9946    -0.0000
  3 O      8.4476     8.0000    -0.4476     1.9928     1.9928     0.0000
  4 F      9.1004     9.0000    -0.1004     1.2209     1.2209     0.0000
  5 C      6.3341     6.0000    -0.3341     3.8590     3.8590    -0.0000
  6 H      0.8378     1.0000     0.1622     0.9658     0.9658    -0.0000
  7 H      0.8688     1.0000     0.1312     0.9596     0.9596    -0.0000
  8 H      0.8597     1.0000     0.1403     0.9819     0.9819    -0.0000
  9 H      0.8544     1.0000     0.1456     0.9713     0.9713     0.0000
 10 H      0.8714     1.0000     0.1286     0.9594     0.9594     0.0000

  Mayer bond orders larger than 0.100000
B(  0-C ,  1-S ) :   0.9061 B(  0-C ,  5-C ) :   0.9538 B(  0-C ,  6-H ) :   0.9434 
B(  0-C ,  7-H ) :   0.9442 B(  1-S ,  2-O ) :   1.8908 B(  1-S ,  3-O ) :   1.8991 
B(  1-S ,  4-F ) :   1.1484 B(  5-C ,  8-H ) :   0.9683 B(  5-C ,  9-H ) :   0.9709 
B(  5-C , 10-H ) :   0.9589 

-------
TIMINGS
-------

Total SCF time: 0 days 0 hours 0 min 36 sec 

Total time                  ....      36.534 sec
Sum of individual times     ....      36.319 sec  ( 99.4%)

Fock matrix formation       ....      35.092 sec  ( 96.1%)
  Split-RI-J                ....       1.656 sec  (  4.7% of F)
  Chain of spheres X        ....      29.913 sec  ( 85.2% of F)
  XC integration            ....       3.464 sec  (  9.9% of F)
    Basis function eval.    ....       1.053 sec  ( 30.4% of XC)
    Density eval.           ....       0.788 sec  ( 22.8% of XC)
    XC-Functional eval.     ....       0.541 sec  ( 15.6% of XC)
    XC-Potential eval.      ....       0.930 sec  ( 26.8% of XC)
Diagonalization             ....       0.073 sec  (  0.2%)
Density matrix formation    ....       0.008 sec  (  0.0%)
Population analysis         ....       0.011 sec  (  0.0%)
Initial guess               ....       0.156 sec  (  0.4%)
Orbital Transformation      ....       0.000 sec  (  0.0%)
Orbital Orthonormalization  ....       0.000 sec  (  0.0%)
DIIS solution               ....       0.043 sec  (  0.1%)
SOSCF solution              ....       0.071 sec  (  0.2%)
Grid generation             ....       0.866 sec  (  2.4%)

Maximum memory used throughout the entire SCF-calculation: 70.2 MB

-------------------------   --------------------
FINAL SINGLE POINT ENERGY      -727.715883056058
-------------------------   --------------------


                            ***************************************
                            *     ORCA property calculations      *
                            ***************************************

                                    ---------------------
                                    Active property flags
                                    ---------------------
   (+) Dipole Moment


------------------------------------------------------------------------------
                       ORCA ELECTRIC PROPERTIES CALCULATION
------------------------------------------------------------------------------

Dipole Moment Calculation                       ... on
Quadrupole Moment Calculation                   ... off
Polarizability Calculation                      ... off
GBWName                                         ... TZVP_CAMB3LYP_C3_wt_dlpno_neg.gbw
Electron density file                           ... TZVP_CAMB3LYP_C3_wt_dlpno_neg.scfp
The origin for moment calculation is the CENTER OF MASS  = (-11.828207, -5.122683 -7.875276)

-------------
DIPOLE MOMENT
-------------
                                X             Y             Z
Electronic contribution:      4.12028      -5.48908      -7.27117
Nuclear contribution   :     -5.87110       5.18927       7.67759
                        -----------------------------------------
Total Dipole Moment    :     -1.75082      -0.29981       0.40643
                        -----------------------------------------
Magnitude (a.u.)       :      1.82220
Magnitude (Debye)      :      4.63168



--------------------
Rotational spectrum 
--------------------
 
Rotational constants in cm-1:     0.155988     0.080452     0.078187 
Rotational constants in MHz :  4676.405251  2411.902056  2343.983816 

 Dipole components along the rotational axes: 
x,y,z [a.u.] :    -0.953591    -1.552187     0.042541 
x,y,z [Debye]:    -2.423836    -3.945345     0.108131 

 

Timings for individual modules:

Sum of individual times         ...       39.206 sec (=   0.653 min)
GTO integral calculation        ...        2.204 sec (=   0.037 min)   5.6 %
SCF iterations                  ...       37.002 sec (=   0.617 min)  94.4 %
                             ****ORCA TERMINATED NORMALLY****
TOTAL RUN TIME: 0 days 0 hours 0 minutes 39 seconds 708 msec
