
                                        *****************
                                        * O   R   C   A *
                                        *****************

                                            #,                                       
                                            ###                                      
                                            ####                                     
                                            #####                                    
                                            ######                                   
                                           ########,                                 
                                     ,,################,,,,,                         
                               ,,#################################,,                 
                          ,,##########################################,,             
                       ,#########################################, ''#####,          
                    ,#############################################,,   '####,        
                  ,##################################################,,,,####,       
                ,###########''''           ''''###############################       
              ,#####''   ,,,,##########,,,,          '''####'''          '####       
            ,##' ,,,,###########################,,,                        '##       
           ' ,,###''''                  '''############,,,                           
         ,,##''                                '''############,,,,        ,,,,,,###''
      ,#''                                            '''#######################'''  
     '                                                          ''''####''''         
             ,#######,   #######,   ,#######,      ##                                
            ,#'     '#,  ##    ##  ,#'     '#,    #''#        ######   ,####,        
            ##       ##  ##   ,#'  ##            #'  '#       #        #'  '#        
            ##       ##  #######   ##           ,######,      #####,   #    #        
            '#,     ,#'  ##    ##  '#,     ,#' ,#      #,         ##   #,  ,#        
             '#######'   ##     ##  '#######'  #'      '#     #####' # '####'        



                  #######################################################
                  #                        -***-                        #
                  #          Department of theory and spectroscopy      #
                  #    Directorship and core code : Frank Neese         #
                  #        Max Planck Institute fuer Kohlenforschung    #
                  #                Kaiser Wilhelm Platz 1               #
                  #                 D-45470 Muelheim/Ruhr               #
                  #                      Germany                        #
                  #                                                     #
                  #                  All rights reserved                #
                  #                        -***-                        #
                  #######################################################


                         Program Version 5.0.0 -  RELEASE  -
                                (SVN: $Rev: 19529$)
                ($Date: 2021-06-28 11:36:33 +0200 (Mo, 28 Jun 2021) $)


 With contributions from (in alphabetic order):
   Daniel Aravena         : Magnetic Suceptibility
   Michael Atanasov       : Ab Initio Ligand Field Theory (pilot matlab implementation)
   Alexander A. Auer      : GIAO ZORA, VPT2 properties, NMR spectrum
   Ute Becker             : Parallelization
   Giovanni Bistoni       : ED, misc. LED, open-shell LED, HFLD
   Martin Brehm           : Molecular dynamics
   Dmytro Bykov           : SCF Hessian
   Vijay G. Chilkuri      : MRCI spin determinant printing, contributions to CSF-ICE
   Dipayan Datta          : RHF DLPNO-CCSD density
   Achintya Kumar Dutta   : EOM-CC, STEOM-CC
   Dmitry Ganyushin       : Spin-Orbit,Spin-Spin,Magnetic field MRCI
   Miquel Garcia          : C-PCM Hessian, Gaussian charge scheme
   Yang Guo               : DLPNO-NEVPT2, F12-NEVPT2, CIM, IAO-localization
   Andreas Hansen         : Spin unrestricted coupled pair/coupled cluster methods
   Benjamin Helmich-Paris : MC-RPA, TRAH-SCF, COSX integrals
   Lee Huntington         : MR-EOM, pCC
   Robert Izsak           : Overlap fitted RIJCOSX, COSX-SCS-MP3, EOM
   Marcus Kettner         : VPT2
   Christian Kollmar      : KDIIS, OOCD, Brueckner-CCSD(T), CCSD density, CASPT2, CASPT2-K
   Simone Kossmann        : Meta GGA functionals, TD-DFT gradient, OOMP2, MP2 Hessian
   Martin Krupicka        : Initial AUTO-CI
   Lucas Lang             : DCDCAS
   Marvin Lechner         : AUTO-CI (C++ implementation), FIC-MRCC
   Dagmar Lenk            : GEPOL surface, SMD
   Dimitrios Liakos       : Extrapolation schemes; Compound Job, initial MDCI parallelization
   Dimitrios Manganas     : Further ROCIS development; embedding schemes
   Dimitrios Pantazis     : SARC Basis sets
   Anastasios Papadopoulos: AUTO-CI, single reference methods and gradients
   Taras Petrenko         : DFT Hessian,TD-DFT gradient, ASA, ECA, R-Raman, ABS, FL, XAS/XES, NRVS
   Peter Pinski           : DLPNO-MP2, DLPNO-MP2 Gradient
   Christoph Reimann      : Effective Core Potentials
   Marius Retegan         : Local ZFS, SOC
   Christoph Riplinger    : Optimizer, TS searches, QM/MM, DLPNO-CCSD(T), (RO)-DLPNO pert. Triples
   Tobias Risthaus        : Range-separated hybrids, TD-DFT gradient, RPA, STAB
   Michael Roemelt        : Original ROCIS implementation
   Masaaki Saitow         : Open-shell DLPNO-CCSD energy and density
   Barbara Sandhoefer     : DKH picture change effects
   Avijit Sen             : IP-ROCIS
   Kantharuban Sivalingam : CASSCF convergence, NEVPT2, FIC-MRCI
   Bernardo de Souza      : ESD, SOC TD-DFT
   Georgi Stoychev        : AutoAux, RI-MP2 NMR
   Willem Van den Heuvel  : Paramagnetic NMR
   Boris Wezisla          : Elementary symmetry handling
   Frank Wennmohs         : Technical directorship


 We gratefully acknowledge several colleagues who have allowed us to
 interface, adapt or use parts of their codes:
   Stefan Grimme, W. Hujo, H. Kruse, P. Pracht,  : VdW corrections, initial TS optimization,
                  C. Bannwarth, S. Ehlert          DFT functionals, gCP, sTDA/sTD-DF
   Ed Valeev, F. Pavosevic, A. Kumar             : LibInt (2-el integral package), F12 methods
   Garnet Chan, S. Sharma, J. Yang, R. Olivares  : DMRG
   Ulf Ekstrom                                   : XCFun DFT Library
   Mihaly Kallay                                 : mrcc  (arbitrary order and MRCC methods)
   Jiri Pittner, Ondrej Demel                    : Mk-CCSD
   Frank Weinhold                                : gennbo (NPA and NBO analysis)
   Christopher J. Cramer and Donald G. Truhlar   : smd solvation model
   Lars Goerigk                                  : TD-DFT with DH, B97 family of functionals
   V. Asgeirsson, H. Jonsson                     : NEB implementation
   FAccTs GmbH                                   : IRC, NEB, NEB-TS, DLPNO-Multilevel, CI-OPT
                                                   MM, QMMM, 2- and 3-layer-ONIOM, Crystal-QMMM,
                                                   LR-CPCM, SF, NACMEs, symmetry and pop. for TD-DFT,
                                                   nearIR, NL-DFT gradient (VV10), updates on ESD,
                                                   ML-optimized integration grids
   S Lehtola, MJT Oliveira, MAL Marques          : LibXC Library
   Liviu Ungur et al                             : ANISO software


 Your calculation uses the libint2 library for the computation of 2-el integrals
 For citations please refer to: http://libint.valeyev.net

 Your ORCA version has been built with support for libXC version: 5.1.0
 For citations please refer to: https://tddft.org/programs/libxc/

 This ORCA versions uses:
   CBLAS   interface :  Fast vector & matrix operations
   LAPACKE interface :  Fast linear algebra routines
   SCALAPACK package :  Parallel linear algebra routines
   Shared memory     :  Shared parallel matrices
   BLAS/LAPACK       :  OpenBLAS 0.3.15  USE64BITINT DYNAMIC_ARCH NO_AFFINITY Haswell SINGLE_THREADED
        Core in use  :  Haswell
   Copyright (c) 2011-2014, The OpenBLAS Project


XCFun DFT library Copyright 2009-2010 Ulf Ekstrom and contributors.
See http://admol.org/xcfun for more information.
This is free software; see the source code for copying conditions.
There is ABSOLUTELY NO WARRANTY; not even for MERCHANTABILITY or FITNESS FOR A PARTICULAR PURPOSE.
For details see the documentation.
Scientific users of this library should cite U. Ekstrom, L. Visscher, R. Bast, A. J. Thorvaldsen and K. Ruud;
J.Chem.Theor.Comp. 2010, DOI: 10.1021/ct100117s
XCFun Version 0.99 

================================================================================

----- Orbital basis set information -----
Your calculation utilizes the basis: def2-SVP
   F. Weigend and R. Ahlrichs, Phys. Chem. Chem. Phys. 7, 3297 (2005).

----- AuxJ basis set information -----
Your calculation utilizes the auxiliary basis: def2/J
   F. Weigend, Phys. Chem. Chem. Phys. 8, 1057 (2006).

================================================================================
                                        WARNINGS
                       Please study these warnings very carefully!
================================================================================


INFO   : the flag for use of the SHARK integral package has been found!

================================================================================
                                       INPUT FILE
================================================================================
NAME = SVP_CAMB3LYP_C2_dlpno_new_neg.com
|  1> !CAM-B3LYP RIJCOSX def2-SVP def2/J TightSCF 
|  2> *xyz 0 1 
|  3> C          4.08422        1.74208       -2.11472
|  4> C          4.26524        2.50052       -0.79589
|  5> H          4.86853        3.39267       -0.98113
|  6> H          3.30764        2.82457       -0.38781
|  7> C          4.98224        1.65026        0.24742
|  8> O          4.36806        1.38927        1.31371
|  9> F          6.12892        1.23351       -0.04562
| 10> H          3.57911        2.36849       -2.81997
| 11> H          3.50424        0.85965       -1.94198
| 12> H          5.04288        1.46841       -2.50327
| 13> *
| 14> %MaxCore 64000
| 15> %pal nprocs 8
| 16> end  
| 17> %scf
| 18>   MaxIter 150
| 19> end
| 20> 
| 21> 
| 22>                          ****END OF INPUT****
================================================================================

                       ****************************
                       * Single Point Calculation *
                       ****************************

---------------------------------
CARTESIAN COORDINATES (ANGSTROEM)
---------------------------------
  C      4.084220    1.742080   -2.114720
  C      4.265240    2.500520   -0.795890
  H      4.868530    3.392670   -0.981130
  H      3.307640    2.824570   -0.387810
  C      4.982240    1.650260    0.247420
  O      4.368060    1.389270    1.313710
  F      6.128920    1.233510   -0.045620
  H      3.579110    2.368490   -2.819970
  H      3.504240    0.859650   -1.941980
  H      5.042880    1.468410   -2.503270

----------------------------
CARTESIAN COORDINATES (A.U.)
----------------------------
  NO LB      ZA    FRAG     MASS         X           Y           Z
   0 C     6.0000    0    12.011    7.718057    3.292054   -3.996242
   1 C     6.0000    0    12.011    8.060135    4.725298   -1.504014
   2 H     1.0000    0     1.008    9.200188    6.411217   -1.854067
   3 H     1.0000    0     1.008    6.250534    5.337664   -0.732855
   4 C     6.0000    0    12.011    9.415069    3.118539    0.467556
   5 O     8.0000    0    15.999    8.254437    2.625340    2.482552
   6 F     9.0000    0    18.998   11.581980    2.330996   -0.086209
   7 H     1.0000    0     1.008    6.763538    4.475797   -5.328971
   8 H     1.0000    0     1.008    6.622054    1.624503   -3.669810
   9 H     1.0000    0     1.008    9.529662    2.774893   -4.730495

--------------------------------
INTERNAL COORDINATES (ANGSTROEM)
--------------------------------
 C      0   0   0     0.000000000000     0.00000000     0.00000000
 C      1   0   0     1.532094005895     0.00000000     0.00000000
 H      2   1   0     1.092796552063   108.87198648     0.00000000
 H      2   1   3     1.090199728903   111.44297969   118.77367229
 C      2   1   3     1.524967810709   111.62069719   240.67919178
 O      5   2   1     1.257897935685   117.77857234   241.09553575
 F      5   2   1     1.254762139411   117.07011776    59.09626179
 H      1   2   3     1.070001477896   109.47114102   299.32086871
 H      1   2   3     1.069999351822   109.47110807   179.32095167
 H      1   2   3     1.069997835045   109.47163885    59.32110217

---------------------------
INTERNAL COORDINATES (A.U.)
---------------------------
 C      0   0   0     0.000000000000     0.00000000     0.00000000
 C      1   0   0     2.895238082564     0.00000000     0.00000000
 H      2   1   0     2.065086203492   108.87198648     0.00000000
 H      2   1   3     2.060178918902   111.44297969   118.77367229
 C      2   1   3     2.881771525286   111.62069719   240.67919178
 O      5   2   1     2.377082602869   117.77857234   241.09553575
 F      5   2   1     2.371156806700   117.07011776    59.09626179
 H      1   2   3     2.022009756115   109.47114102   299.32086871
 H      1   2   3     2.022005738417   109.47110807   179.32095167
 H      1   2   3     2.022002872123   109.47163885    59.32110217

---------------------
BASIS SET INFORMATION
---------------------
There are 4 groups of distinct atoms

 Group   1 Type C   : 7s4p1d contracted to 3s2p1d pattern {511/31/1}
 Group   2 Type H   : 4s1p contracted to 2s1p pattern {31/1}
 Group   3 Type O   : 7s4p1d contracted to 3s2p1d pattern {511/31/1}
 Group   4 Type F   : 7s4p1d contracted to 3s2p1d pattern {511/31/1}

Atom   0C    basis set group =>   1
Atom   1C    basis set group =>   1
Atom   2H    basis set group =>   2
Atom   3H    basis set group =>   2
Atom   4C    basis set group =>   1
Atom   5O    basis set group =>   3
Atom   6F    basis set group =>   4
Atom   7H    basis set group =>   2
Atom   8H    basis set group =>   2
Atom   9H    basis set group =>   2
---------------------------------
AUXILIARY/J BASIS SET INFORMATION
---------------------------------
There are 4 groups of distinct atoms

 Group   1 Type C   : 12s5p4d2f1g contracted to 6s4p3d1f1g pattern {711111/2111/211/2/1}
 Group   2 Type H   : 5s2p1d contracted to 3s1p1d pattern {311/2/1}
 Group   3 Type O   : 12s5p4d2f1g contracted to 6s4p3d1f1g pattern {711111/2111/211/2/1}
 Group   4 Type F   : 12s5p4d2f1g contracted to 6s4p3d1f1g pattern {711111/2111/211/2/1}

Atom   0C    basis set group =>   1
Atom   1C    basis set group =>   1
Atom   2H    basis set group =>   2
Atom   3H    basis set group =>   2
Atom   4C    basis set group =>   1
Atom   5O    basis set group =>   3
Atom   6F    basis set group =>   4
Atom   7H    basis set group =>   2
Atom   8H    basis set group =>   2
Atom   9H    basis set group =>   2


           ************************************************************
           *        Program running with 8 parallel MPI-processes     *
           *              working on a common directory               *
           ************************************************************
------------------------------------------------------------------------------
                           ORCA GTO INTEGRAL CALCULATION
                           -- RI-GTO INTEGRALS CHOSEN --
------------------------------------------------------------------------------
------------------------------------------------------------------------------
                   ___                                                        
                  /   \      - P O W E R E D   B Y -                         
                 /     \                                                     
                 |  |  |   _    _      __       _____    __    __             
                 |  |  |  | |  | |    /  \     |  _  \  |  |  /  |          
                  \  \/   | |  | |   /    \    | | | |  |  | /  /          
                 / \  \   | |__| |  /  /\  \   | |_| |  |  |/  /          
                |  |  |   |  __  | /  /__\  \  |    /   |      \           
                |  |  |   | |  | | |   __   |  |    \   |  |\   \          
                \     /   | |  | | |  |  |  |  | |\  \  |  | \   \       
                 \___/    |_|  |_| |__|  |__|  |_| \__\ |__|  \__/        
                                                                              
                      - O R C A' S   B I G   F R I E N D -                    
                                      &                                       
                       - I N T E G R A L  F E E D E R -                       
                                                                              
 v1 FN, 2020, v2 2021                                                         
------------------------------------------------------------------------------


Reading SHARK input file SVP_CAMB3LYP_C2_dlpno_new_neg.SHARKINP.tmp ... ok
----------------------
SHARK INTEGRAL PACKAGE
----------------------

Number of atoms                             ...     10
Number of basis functions                   ...     95
Number of shells                            ...     45
Maximum angular momentum                    ...      2
Integral batch strategy                     ... SHARK/LIBINT Hybrid
RI-J (if used) integral strategy            ... SPLIT-RIJ (Revised 2003 algorithm where possible)
Printlevel                                  ...      1
Contraction scheme used                     ... SEGMENTED contraction
Coulomb Range Separation                    ... NOT USED
Exchange Range Separation                   ... Long Range
   Mu parameter                             ...  0.330000
   Scaling (regular/separated)              ...  0.190000  0.460000
Finite Nucleus Model                        ... NOT USED
Auxiliary Coulomb fitting basis             ... AVAILABLE
   # of basis functions in Aux-J            ...    300
   # of shells in Aux-J                     ...    100
   Maximum angular momentum in Aux-J        ...      4
Auxiliary J/K fitting basis                 ... NOT available
Auxiliary Correlation fitting basis         ... NOT available
Auxiliary 'external' fitting basis          ... NOT available
Integral threshold                          ...     2.500000e-11
Primitive cut-off                           ...     2.500000e-12
Primitive pair pre-selection threshold      ...     2.500000e-12

Calculating pre-screening integrals         ... done (  0.1 sec) Dimension = 45
Organizing shell pair data                  ... done (  0.0 sec)
Shell pair information
Total number of shell pairs                 ...      1035
Shell pairs after pre-screening             ...      1017
Total number of primitive shell pairs       ...      3735
Primitive shell pairs kept                  ...      2916
          la=0 lb=0:    317 shell pairs
          la=1 lb=0:    368 shell pairs
          la=1 lb=1:    120 shell pairs
          la=2 lb=0:    122 shell pairs
          la=2 lb=1:     75 shell pairs
          la=2 lb=2:     15 shell pairs

Calculating one electron integrals          ... done (  0.0 sec)
Calculating RI/J V-Matrix + Cholesky decomp.... done (  0.0 sec)
Calculating Nuclear repulsion               ... done (  0.0 sec) ENN=    176.995579197389 Eh

SHARK setup successfully completed in   0.1 seconds

Maximum memory used throughout the entire GTOINT-calculation: 8.8 MB


           ************************************************************
           *        Program running with 8 parallel MPI-processes     *
           *              working on a common directory               *
           ************************************************************
-------------------------------------------------------------------------------
                                 ORCA SCF
-------------------------------------------------------------------------------

------------
SCF SETTINGS
------------
Hamiltonian:
 Density Functional     Method          .... DFT(GTOs)
 Exchange Functional    Exchange        .... WB88
 Correlation Functional Correlation     .... LYP
 LDA part of GGA corr.  LDAOpt          .... VWN-5
 Gradients option       PostSCFGGA      .... off
 Hybrid DFT is turned on
   Fraction HF Exchange ScalHFX         ....  0.190000
   Scaling of DF-GGA-X  ScalDFX         ....  0.350000
   Scaling of DF-GGA-C  ScalDFC         ....  0.810000
   Scaling of DF-LDA-C  ScalLDAC        ....  1.000000
   Perturbative correction              ....  0.000000
   Density functional embedding theory  .... OFF
 Long-range corrected/Screened/Range-Separated Hybrid DFT is turned on
   Amount of maximum screened exact exchange              ....  0.460000
   Range separation parameter mu (erf(mu*r12)/r12)        ....  0.330000
 RI-approximation to the Coulomb term is turned on
   Number of AuxJ basis functions       .... 300
   RIJ-COSX (HFX calculated with COS-X)).... on


General Settings:
 Integral files         IntName         .... SVP_CAMB3LYP_C2_dlpno_new_neg
 Hartree-Fock type      HFTyp           .... RHF
 Total Charge           Charge          ....    0
 Multiplicity           Mult            ....    1
 Number of Electrons    NEL             ....   40
 Basis Dimension        Dim             ....   95
 Nuclear Repulsion      ENuc            ....    176.9955791974 Eh

Convergence Acceleration:
 DIIS                   CNVDIIS         .... on
   Start iteration      DIISMaxIt       ....    12
   Startup error        DIISStart       ....  0.200000
   # of expansion vecs  DIISMaxEq       ....     5
   Bias factor          DIISBfac        ....   1.050
   Max. coefficient     DIISMaxC        ....  10.000
 Trust-Rad. Augm. Hess. CNVTRAH         .... auto
   Auto Start mean grad. ratio tolernc. ....  1.125000
   Auto Start start iteration           ....    20
   Auto Start num. interpolation iter.  ....    10
   Max. Number of Micro iterations      ....    16
   Max. Number of Macro iterations      .... Maxiter - #DIIS iter
   Number of Davidson start vectors     ....     2
   Converg. threshold I  (grad. norm)   ....   1.000e-05
   Converg. threshold II (energy diff.) ....   1.000e-08
   Grad. Scal. Fac. for Micro threshold ....   0.100
   Minimum threshold for Micro iter.    ....   0.010
   NR start threshold (gradient norm)   ....   0.001
   Initial trust radius                 ....   0.400
   Minimum AH scaling param. (alpha)    ....   1.000
   Maximum AH scaling param. (alpha)    .... 1000.000
   Orbital update algorithm             .... Taylor
   White noise on init. David. guess    .... on
   Maximum white noise                  ....   0.010
   Quad. conv. algorithm                .... NR
 SOSCF                  CNVSOSCF        .... on
   Start iteration      SOSCFMaxIt      ....   150
   Startup grad/error   SOSCFStart      ....  0.003300
 Level Shifting         CNVShift        .... on
   Level shift para.    LevelShift      ....    0.2500
   Turn off err/grad.   ShiftErr        ....    0.0010
 Zerner damping         CNVZerner       .... off
 Static damping         CNVDamp         .... on
   Fraction old density DampFac         ....    0.7000
   Max. Damping (<1)    DampMax         ....    0.9800
   Min. Damping (>=0)   DampMin         ....    0.0000
   Turn off err/grad.   DampErr         ....    0.1000
 Fernandez-Rico         CNVRico         .... off

SCF Procedure:
 Maximum # iterations   MaxIter         ....   150
 SCF integral mode      SCFMode         .... Direct
   Integral package                     .... SHARK and LIBINT hybrid scheme
 Reset frequency        DirectResetFreq ....    20
 Integral Threshold     Thresh          ....  2.500e-11 Eh
 Primitive CutOff       TCut            ....  2.500e-12 Eh

Convergence Tolerance:
 Convergence Check Mode ConvCheckMode   .... Total+1el-Energy
 Convergence forced     ConvForced      .... 0
 Energy Change          TolE            ....  1.000e-08 Eh
 1-El. energy change                    ....  1.000e-05 Eh
 Orbital Gradient       TolG            ....  1.000e-05
 Orbital Rotation angle TolX            ....  1.000e-05
 DIIS Error             TolErr          ....  5.000e-07


Diagonalization of the overlap matrix:
Smallest eigenvalue                        ... 2.904e-03
Time for diagonalization                   ...    0.002 sec
Threshold for overlap eigenvalues          ... 1.000e-08
Number of eigenvalues below threshold      ... 0
Time for construction of square roots      ...    0.003 sec
Total time needed                          ...    0.005 sec

Time for model grid setup =    0.058 sec

------------------------------
INITIAL GUESS: MODEL POTENTIAL
------------------------------
Loading Hartree-Fock densities                     ... done
Calculating cut-offs                               ... done
Initializing the effective Hamiltonian             ... done
Setting up the integral package (SHARK)            ... done
Starting the Coulomb interaction                   ... done (   0.0 sec)
Reading the grid                                   ... done
Mapping shells                                     ... done
Starting the XC term evaluation                    ... done (   0.0 sec)
  promolecular density results
     # of electrons  =     39.996654899
     EX              =    -34.958574127
     EC              =     -1.330032372
     EX+EC           =    -36.288606498
Transforming the Hamiltonian                       ... done (   0.0 sec)
Diagonalizing the Hamiltonian                      ... done (   0.0 sec)
Back transforming the eigenvectors                 ... done (   0.0 sec)
Now organizing SCF variables                       ... done
                      ------------------
                      INITIAL GUESS DONE (   0.1 sec)
                      ------------------
-------------------
DFT GRID GENERATION
-------------------

General Integration Accuracy     IntAcc      ... 4.388
Radial Grid Type                 RadialGrid  ... OptM3 with GC (2021)
Angular Grid (max. ang.)         AngularGrid ... 4 (Lebedev-302)
Angular grid pruning method      GridPruning ... 4 (adaptive)
Weight generation scheme         WeightScheme... Becke
Basis function cutoff            BFCut       ... 1.0000e-11
Integration weight cutoff        WCut        ... 1.0000e-14
Angular grids for H and He will be reduced by one unit
Partially contracted basis set               ... off
Rotationally invariant grid construction     ... off

Total number of grid points                  ...    46586
Total number of batches                      ...      733
Average number of points per batch           ...       63
Average number of grid points per atom       ...     4659
Time for grid setup =    0.329 sec

--------------------
COSX GRID GENERATION
--------------------

GRIDX 1
-------
General Integration Accuracy     IntAcc      ... 3.816
Radial Grid Type                 RadialGrid  ... OptM3 with GC (2021)
Angular Grid (max. ang.)         AngularGrid ... 1 (Lebedev-50)
Angular grid pruning method      GridPruning ... 4 (adaptive)
Weight generation scheme         WeightScheme... Becke
Basis function cutoff            BFCut       ... 1.0000e-11
Integration weight cutoff        WCut        ... 1.0000e-14
Angular grids for H and He will be reduced by one unit
Partially contracted basis set               ... on
Rotationally invariant grid construction     ... off

Total number of grid points                  ...     5962
Total number of batches                      ...       98
Average number of points per batch           ...       60
Average number of grid points per atom       ...      596
UseSFitting                                  ... on

GRIDX 2
-------
General Integration Accuracy     IntAcc      ... 4.020
Radial Grid Type                 RadialGrid  ... OptM3 with GC (2021)
Angular Grid (max. ang.)         AngularGrid ... 2 (Lebedev-110)
Angular grid pruning method      GridPruning ... 4 (adaptive)
Weight generation scheme         WeightScheme... Becke
Basis function cutoff            BFCut       ... 1.0000e-11
Integration weight cutoff        WCut        ... 1.0000e-14
Angular grids for H and He will be reduced by one unit
Partially contracted basis set               ... on
Rotationally invariant grid construction     ... off

Total number of grid points                  ...    13095
Total number of batches                      ...      209
Average number of points per batch           ...       62
Average number of grid points per atom       ...     1310
UseSFitting                                  ... on

GRIDX 3
-------
General Integration Accuracy     IntAcc      ... 4.338
Radial Grid Type                 RadialGrid  ... OptM3 with GC (2021)
Angular Grid (max. ang.)         AngularGrid ... 3 (Lebedev-194)
Angular grid pruning method      GridPruning ... 4 (adaptive)
Weight generation scheme         WeightScheme... Becke
Basis function cutoff            BFCut       ... 1.0000e-11
Integration weight cutoff        WCut        ... 1.0000e-14
Angular grids for H and He will be reduced by one unit
Partially contracted basis set               ... on
Rotationally invariant grid construction     ... off

Total number of grid points                  ...    28855
Total number of batches                      ...      457
Average number of points per batch           ...       63
Average number of grid points per atom       ...     2886
UseSFitting                                  ... on

Time for X-Grid setup             =    0.244 sec

--------------
SCF ITERATIONS
--------------
ITER       Energy         Delta-E        Max-DP      RMS-DP      [F,P]     Damp
               ***  Starting incremental Fock matrix formation  ***
  0   -291.8700652053   0.000000000000 0.09020632  0.00347479  0.2597295 0.7000
  1   -291.9556985140  -0.085633308674 0.05108462  0.00215080  0.1005833 0.7000
                               ***Turning on DIIS***
  2   -291.9880825164  -0.032384002449 0.07175138  0.00323873  0.0437643 0.0000
  3   -292.0447544434  -0.056671927005 0.03777224  0.00161437  0.0571595 0.0000
  4   -292.0541007122  -0.009346268776 0.01022584  0.00040130  0.0129579 0.0000
  5   -292.0547111969  -0.000610484669 0.00237450  0.00010910  0.0037540 0.0000
                      *** Initiating the SOSCF procedure ***
                           *** Shutting down DIIS ***
                      *** Re-Reading the Fockian *** 
                      *** Removing any level shift *** 
ITER      Energy       Delta-E        Grad      Rot      Max-DP    RMS-DP
  6   -292.05474111  -0.0000299146  0.000660  0.000660  0.001294  0.000066
               *** Restarting incremental Fock matrix formation ***
  7   -292.05473810   0.0000030077  0.000232  0.000356  0.000721  0.000033
  8   -292.05473795   0.0000001532  0.000427  0.000441  0.000457  0.000014
  9   -292.05473906  -0.0000011116  0.000044  0.000067  0.000239  0.000005
 10   -292.05473906   0.0000000003  0.000049  0.000045  0.000095  0.000003
 11   -292.05473910  -0.0000000368  0.000006  0.000006  0.000015  0.000001
 12   -292.05473910  -0.0000000010  0.000004  0.000002  0.000009  0.000000
                  ***Gradient check signals convergence***
              ***Rediagonalizing the Fockian in SOSCF/NRSCF***

               *****************************************************
               *                     SUCCESS                       *
               *           SCF CONVERGED AFTER  13 CYCLES          *
               *****************************************************

Old exchange energy                            =     -9.923663179 Eh
New exchange energy                            =     -9.923643433 Eh
Exchange energy change after final integration =      0.000019746 Eh
Total energy after final integration           =   -292.054719353 Eh
Final COS-X integration done in                =     1.107 sec

----------------
TOTAL SCF ENERGY
----------------

Total Energy       :         -292.05471935 Eh           -7947.21294 eV

Components:
Nuclear Repulsion  :          176.99557920 Eh            4816.29457 eV
Electronic Energy  :         -469.05029855 Eh          -12763.50751 eV
One Electron Energy:         -749.98906481 Eh          -20408.23999 eV
Two Electron Energy:          280.93876626 Eh            7644.73248 eV
Max COSX asymmetry :            0.00000215 Eh               0.00006 eV

Virial components:
Potential Energy   :         -581.74528047 Eh          -15830.09387 eV
Kinetic Energy     :          289.69056112 Eh            7882.88093 eV
Virial Ratio       :            2.00816098


DFT components:
N(Alpha)           :       20.000002192641 electrons
N(Beta)            :       20.000002192641 electrons
N(Total)           :       40.000004385281 electrons
E(XC)              :      -27.132389554445 Eh       
DFET-embed. en.    :        0.000000000000 Eh       

---------------
SCF CONVERGENCE
---------------

  Last Energy change         ...    2.2334e-10  Tolerance :   1.0000e-08
  Last MAX-Density change    ...    4.4409e-15  Tolerance :   1.0000e-07
  Last RMS-Density change    ...    7.5262e-17  Tolerance :   5.0000e-09
  Last Orbital Gradient      ...    1.8535e-07  Tolerance :   1.0000e-05
  Last Orbital Rotation      ...    3.3677e-07  Tolerance :   1.0000e-05

             **** THE GBW FILE WAS UPDATED (SVP_CAMB3LYP_C2_dlpno_new_neg.gbw) ****
             **** DENSITY SVP_CAMB3LYP_C2_dlpno_new_neg.scfp WAS UPDATED ****
             **** ENERGY FILE WAS UPDATED (SVP_CAMB3LYP_C2_dlpno_new_neg.en.tmp) ****
             **** THE GBW FILE WAS UPDATED (SVP_CAMB3LYP_C2_dlpno_new_neg.gbw) ****
             **** DENSITY SVP_CAMB3LYP_C2_dlpno_new_neg.scfp WAS UPDATED ****
----------------
ORBITAL ENERGIES
----------------

  NO   OCC          E(Eh)            E(eV) 
   0   2.0000     -24.828707      -675.6235 
   1   2.0000     -19.207060      -522.6507 
   2   2.0000     -10.431273      -283.8494 
   3   2.0000     -10.285955      -279.8951 
   4   2.0000     -10.268336      -279.4156 
   5   2.0000      -1.378166       -37.5018 
   6   2.0000      -1.093369       -29.7521 
   7   2.0000      -0.878715       -23.9111 
   8   2.0000      -0.754978       -20.5440 
   9   2.0000      -0.711081       -19.3495 
  10   2.0000      -0.620427       -16.8827 
  11   2.0000      -0.607797       -16.5390 
  12   2.0000      -0.565333       -15.3835 
  13   2.0000      -0.532202       -14.4819 
  14   2.0000      -0.500443       -13.6177 
  15   2.0000      -0.466860       -12.7039 
  16   2.0000      -0.446937       -12.1618 
  17   2.0000      -0.440796       -11.9947 
  18   2.0000      -0.408250       -11.1091 
  19   2.0000      -0.348202        -9.4750 
  20   0.0000       0.033843         0.9209 
  21   0.0000       0.099541         2.7087 
  22   0.0000       0.144183         3.9234 
  23   0.0000       0.153643         4.1808 
  24   0.0000       0.174515         4.7488 
  25   0.0000       0.188253         5.1226 
  26   0.0000       0.215748         5.8708 
  27   0.0000       0.264605         7.2003 
  28   0.0000       0.305341         8.3088 
  29   0.0000       0.365823         9.9545 
  30   0.0000       0.456966        12.4347 
  31   0.0000       0.470351        12.7989 
  32   0.0000       0.494982        13.4692 
  33   0.0000       0.518542        14.1103 
  34   0.0000       0.579997        15.7825 
  35   0.0000       0.606545        16.5049 
  36   0.0000       0.642407        17.4808 
  37   0.0000       0.675235        18.3741 
  38   0.0000       0.691586        18.8190 
  39   0.0000       0.711743        19.3675 
  40   0.0000       0.723267        19.6811 
  41   0.0000       0.729410        19.8482 
  42   0.0000       0.739372        20.1193 
  43   0.0000       0.748994        20.3812 
  44   0.0000       0.766412        20.8551 
  45   0.0000       0.907970        24.7071 
  46   0.0000       0.960032        26.1238 
  47   0.0000       0.985583        26.8191 
  48   0.0000       1.087338        29.5880 
  49   0.0000       1.126870        30.6637 
  50   0.0000       1.185348        32.2550 
  51   0.0000       1.216263        33.0962 
  52   0.0000       1.315391        35.7936 
  53   0.0000       1.324055        36.0294 
  54   0.0000       1.383971        37.6598 
  55   0.0000       1.417693        38.5774 
  56   0.0000       1.495171        40.6857 
  57   0.0000       1.573266        42.8108 
  58   0.0000       1.611506        43.8513 
  59   0.0000       1.658681        45.1350 
  60   0.0000       1.743491        47.4428 
  61   0.0000       1.775345        48.3096 
  62   0.0000       1.799690        48.9721 
  63   0.0000       1.845828        50.2275 
  64   0.0000       1.866235        50.7828 
  65   0.0000       1.887187        51.3530 
  66   0.0000       1.912020        52.0287 
  67   0.0000       1.920762        52.2666 
  68   0.0000       1.939621        52.7798 
  69   0.0000       2.001822        54.4723 
  70   0.0000       2.061128        56.0861 
  71   0.0000       2.096044        57.0362 
  72   0.0000       2.173319        59.1390 
  73   0.0000       2.262478        61.5652 
  74   0.0000       2.362143        64.2772 
  75   0.0000       2.411361        65.6165 
  76   0.0000       2.460384        66.9505 
  77   0.0000       2.554598        69.5141 
  78   0.0000       2.615718        71.1773 
  79   0.0000       2.667321        72.5815 
  80   0.0000       2.737372        74.4877 
  81   0.0000       2.770844        75.3985 
  82   0.0000       2.871373        78.1340 
  83   0.0000       2.941343        80.0380 
  84   0.0000       2.986584        81.2691 
  85   0.0000       3.012769        81.9816 
  86   0.0000       3.061186        83.2991 
  87   0.0000       3.070504        83.5527 
  88   0.0000       3.101197        84.3879 
  89   0.0000       3.184662        86.6590 
  90   0.0000       3.268405        88.9378 
  91   0.0000       3.481082        94.7251 
  92   0.0000       3.507372        95.4405 
  93   0.0000       3.763562       102.4117 
  94   0.0000       3.993855       108.6783 

                    ********************************
                    * MULLIKEN POPULATION ANALYSIS *
                    ********************************

-----------------------
MULLIKEN ATOMIC CHARGES
-----------------------
   0 C :   -0.007694
   1 C :   -0.037993
   2 H :    0.035753
   3 H :    0.044190
   4 C :    0.200748
   5 O :   -0.243920
   6 F :   -0.071341
   7 H :    0.026345
   8 H :    0.029427
   9 H :    0.024485
Sum of atomic charges:   -0.0000000

--------------------------------
MULLIKEN REDUCED ORBITAL CHARGES
--------------------------------
  0 C s       :     2.974924  s :     2.974924
      pz      :     0.969678  p :     3.002291
      px      :     1.026041
      py      :     1.006573
      dz2     :     0.005805  d :     0.030479
      dxz     :     0.005996
      dyz     :     0.007189
      dx2y2   :     0.004210
      dxy     :     0.007279
  1 C s       :     3.021575  s :     3.021575
      pz      :     0.971324  p :     2.982160
      px      :     1.007371
      py      :     1.003466
      dz2     :     0.006414  d :     0.034258
      dxz     :     0.007912
      dyz     :     0.007874
      dx2y2   :     0.003753
      dxy     :     0.008306
  2 H s       :     0.941193  s :     0.941193
      pz      :     0.004729  p :     0.023055
      px      :     0.007346
      py      :     0.010980
  3 H s       :     0.934087  s :     0.934087
      pz      :     0.005017  p :     0.021724
      px      :     0.012148
      py      :     0.004559
  4 C s       :     3.091088  s :     3.091088
      pz      :     0.924164  p :     2.560829
      px      :     0.787616
      py      :     0.849049
      dz2     :     0.031821  d :     0.147334
      dxz     :     0.039568
      dyz     :     0.022167
      dx2y2   :     0.028393
      dxy     :     0.025385
  5 O s       :     3.763885  s :     3.763885
      pz      :     1.378360  p :     4.463457
      px      :     1.593948
      py      :     1.491149
      dz2     :     0.005300  d :     0.016578
      dxz     :     0.005104
      dyz     :     0.003518
      dx2y2   :     0.001075
      dxy     :     0.001580
  6 F s       :     3.851068  s :     3.851068
      pz      :     1.865724  p :     5.209847
      px      :     1.533509
      py      :     1.810613
      dz2     :     0.001331  d :     0.010426
      dxz     :     0.002350
      dyz     :     0.000510
      dx2y2   :     0.003241
      dxy     :     0.002994
  7 H s       :     0.949510  s :     0.949510
      pz      :     0.008790  p :     0.024145
      px      :     0.007310
      py      :     0.008045
  8 H s       :     0.946470  s :     0.946470
      pz      :     0.004511  p :     0.024103
      px      :     0.008059
      py      :     0.011533
  9 H s       :     0.951304  s :     0.951304
      pz      :     0.005823  p :     0.024210
      px      :     0.012787
      py      :     0.005601


                     *******************************
                     * LOEWDIN POPULATION ANALYSIS *
                     *******************************

----------------------
LOEWDIN ATOMIC CHARGES
----------------------
   0 C :   -0.044670
   1 C :   -0.064704
   2 H :    0.038640
   3 H :    0.042966
   4 C :    0.100019
   5 O :   -0.196724
   6 F :    0.042784
   7 H :    0.029720
   8 H :    0.027637
   9 H :    0.024332

-------------------------------
LOEWDIN REDUCED ORBITAL CHARGES
-------------------------------
  0 C s       :     2.813848  s :     2.813848
      pz      :     1.019011  p :     3.155735
      px      :     1.075016
      py      :     1.061707
      dz2     :     0.014861  d :     0.075088
      dxz     :     0.014086
      dyz     :     0.018563
      dx2y2   :     0.010081
      dxy     :     0.017497
  1 C s       :     2.844732  s :     2.844732
      pz      :     1.027751  p :     3.134666
      px      :     1.063244
      py      :     1.043672
      dz2     :     0.015946  d :     0.085306
      dxz     :     0.018555
      dyz     :     0.021246
      dx2y2   :     0.009349
      dxy     :     0.020211
  2 H s       :     0.893474  s :     0.893474
      pz      :     0.015095  p :     0.067886
      px      :     0.020693
      py      :     0.032098
  3 H s       :     0.890391  s :     0.890391
      pz      :     0.016055  p :     0.066643
      px      :     0.035857
      py      :     0.014732
  4 C s       :     2.871096  s :     2.871096
      pz      :     0.992805  p :     2.710266
      px      :     0.865990
      py      :     0.851471
      dz2     :     0.064937  d :     0.318619
      dxz     :     0.095242
      dyz     :     0.044363
      dx2y2   :     0.061305
      dxy     :     0.052771
  5 O s       :     3.585010  s :     3.585010
      pz      :     1.467744  p :     4.583972
      px      :     1.624330
      py      :     1.491898
      dz2     :     0.008949  d :     0.027742
      dxz     :     0.010019
      dyz     :     0.005036
      dx2y2   :     0.001646
      dxy     :     0.002092
  6 F s       :     3.679225  s :     3.679225
      pz      :     1.858902  p :     5.260376
      px      :     1.595662
      py      :     1.805812
      dz2     :     0.002489  d :     0.017615
      dxz     :     0.003816
      dyz     :     0.000729
      dx2y2   :     0.005481
      dxy     :     0.005099
  7 H s       :     0.901399  s :     0.901399
      pz      :     0.026095  p :     0.068881
      px      :     0.019792
      py      :     0.022995
  8 H s       :     0.903361  s :     0.903361
      pz      :     0.014365  p :     0.069002
      px      :     0.021967
      py      :     0.032669
  9 H s       :     0.906419  s :     0.906419
      pz      :     0.017781  p :     0.069249
      px      :     0.035785
      py      :     0.015682


                      *****************************
                      * MAYER POPULATION ANALYSIS *
                      *****************************

  NA   - Mulliken gross atomic population
  ZA   - Total nuclear charge
  QA   - Mulliken gross atomic charge
  VA   - Mayer's total valence
  BVA  - Mayer's bonded valence
  FA   - Mayer's free valence

  ATOM       NA         ZA         QA         VA         BVA        FA
  0 C      6.0077     6.0000    -0.0077     4.0215     4.0215    -0.0000
  1 C      6.0380     6.0000    -0.0380     3.9595     3.9595     0.0000
  2 H      0.9642     1.0000     0.0358     0.9804     0.9804     0.0000
  3 H      0.9558     1.0000     0.0442     1.0020     1.0020    -0.0000
  4 C      5.7993     6.0000     0.2007     4.3663     4.3663     0.0000
  5 O      8.2439     8.0000    -0.2439     2.2103     2.2103    -0.0000
  6 F      9.0713     9.0000    -0.0713     1.2813     1.2813     0.0000
  7 H      0.9737     1.0000     0.0263     0.9883     0.9883    -0.0000
  8 H      0.9706     1.0000     0.0294     0.9867     0.9867    -0.0000
  9 H      0.9755     1.0000     0.0245     0.9943     0.9943     0.0000

  Mayer bond orders larger than 0.100000
B(  0-C ,  1-C ) :   1.0755 B(  0-C ,  7-H ) :   0.9698 B(  0-C ,  8-H ) :   0.9774 
B(  0-C ,  9-H ) :   0.9739 B(  1-C ,  2-H ) :   0.9320 B(  1-C ,  3-H ) :   0.9504 
B(  1-C ,  4-C ) :   1.0064 B(  4-C ,  5-O ) :   2.1090 B(  4-C ,  6-F ) :   1.2015 


-------
TIMINGS
-------

Total SCF time: 0 days 0 hours 0 min 10 sec 

Total time                  ....      10.556 sec
Sum of individual times     ....       8.891 sec  ( 84.2%)

Fock matrix formation       ....       8.131 sec  ( 77.0%)
  Split-RI-J                ....       0.556 sec  (  6.8% of F)
  Chain of spheres X        ....       6.288 sec  ( 77.3% of F)
  XC integration            ....       1.254 sec  ( 15.4% of F)
    Basis function eval.    ....       0.328 sec  ( 26.2% of XC)
    Density eval.           ....       0.154 sec  ( 12.2% of XC)
    XC-Functional eval.     ....       0.283 sec  ( 22.6% of XC)
    XC-Potential eval.      ....       0.139 sec  ( 11.1% of XC)
Diagonalization             ....       0.031 sec  (  0.3%)
Density matrix formation    ....       0.004 sec  (  0.0%)
Population analysis         ....       0.004 sec  (  0.0%)
Initial guess               ....       0.044 sec  (  0.4%)
Orbital Transformation      ....       0.000 sec  (  0.0%)
Orbital Orthonormalization  ....       0.000 sec  (  0.0%)
DIIS solution               ....       0.024 sec  (  0.2%)
SOSCF solution              ....       0.022 sec  (  0.2%)
Grid generation             ....       0.631 sec  (  6.0%)

Maximum memory used throughout the entire SCF-calculation: 46.7 MB

-------------------------   --------------------
FINAL SINGLE POINT ENERGY      -292.054719353161
-------------------------   --------------------


                            ***************************************
                            *     ORCA property calculations      *
                            ***************************************

                                    ---------------------
                                    Active property flags
                                    ---------------------
   (+) Dipole Moment


------------------------------------------------------------------------------
                       ORCA ELECTRIC PROPERTIES CALCULATION
------------------------------------------------------------------------------

Dipole Moment Calculation                       ... on
Quadrupole Moment Calculation                   ... off
Polarizability Calculation                      ... off
GBWName                                         ... SVP_CAMB3LYP_C2_dlpno_new_neg.gbw
Electron density file                           ... SVP_CAMB3LYP_C2_dlpno_new_neg.scfp
The origin for moment calculation is the CENTER OF MASS  = ( 9.114847,  3.165891 -0.510240)

-------------
DIPOLE MOMENT
-------------
                                X             Y             Z
Electronic contribution:      4.86096      -2.32861       5.92511
Nuclear contribution   :     -4.79499       2.78546      -7.01827
                        -----------------------------------------
Total Dipole Moment    :      0.06597       0.45686      -1.09316
                        -----------------------------------------
Magnitude (a.u.)       :      1.18662
Magnitude (Debye)      :      3.01615



--------------------
Rotational spectrum 
--------------------
 
Rotational constants in cm-1:     0.286098     0.133492     0.103343 
Rotational constants in MHz :  8577.003657  4001.981591  3098.148068 

 Dipole components along the rotational axes: 
x,y,z [a.u.] :    -1.075089    -0.373114    -0.336211 
x,y,z [Debye]:    -2.732658    -0.948379    -0.854579 

 

Timings for individual modules:

Sum of individual times         ...       14.986 sec (=   0.250 min)
GTO integral calculation        ...        2.434 sec (=   0.041 min)  16.2 %
SCF iterations                  ...       12.552 sec (=   0.209 min)  83.8 %
                             ****ORCA TERMINATED NORMALLY****
TOTAL RUN TIME: 0 days 0 hours 0 minutes 15 seconds 461 msec
