
                                        *****************
                                        * O   R   C   A *
                                        *****************

                                            #,                                       
                                            ###                                      
                                            ####                                     
                                            #####                                    
                                            ######                                   
                                           ########,                                 
                                     ,,################,,,,,                         
                               ,,#################################,,                 
                          ,,##########################################,,             
                       ,#########################################, ''#####,          
                    ,#############################################,,   '####,        
                  ,##################################################,,,,####,       
                ,###########''''           ''''###############################       
              ,#####''   ,,,,##########,,,,          '''####'''          '####       
            ,##' ,,,,###########################,,,                        '##       
           ' ,,###''''                  '''############,,,                           
         ,,##''                                '''############,,,,        ,,,,,,###''
      ,#''                                            '''#######################'''  
     '                                                          ''''####''''         
             ,#######,   #######,   ,#######,      ##                                
            ,#'     '#,  ##    ##  ,#'     '#,    #''#        ######   ,####,        
            ##       ##  ##   ,#'  ##            #'  '#       #        #'  '#        
            ##       ##  #######   ##           ,######,      #####,   #    #        
            '#,     ,#'  ##    ##  '#,     ,#' ,#      #,         ##   #,  ,#        
             '#######'   ##     ##  '#######'  #'      '#     #####' # '####'        



                  #######################################################
                  #                        -***-                        #
                  #          Department of theory and spectroscopy      #
                  #    Directorship and core code : Frank Neese         #
                  #        Max Planck Institute fuer Kohlenforschung    #
                  #                Kaiser Wilhelm Platz 1               #
                  #                 D-45470 Muelheim/Ruhr               #
                  #                      Germany                        #
                  #                                                     #
                  #                  All rights reserved                #
                  #                        -***-                        #
                  #######################################################


                         Program Version 5.0.0 -  RELEASE  -
                                (SVN: $Rev: 19529$)
                ($Date: 2021-06-28 11:36:33 +0200 (Mo, 28 Jun 2021) $)


 With contributions from (in alphabetic order):
   Daniel Aravena         : Magnetic Suceptibility
   Michael Atanasov       : Ab Initio Ligand Field Theory (pilot matlab implementation)
   Alexander A. Auer      : GIAO ZORA, VPT2 properties, NMR spectrum
   Ute Becker             : Parallelization
   Giovanni Bistoni       : ED, misc. LED, open-shell LED, HFLD
   Martin Brehm           : Molecular dynamics
   Dmytro Bykov           : SCF Hessian
   Vijay G. Chilkuri      : MRCI spin determinant printing, contributions to CSF-ICE
   Dipayan Datta          : RHF DLPNO-CCSD density
   Achintya Kumar Dutta   : EOM-CC, STEOM-CC
   Dmitry Ganyushin       : Spin-Orbit,Spin-Spin,Magnetic field MRCI
   Miquel Garcia          : C-PCM Hessian, Gaussian charge scheme
   Yang Guo               : DLPNO-NEVPT2, F12-NEVPT2, CIM, IAO-localization
   Andreas Hansen         : Spin unrestricted coupled pair/coupled cluster methods
   Benjamin Helmich-Paris : MC-RPA, TRAH-SCF, COSX integrals
   Lee Huntington         : MR-EOM, pCC
   Robert Izsak           : Overlap fitted RIJCOSX, COSX-SCS-MP3, EOM
   Marcus Kettner         : VPT2
   Christian Kollmar      : KDIIS, OOCD, Brueckner-CCSD(T), CCSD density, CASPT2, CASPT2-K
   Simone Kossmann        : Meta GGA functionals, TD-DFT gradient, OOMP2, MP2 Hessian
   Martin Krupicka        : Initial AUTO-CI
   Lucas Lang             : DCDCAS
   Marvin Lechner         : AUTO-CI (C++ implementation), FIC-MRCC
   Dagmar Lenk            : GEPOL surface, SMD
   Dimitrios Liakos       : Extrapolation schemes; Compound Job, initial MDCI parallelization
   Dimitrios Manganas     : Further ROCIS development; embedding schemes
   Dimitrios Pantazis     : SARC Basis sets
   Anastasios Papadopoulos: AUTO-CI, single reference methods and gradients
   Taras Petrenko         : DFT Hessian,TD-DFT gradient, ASA, ECA, R-Raman, ABS, FL, XAS/XES, NRVS
   Peter Pinski           : DLPNO-MP2, DLPNO-MP2 Gradient
   Christoph Reimann      : Effective Core Potentials
   Marius Retegan         : Local ZFS, SOC
   Christoph Riplinger    : Optimizer, TS searches, QM/MM, DLPNO-CCSD(T), (RO)-DLPNO pert. Triples
   Tobias Risthaus        : Range-separated hybrids, TD-DFT gradient, RPA, STAB
   Michael Roemelt        : Original ROCIS implementation
   Masaaki Saitow         : Open-shell DLPNO-CCSD energy and density
   Barbara Sandhoefer     : DKH picture change effects
   Avijit Sen             : IP-ROCIS
   Kantharuban Sivalingam : CASSCF convergence, NEVPT2, FIC-MRCI
   Bernardo de Souza      : ESD, SOC TD-DFT
   Georgi Stoychev        : AutoAux, RI-MP2 NMR
   Willem Van den Heuvel  : Paramagnetic NMR
   Boris Wezisla          : Elementary symmetry handling
   Frank Wennmohs         : Technical directorship


 We gratefully acknowledge several colleagues who have allowed us to
 interface, adapt or use parts of their codes:
   Stefan Grimme, W. Hujo, H. Kruse, P. Pracht,  : VdW corrections, initial TS optimization,
                  C. Bannwarth, S. Ehlert          DFT functionals, gCP, sTDA/sTD-DF
   Ed Valeev, F. Pavosevic, A. Kumar             : LibInt (2-el integral package), F12 methods
   Garnet Chan, S. Sharma, J. Yang, R. Olivares  : DMRG
   Ulf Ekstrom                                   : XCFun DFT Library
   Mihaly Kallay                                 : mrcc  (arbitrary order and MRCC methods)
   Jiri Pittner, Ondrej Demel                    : Mk-CCSD
   Frank Weinhold                                : gennbo (NPA and NBO analysis)
   Christopher J. Cramer and Donald G. Truhlar   : smd solvation model
   Lars Goerigk                                  : TD-DFT with DH, B97 family of functionals
   V. Asgeirsson, H. Jonsson                     : NEB implementation
   FAccTs GmbH                                   : IRC, NEB, NEB-TS, DLPNO-Multilevel, CI-OPT
                                                   MM, QMMM, 2- and 3-layer-ONIOM, Crystal-QMMM,
                                                   LR-CPCM, SF, NACMEs, symmetry and pop. for TD-DFT,
                                                   nearIR, NL-DFT gradient (VV10), updates on ESD,
                                                   ML-optimized integration grids
   S Lehtola, MJT Oliveira, MAL Marques          : LibXC Library
   Liviu Ungur et al                             : ANISO software


 Your calculation uses the libint2 library for the computation of 2-el integrals
 For citations please refer to: http://libint.valeyev.net

 Your ORCA version has been built with support for libXC version: 5.1.0
 For citations please refer to: https://tddft.org/programs/libxc/

 This ORCA versions uses:
   CBLAS   interface :  Fast vector & matrix operations
   LAPACKE interface :  Fast linear algebra routines
   SCALAPACK package :  Parallel linear algebra routines
   Shared memory     :  Shared parallel matrices
   BLAS/LAPACK       :  OpenBLAS 0.3.15  USE64BITINT DYNAMIC_ARCH NO_AFFINITY Haswell SINGLE_THREADED
        Core in use  :  Haswell
   Copyright (c) 2011-2014, The OpenBLAS Project




***************************************
The coordinates will be read from file: D2.xyz
***************************************


XCFun DFT library Copyright 2009-2010 Ulf Ekstrom and contributors.
See http://admol.org/xcfun for more information.
This is free software; see the source code for copying conditions.
There is ABSOLUTELY NO WARRANTY; not even for MERCHANTABILITY or FITNESS FOR A PARTICULAR PURPOSE.
For details see the documentation.
Scientific users of this library should cite U. Ekstrom, L. Visscher, R. Bast, A. J. Thorvaldsen and K. Ruud;
J.Chem.Theor.Comp. 2010, DOI: 10.1021/ct100117s
XCFun Version 0.99 

================================================================================

----- Orbital basis set information -----
Your calculation utilizes the basis: def2-TZVP
   F. Weigend and R. Ahlrichs, Phys. Chem. Chem. Phys. 7, 3297 (2005).

----- AuxJ basis set information -----
Your calculation utilizes the auxiliary basis: def2/J
   F. Weigend, Phys. Chem. Chem. Phys. 8, 1057 (2006).

================================================================================
                                        WARNINGS
                       Please study these warnings very carefully!
================================================================================


INFO   : the flag for use of the SHARK integral package has been found!

================================================================================
                                       INPUT FILE
================================================================================
NAME = LC_BLYP_D2_wb97.com
|  1> !LC-BLYP RIJCOSX def2-TZVP def2/J TightSCF xyzfile                                                                                         
|  2> 
|  3> *xyzfile 0 1 D2.xyz
|  4> 
|  5> %MaxCore 64000
|  6> 
|  7> %pal nprocs 18                                                                                                                                                  
|  8> end  
|  9> 
| 10> %scf
| 11>   MaxIter 150
| 12> end
| 13> 
| 14> 
| 15>                          ****END OF INPUT****
================================================================================

                       ****************************
                       * Single Point Calculation *
                       ****************************

---------------------------------
CARTESIAN COORDINATES (ANGSTROEM)
---------------------------------
  C      2.916324   -1.242589   -1.543125
  C      0.704661    1.443129   -4.503630
  C      1.728539    1.424320   -5.639443
  H      2.646718    1.953794   -5.381054
  H      1.299916    1.930613   -6.503614
  S      2.252625   -0.188115   -6.271840
  C      3.466585   -1.590971   -2.889082
  N      4.652275   -1.143164   -3.259692
  C      2.752264   -2.292043   -3.728029
  H      1.778364   -2.489604   -3.512738
  H      2.948612   -2.208544   -4.716813
  H      5.146723   -0.512508   -2.633852
  H      4.783030   -1.007203   -4.253498
  F      3.562607   -0.444464   -5.631552
  O      2.344944   -0.033742   -7.696501
  C      2.804084    0.290698   -1.359243
  C      1.052550    0.695659   -3.214915
  H     -0.232483    1.032925   -4.884449
  H      0.511700    2.495794   -4.267966
  C      2.388380    1.093669   -2.597108
  H      3.763425    0.674718   -0.999889
  H      2.094788    0.461222   -0.545756
  O      1.266058   -1.159177   -5.805365
  H      3.167316    1.013242   -3.359430
  H      2.357690    2.149375   -2.310997
  H      1.039284   -0.368429   -3.449329
  H      0.250787    0.865605   -2.488283
  H      1.940472   -1.716529   -1.441161
  H      3.558569   -1.663433   -0.766371

----------------------------
CARTESIAN COORDINATES (A.U.)
----------------------------
  NO LB      ZA    FRAG     MASS         X           Y           Z
   0 C     6.0000    0    12.011    5.511054   -2.348154   -2.916084
   1 C     6.0000    0    12.011    1.331617    2.727119   -8.510627
   2 C     6.0000    0    12.011    3.266466    2.691575  -10.657002
   3 H     1.0000    0     1.008    5.001573    3.692135  -10.168719
   4 H     1.0000    0     1.008    2.456486    3.648330  -12.290050
   5 S    16.0000    0    32.060    4.256845   -0.355485  -11.852059
   6 C     6.0000    0    12.011    6.550897   -3.006500   -5.459573
   7 N     7.0000    0    14.007    8.791525   -2.160266   -6.159925
   8 C     6.0000    0    12.011    5.201026   -4.331334   -7.044953
   9 H     1.0000    0     1.008    3.360621   -4.704669   -6.638113
  10 H     1.0000    0     1.008    5.572070   -4.173543   -8.913484
  11 H     1.0000    0     1.008    9.725897   -0.968501   -4.977259
  12 H     1.0000    0     1.008    9.038617   -1.903337   -8.037945
  13 F     9.0000    0    18.998    6.732352   -0.839915  -10.642091
  14 O     8.0000    0    15.999    4.431301   -0.063764  -14.544279
  15 C     6.0000    0    12.011    5.298951    0.549339   -2.568597
  16 C     6.0000    0    12.011    1.989032    1.314604   -6.075308
  17 H     1.0000    0     1.008   -0.439329    1.951946   -9.230272
  18 H     1.0000    0     1.008    0.966972    4.716368   -8.065286
  19 C     6.0000    0    12.011    4.513384    2.066735   -4.907822
  20 H     1.0000    0     1.008    7.111842    1.275032   -1.889516
  21 H     1.0000    0     1.008    3.958575    0.871583   -1.031329
  22 O     8.0000    0    15.999    2.392504   -2.190526  -10.970549
  23 H     1.0000    0     1.008    5.985361    1.914750   -6.348402
  24 H     1.0000    0     1.008    4.455389    4.061730   -4.367151
  25 H     1.0000    0     1.008    1.963961   -0.696229   -6.518287
  26 H     1.0000    0     1.008    0.473919    1.635756   -4.702174
  27 H     1.0000    0     1.008    3.666960   -3.243770   -2.723400
  28 H     1.0000    0     1.008    6.724720   -3.143433   -1.448231

--------------------------------
INTERNAL COORDINATES (ANGSTROEM)
--------------------------------
 C      0   0   0     0.000000000000     0.00000000     0.00000000
 C      1   0   0     4.568273793968     0.00000000     0.00000000
 C      2   1   0     1.529297825534    98.62404527     0.00000000
 H      3   2   1     1.090944370706   112.43319093   291.35935600
 H      3   2   1     1.089423309889   108.66365748   173.02891256
 S      3   2   1     1.809568454434   117.67249747    54.59879179
 C      1   2   3     1.495244269354    74.44217903   337.12806402
 N      7   1   2     1.320508752421   120.26891390   103.10495601
 C      7   1   2     1.305981940434   120.13503729   286.08645689
 H      9   7   1     1.016790325068   119.48364563     8.33019225
 H      9   7   1     1.011542432359   118.51921329   155.66854205
 H      8   7   1     1.016799188787   118.30856157   356.12171918
 H      8   7   1     1.011549184661   115.93680355   208.86906715
 F      6   3   2     1.480451351977   105.03550261   259.70514125
 O      6   3   2     1.435971529587   105.63739582   140.00826415
 C      1   2   3     1.548347683709    57.29458071   106.04454887
 C      2   1   3     1.529877614442    19.39834396   186.99389249
 H      2   1   3     1.091572130247   114.88526166   114.65620169
 H      2   1   3     1.095844940799   120.70540048   244.49829987
 C     17   2   1     1.524643581099   114.39523607    61.63043835
 H     16   1   2     1.094048234703   108.84673673   220.49718341
 H     16   1   2     1.092676175276   106.85886165   106.82959772
 O      6   3   2     1.460778685441   106.56716191    16.57397008
 H     20  17   2     1.092861154855   108.82111327   307.33588892
 H     20  17   2     1.094219453583   109.46571263    62.60087563
 H     17   2   1     1.089682404302   107.04520605   298.66165453
 H     17   2   1     1.095307766624   108.45540496   184.02122912
 H      1   2   3     1.089634927768    83.26793994   226.06030881
 H      1   2   3     1.092215339711   166.43145148    86.04509137

---------------------------
INTERNAL COORDINATES (A.U.)
---------------------------
 C      0   0   0     0.000000000000     0.00000000     0.00000000
 C      1   0   0     8.632786375368     0.00000000     0.00000000
 C      2   1   0     2.889954067461    98.62404527     0.00000000
 H      3   2   1     2.061586087978   112.43319093   291.35935600
 H      3   2   1     2.058711699600   108.66365748   173.02891256
 S      3   2   1     3.419588799463   117.67249747    54.59879179
 C      1   2   3     2.825602172394    74.44217903   337.12806402
 N      7   1   2     2.495399899522   120.26891390   103.10495601
 C      7   1   2     2.467948203268   120.13503729   286.08645689
 H      9   7   1     1.921455250000   119.48364563     8.33019225
 H      9   7   1     1.911538170000   118.51921329   155.66854205
 H      8   7   1     1.921472000000   118.30856157   356.12171918
 H      8   7   1     1.911550930000   115.93680355   208.86906715
 F      6   3   2     2.797647609830   105.03550261   259.70514125
 O      6   3   2     2.713592927028   105.63739582   140.00826415
 C      1   2   3     2.925953082301    57.29458071   106.04454887
 C      2   1   3     2.891049709713    19.39834396   186.99389249
 H      2   1   3     2.062772381588   114.88526166   114.65620169
 H      2   1   3     2.070846823354   120.70540048   244.49829987
 C     17   2   1     2.881158820119   114.39523607    61.63043835
 H     16   1   2     2.067451540889   108.84673673   220.49718341
 H     16   1   2     2.064858724332   106.85886165   106.82959772
 O      6   3   2     2.760471657752   106.56716191    16.57397008
 H     20  17   2     2.065208285076   108.82111327   307.33588892
 H     20  17   2     2.067775097680   109.46571263    62.60087563
 H     17   2   1     2.059201317083   107.04520605   298.66165453
 H     17   2   1     2.069831711276   108.45540496   184.02122912
 H      1   2   3     2.059111599436    83.26793994   226.06030881
 H      1   2   3     2.063987871322   166.43145148    86.04509137

---------------------
BASIS SET INFORMATION
---------------------
There are 6 groups of distinct atoms

 Group   1 Type C   : 11s6p2d1f contracted to 5s3p2d1f pattern {62111/411/11/1}
 Group   2 Type H   : 5s1p contracted to 3s1p pattern {311/1}
 Group   3 Type S   : 14s9p3d1f contracted to 5s5p2d1f pattern {73211/51111/21/1}
 Group   4 Type N   : 11s6p2d1f contracted to 5s3p2d1f pattern {62111/411/11/1}
 Group   5 Type F   : 11s6p2d1f contracted to 5s3p2d1f pattern {62111/411/11/1}
 Group   6 Type O   : 11s6p2d1f contracted to 5s3p2d1f pattern {62111/411/11/1}

Atom   0C    basis set group =>   1
Atom   1C    basis set group =>   1
Atom   2C    basis set group =>   1
Atom   3H    basis set group =>   2
Atom   4H    basis set group =>   2
Atom   5S    basis set group =>   3
Atom   6C    basis set group =>   1
Atom   7N    basis set group =>   4
Atom   8C    basis set group =>   1
Atom   9H    basis set group =>   2
Atom  10H    basis set group =>   2
Atom  11H    basis set group =>   2
Atom  12H    basis set group =>   2
Atom  13F    basis set group =>   5
Atom  14O    basis set group =>   6
Atom  15C    basis set group =>   1
Atom  16C    basis set group =>   1
Atom  17H    basis set group =>   2
Atom  18H    basis set group =>   2
Atom  19C    basis set group =>   1
Atom  20H    basis set group =>   2
Atom  21H    basis set group =>   2
Atom  22O    basis set group =>   6
Atom  23H    basis set group =>   2
Atom  24H    basis set group =>   2
Atom  25H    basis set group =>   2
Atom  26H    basis set group =>   2
Atom  27H    basis set group =>   2
Atom  28H    basis set group =>   2
---------------------------------
AUXILIARY/J BASIS SET INFORMATION
---------------------------------
There are 6 groups of distinct atoms

 Group   1 Type C   : 12s5p4d2f1g contracted to 6s4p3d1f1g pattern {711111/2111/211/2/1}
 Group   2 Type H   : 5s2p1d contracted to 3s1p1d pattern {311/2/1}
 Group   3 Type S   : 14s5p5d2f1g contracted to 8s4p3d1f1g pattern {71111111/2111/311/2/1}
 Group   4 Type N   : 12s5p4d2f1g contracted to 6s4p3d1f1g pattern {711111/2111/211/2/1}
 Group   5 Type F   : 12s5p4d2f1g contracted to 6s4p3d1f1g pattern {711111/2111/211/2/1}
 Group   6 Type O   : 12s5p4d2f1g contracted to 6s4p3d1f1g pattern {711111/2111/211/2/1}

Atom   0C    basis set group =>   1
Atom   1C    basis set group =>   1
Atom   2C    basis set group =>   1
Atom   3H    basis set group =>   2
Atom   4H    basis set group =>   2
Atom   5S    basis set group =>   3
Atom   6C    basis set group =>   1
Atom   7N    basis set group =>   4
Atom   8C    basis set group =>   1
Atom   9H    basis set group =>   2
Atom  10H    basis set group =>   2
Atom  11H    basis set group =>   2
Atom  12H    basis set group =>   2
Atom  13F    basis set group =>   5
Atom  14O    basis set group =>   6
Atom  15C    basis set group =>   1
Atom  16C    basis set group =>   1
Atom  17H    basis set group =>   2
Atom  18H    basis set group =>   2
Atom  19C    basis set group =>   1
Atom  20H    basis set group =>   2
Atom  21H    basis set group =>   2
Atom  22O    basis set group =>   6
Atom  23H    basis set group =>   2
Atom  24H    basis set group =>   2
Atom  25H    basis set group =>   2
Atom  26H    basis set group =>   2
Atom  27H    basis set group =>   2
Atom  28H    basis set group =>   2


           ************************************************************
           *        Program running with 18 parallel MPI-processes    *
           *              working on a common directory               *
           ************************************************************
------------------------------------------------------------------------------
                           ORCA GTO INTEGRAL CALCULATION
                           -- RI-GTO INTEGRALS CHOSEN --
------------------------------------------------------------------------------
------------------------------------------------------------------------------
                   ___                                                        
                  /   \      - P O W E R E D   B Y -                         
                 /     \                                                     
                 |  |  |   _    _      __       _____    __    __             
                 |  |  |  | |  | |    /  \     |  _  \  |  |  /  |          
                  \  \/   | |  | |   /    \    | | | |  |  | /  /          
                 / \  \   | |__| |  /  /\  \   | |_| |  |  |/  /          
                |  |  |   |  __  | /  /__\  \  |    /   |      \           
                |  |  |   | |  | | |   __   |  |    \   |  |\   \          
                \     /   | |  | | |  |  |  |  | |\  \  |  | \   \       
                 \___/    |_|  |_| |__|  |__|  |_| \__\ |__|  \__/        
                                                                              
                      - O R C A' S   B I G   F R I E N D -                    
                                      &                                       
                       - I N T E G R A L  F E E D E R -                       
                                                                              
 v1 FN, 2020, v2 2021                                                         
------------------------------------------------------------------------------


Reading SHARK input file LC_BLYP_D2_wb97.SHARKINP.tmp ... ok
----------------------
SHARK INTEGRAL PACKAGE
----------------------

Number of atoms                             ...     29
Number of basis functions                   ...    505
Number of shells                            ...    209
Maximum angular momentum                    ...      3
Integral batch strategy                     ... SHARK/LIBINT Hybrid
RI-J (if used) integral strategy            ... SPLIT-RIJ (Revised 2003 algorithm where possible)
Printlevel                                  ...      1
Contraction scheme used                     ... SEGMENTED contraction
Coulomb Range Separation                    ... NOT USED
Exchange Range Separation                   ... Long Range
   Mu parameter                             ...  0.330000
   Scaling (regular/separated)              ...  0.000000  1.000000
Finite Nucleus Model                        ... NOT USED
Auxiliary Coulomb fitting basis             ... AVAILABLE
   # of basis functions in Aux-J            ...    815
   # of shells in Aux-J                     ...    277
   Maximum angular momentum in Aux-J        ...      4
Auxiliary J/K fitting basis                 ... NOT available
Auxiliary Correlation fitting basis         ... NOT available
Auxiliary 'external' fitting basis          ... NOT available
Integral threshold                          ...     2.500000e-11
Primitive cut-off                           ...     2.500000e-12
Primitive pair pre-selection threshold      ...     2.500000e-12

Calculating pre-screening integrals         ... done (  0.2 sec) Dimension = 209
Organizing shell pair data                  ... done (  0.2 sec)
Shell pair information
Total number of shell pairs                 ...     21945
Shell pairs after pre-screening             ...     18719
Total number of primitive shell pairs       ...     66414
Primitive shell pairs kept                  ...     39656
          la=0 lb=0:   5336 shell pairs
          la=1 lb=0:   5547 shell pairs
          la=1 lb=1:   1486 shell pairs
          la=2 lb=0:   2486 shell pairs
          la=2 lb=1:   1317 shell pairs
          la=2 lb=2:    312 shell pairs
          la=3 lb=0:   1208 shell pairs
          la=3 lb=1:    646 shell pairs
          la=3 lb=2:    302 shell pairs
          la=3 lb=3:     79 shell pairs

Calculating one electron integrals          ... done (  0.0 sec)
Calculating RI/J V-Matrix + Cholesky decomp.... done (  0.1 sec)
Calculating Nuclear repulsion               ... done (  0.0 sec) ENN=   1087.332202242259 Eh

SHARK setup successfully completed in   0.7 seconds

Maximum memory used throughout the entire GTOINT-calculation: 29.5 MB


           ************************************************************
           *        Program running with 18 parallel MPI-processes    *
           *              working on a common directory               *
           ************************************************************
-------------------------------------------------------------------------------
                                 ORCA SCF
-------------------------------------------------------------------------------

------------
SCF SETTINGS
------------
Hamiltonian:
 Density Functional     Method          .... DFT(GTOs)
 Exchange Functional    Exchange        .... WB88
 Correlation Functional Correlation     .... LYP
 Gradients option       PostSCFGGA      .... off
   Density functional embedding theory  .... OFF
 Long-range corrected/Screened/Range-Separated Hybrid DFT is turned on
   Amount of maximum screened exact exchange              ....  1.000000
   Range separation parameter mu (erf(mu*r12)/r12)        ....  0.330000
 RI-approximation to the Coulomb term is turned on
   Number of AuxJ basis functions       .... 815
   RIJ-COSX (HFX calculated with COS-X)).... on


General Settings:
 Integral files         IntName         .... LC_BLYP_D2_wb97
 Hartree-Fock type      HFTyp           .... RHF
 Total Charge           Charge          ....    0
 Multiplicity           Mult            ....    1
 Number of Electrons    NEL             ....  112
 Basis Dimension        Dim             ....  505
 Nuclear Repulsion      ENuc            ....   1087.3322022423 Eh

Convergence Acceleration:
 DIIS                   CNVDIIS         .... on
   Start iteration      DIISMaxIt       ....    12
   Startup error        DIISStart       ....  0.200000
   # of expansion vecs  DIISMaxEq       ....     5
   Bias factor          DIISBfac        ....   1.050
   Max. coefficient     DIISMaxC        ....  10.000
 Trust-Rad. Augm. Hess. CNVTRAH         .... auto
   Auto Start mean grad. ratio tolernc. ....  1.125000
   Auto Start start iteration           ....    20
   Auto Start num. interpolation iter.  ....    10
   Max. Number of Micro iterations      ....    16
   Max. Number of Macro iterations      .... Maxiter - #DIIS iter
   Number of Davidson start vectors     ....     2
   Converg. threshold I  (grad. norm)   ....   1.000e-05
   Converg. threshold II (energy diff.) ....   1.000e-08
   Grad. Scal. Fac. for Micro threshold ....   0.100
   Minimum threshold for Micro iter.    ....   0.010
   NR start threshold (gradient norm)   ....   0.001
   Initial trust radius                 ....   0.400
   Minimum AH scaling param. (alpha)    ....   1.000
   Maximum AH scaling param. (alpha)    .... 1000.000
   Orbital update algorithm             .... Taylor
   White noise on init. David. guess    .... on
   Maximum white noise                  ....   0.010
   Quad. conv. algorithm                .... NR
 SOSCF                  CNVSOSCF        .... on
   Start iteration      SOSCFMaxIt      ....   150
   Startup grad/error   SOSCFStart      ....  0.003300
 Level Shifting         CNVShift        .... on
   Level shift para.    LevelShift      ....    0.2500
   Turn off err/grad.   ShiftErr        ....    0.0010
 Zerner damping         CNVZerner       .... off
 Static damping         CNVDamp         .... on
   Fraction old density DampFac         ....    0.7000
   Max. Damping (<1)    DampMax         ....    0.9800
   Min. Damping (>=0)   DampMin         ....    0.0000
   Turn off err/grad.   DampErr         ....    0.1000
 Fernandez-Rico         CNVRico         .... off

SCF Procedure:
 Maximum # iterations   MaxIter         ....   150
 SCF integral mode      SCFMode         .... Direct
   Integral package                     .... SHARK and LIBINT hybrid scheme
 Reset frequency        DirectResetFreq ....    20
 Integral Threshold     Thresh          ....  2.500e-11 Eh
 Primitive CutOff       TCut            ....  2.500e-12 Eh

Convergence Tolerance:
 Convergence Check Mode ConvCheckMode   .... Total+1el-Energy
 Convergence forced     ConvForced      .... 0
 Energy Change          TolE            ....  1.000e-08 Eh
 1-El. energy change                    ....  1.000e-05 Eh
 Orbital Gradient       TolG            ....  1.000e-05
 Orbital Rotation angle TolX            ....  1.000e-05
 DIIS Error             TolErr          ....  5.000e-07


Diagonalization of the overlap matrix:
Smallest eigenvalue                        ... 5.241e-05
Time for diagonalization                   ...    0.069 sec
Threshold for overlap eigenvalues          ... 1.000e-08
Number of eigenvalues below threshold      ... 0
Time for construction of square roots      ...    0.207 sec
Total time needed                          ...    0.278 sec

Time for model grid setup =    0.190 sec

------------------------------
INITIAL GUESS: MODEL POTENTIAL
------------------------------
Loading Hartree-Fock densities                     ... done
Calculating cut-offs                               ... done
Initializing the effective Hamiltonian             ... done
Setting up the integral package (SHARK)            ... done
Starting the Coulomb interaction                   ... done (   0.2 sec)
Reading the grid                                   ... done
Mapping shells                                     ... done
Starting the XC term evaluation                    ... done (   0.2 sec)
  promolecular density results
     # of electrons  =    111.993124331
     EX              =   -103.632106302
     EC              =     -3.881480526
     EX+EC           =   -107.513586828
Transforming the Hamiltonian                       ... done (   0.0 sec)
Diagonalizing the Hamiltonian                      ... done (   0.1 sec)
Back transforming the eigenvectors                 ... done (   0.0 sec)
Now organizing SCF variables                       ... done
                      ------------------
                      INITIAL GUESS DONE (   0.7 sec)
                      ------------------
-------------------
DFT GRID GENERATION
-------------------

General Integration Accuracy     IntAcc      ... 4.388
Radial Grid Type                 RadialGrid  ... OptM3 with GC (2021)
Angular Grid (max. ang.)         AngularGrid ... 4 (Lebedev-302)
Angular grid pruning method      GridPruning ... 4 (adaptive)
Weight generation scheme         WeightScheme... Becke
Basis function cutoff            BFCut       ... 1.0000e-11
Integration weight cutoff        WCut        ... 1.0000e-14
Angular grids for H and He will be reduced by one unit
Partially contracted basis set               ... off
Rotationally invariant grid construction     ... off

Total number of grid points                  ...   129526
Total number of batches                      ...     2040
Average number of points per batch           ...       63
Average number of grid points per atom       ...     4466
Time for grid setup =    1.007 sec

--------------------
COSX GRID GENERATION
--------------------

GRIDX 1
-------
General Integration Accuracy     IntAcc      ... 3.816
Radial Grid Type                 RadialGrid  ... OptM3 with GC (2021)
Angular Grid (max. ang.)         AngularGrid ... 1 (Lebedev-50)
Angular grid pruning method      GridPruning ... 4 (adaptive)
Weight generation scheme         WeightScheme... Becke
Basis function cutoff            BFCut       ... 1.0000e-11
Integration weight cutoff        WCut        ... 1.0000e-14
Angular grids for H and He will be reduced by one unit
Partially contracted basis set               ... on
Rotationally invariant grid construction     ... off

Total number of grid points                  ...    16409
Total number of batches                      ...      273
Average number of points per batch           ...       60
Average number of grid points per atom       ...      566
UseSFitting                                  ... on

GRIDX 2
-------
General Integration Accuracy     IntAcc      ... 4.020
Radial Grid Type                 RadialGrid  ... OptM3 with GC (2021)
Angular Grid (max. ang.)         AngularGrid ... 2 (Lebedev-110)
Angular grid pruning method      GridPruning ... 4 (adaptive)
Weight generation scheme         WeightScheme... Becke
Basis function cutoff            BFCut       ... 1.0000e-11
Integration weight cutoff        WCut        ... 1.0000e-14
Angular grids for H and He will be reduced by one unit
Partially contracted basis set               ... on
Rotationally invariant grid construction     ... off

Total number of grid points                  ...    34781
Total number of batches                      ...      557
Average number of points per batch           ...       62
Average number of grid points per atom       ...     1199
UseSFitting                                  ... on

GRIDX 3
-------
General Integration Accuracy     IntAcc      ... 4.338
Radial Grid Type                 RadialGrid  ... OptM3 with GC (2021)
Angular Grid (max. ang.)         AngularGrid ... 3 (Lebedev-194)
Angular grid pruning method      GridPruning ... 4 (adaptive)
Weight generation scheme         WeightScheme... Becke
Basis function cutoff            BFCut       ... 1.0000e-11
Integration weight cutoff        WCut        ... 1.0000e-14
Angular grids for H and He will be reduced by one unit
Partially contracted basis set               ... on
Rotationally invariant grid construction     ... off

Total number of grid points                  ...    76343
Total number of batches                      ...     1208
Average number of points per batch           ...       63
Average number of grid points per atom       ...     2633
UseSFitting                                  ... on

Time for X-Grid setup             =    1.065 sec

--------------
SCF ITERATIONS
--------------
ITER       Energy         Delta-E        Max-DP      RMS-DP      [F,P]     Damp
               ***  Starting incremental Fock matrix formation  ***
  0  -1015.6565356182   0.000000000000 0.13301817  0.00121472  0.2862914 0.7000
  1  -1015.9190991260  -0.262563507785 0.07910420  0.00095232  0.1254636 0.7000
                               ***Turning on DIIS***
  2  -1016.0343806287  -0.115281502647 0.17125591  0.00188491  0.0564171 0.0000
  3  -1016.2289056543  -0.194525025653 0.06202259  0.00051402  0.0642494 0.0000
  4  -1016.2594081805  -0.030502526183 0.01351730  0.00015318  0.0144822 0.0000
  5  -1016.2606370069  -0.001228826404 0.00292805  0.00005386  0.0072022 0.0000
                      *** Initiating the SOSCF procedure ***
                           *** Shutting down DIIS ***
                      *** Re-Reading the Fockian *** 
                      *** Removing any level shift *** 
ITER      Energy       Delta-E        Grad      Rot      Max-DP    RMS-DP
  6  -1016.26081294  -0.0001759303  0.000692  0.000692  0.002429  0.000044
               *** Restarting incremental Fock matrix formation ***
  7  -1016.26083867  -0.0000257336  0.000152  0.000226  0.001492  0.000022
  8  -1016.26084036  -0.0000016876  0.000244  0.000381  0.000690  0.000009
  9  -1016.26084359  -0.0000032270  0.000051  0.000160  0.000291  0.000004
 10  -1016.26084367  -0.0000000887  0.000017  0.000045  0.000151  0.000002
 11  -1016.26084373  -0.0000000555  0.000006  0.000009  0.000053  0.000001
 12  -1016.26084373  -0.0000000036  0.000003  0.000002  0.000023  0.000000
                  ***Gradient check signals convergence***
              ***Rediagonalizing the Fockian in SOSCF/NRSCF***

               *****************************************************
               *                     SUCCESS                       *
               *           SCF CONVERGED AFTER  13 CYCLES          *
               *****************************************************


----------------
TOTAL SCF ENERGY
----------------

Total Energy       :        -1016.26084374 Eh          -27653.86345 eV

Components:
Nuclear Repulsion  :         1087.33220224 Eh           29587.81344 eV
Electronic Energy  :        -2103.59304598 Eh          -57241.67689 eV
One Electron Energy:        -3554.34020530 Eh          -96718.51406 eV
Two Electron Energy:         1450.74715932 Eh           39476.83717 eV
Max COSX asymmetry :            0.00000330 Eh               0.00009 eV

Virial components:
Potential Energy   :        -2030.40868698 Eh          -55250.22924 eV
Kinetic Energy     :         1014.14784324 Eh           27596.36579 eV
Virial Ratio       :            2.00208352


DFT components:
N(Alpha)           :       56.000072597684 electrons
N(Beta)            :       56.000072597684 electrons
N(Total)           :      112.000145195367 electrons
E(XC)              :      -89.171381615337 Eh       
DFET-embed. en.    :        0.000000000000 Eh       

---------------
SCF CONVERGENCE
---------------

  Last Energy change         ...   -8.9029e-09  Tolerance :   1.0000e-08
  Last MAX-Density change    ...    2.8587e-05  Tolerance :   1.0000e-07
  Last RMS-Density change    ...    2.3898e-07  Tolerance :   5.0000e-09
  Last Orbital Gradient      ...    8.1574e-07  Tolerance :   1.0000e-05
  Last Orbital Rotation      ...    2.1554e-06  Tolerance :   1.0000e-05

             **** THE GBW FILE WAS UPDATED (LC_BLYP_D2_wb97.gbw) ****
             **** DENSITY LC_BLYP_D2_wb97.scfp WAS UPDATED ****
             **** ENERGY FILE WAS UPDATED (LC_BLYP_D2_wb97.en.tmp) ****
             **** THE GBW FILE WAS UPDATED (LC_BLYP_D2_wb97.gbw) ****
             **** DENSITY LC_BLYP_D2_wb97.scfp WAS UPDATED ****
----------------
ORBITAL ENERGIES
----------------

  NO   OCC          E(Eh)            E(eV) 
   0   2.0000     -88.518994     -2408.7243 
   1   2.0000     -24.563275      -668.4007 
   2   2.0000     -18.956085      -515.8213 
   3   2.0000     -18.946406      -515.5579 
   4   2.0000     -14.165833      -385.4719 
   5   2.0000     -10.130074      -275.6533 
   6   2.0000     -10.094090      -274.6742 
   7   2.0000     -10.084994      -274.4266 
   8   2.0000     -10.076577      -274.1976 
   9   2.0000     -10.074620      -274.1444 
  10   2.0000     -10.069661      -274.0094 
  11   2.0000     -10.069516      -274.0055 
  12   2.0000      -9.995237      -271.9842 
  13   2.0000      -8.061690      -219.3697 
  14   2.0000      -6.093797      -165.8206 
  15   2.0000      -6.086492      -165.6219 
  16   2.0000      -6.085967      -165.6076 
  17   2.0000      -1.444236       -39.2996 
  18   2.0000      -1.210416       -32.9371 
  19   2.0000      -1.114859       -30.3369 
  20   2.0000      -1.035557       -28.1789 
  21   2.0000      -0.949322       -25.8324 
  22   2.0000      -0.912933       -24.8422 
  23   2.0000      -0.870948       -23.6997 
  24   2.0000      -0.842957       -22.9380 
  25   2.0000      -0.817204       -22.2372 
  26   2.0000      -0.790916       -21.5219 
  27   2.0000      -0.738581       -20.0978 
  28   2.0000      -0.705737       -19.2041 
  29   2.0000      -0.681650       -18.5486 
  30   2.0000      -0.677573       -18.4377 
  31   2.0000      -0.664539       -18.0830 
  32   2.0000      -0.653814       -17.7912 
  33   2.0000      -0.629443       -17.1280 
  34   2.0000      -0.602454       -16.3936 
  35   2.0000      -0.599960       -16.3257 
  36   2.0000      -0.585793       -15.9402 
  37   2.0000      -0.570566       -15.5259 
  38   2.0000      -0.556556       -15.1447 
  39   2.0000      -0.548187       -14.9169 
  40   2.0000      -0.539431       -14.6787 
  41   2.0000      -0.521738       -14.1972 
  42   2.0000      -0.507313       -13.8047 
  43   2.0000      -0.494166       -13.4469 
  44   2.0000      -0.487768       -13.2728 
  45   2.0000      -0.484193       -13.1756 
  46   2.0000      -0.467857       -12.7310 
  47   2.0000      -0.458145       -12.4668 
  48   2.0000      -0.448528       -12.2051 
  49   2.0000      -0.435460       -11.8495 
  50   2.0000      -0.432335       -11.7644 
  51   2.0000      -0.424405       -11.5487 
  52   2.0000      -0.421695       -11.4749 
  53   2.0000      -0.413081       -11.2405 
  54   2.0000      -0.411983       -11.2106 
  55   2.0000      -0.288874        -7.8607 
  56   0.0000       0.074734         2.0336 
  57   0.0000       0.091747         2.4966 
  58   0.0000       0.094047         2.5592 
  59   0.0000       0.102507         2.7894 
  60   0.0000       0.119238         3.2446 
  61   0.0000       0.127204         3.4614 
  62   0.0000       0.133929         3.6444 
  63   0.0000       0.143246         3.8979 
  64   0.0000       0.150099         4.0844 
  65   0.0000       0.151714         4.1283 
  66   0.0000       0.159043         4.3278 
  67   0.0000       0.165150         4.4940 
  68   0.0000       0.173485         4.7208 
  69   0.0000       0.174234         4.7411 
  70   0.0000       0.183612         4.9963 
  71   0.0000       0.198206         5.3935 
  72   0.0000       0.204951         5.5770 
  73   0.0000       0.217073         5.9068 
  74   0.0000       0.219984         5.9861 
  75   0.0000       0.235795         6.4163 
  76   0.0000       0.237798         6.4708 
  77   0.0000       0.242178         6.5900 
  78   0.0000       0.249934         6.8010 
  79   0.0000       0.256217         6.9720 
  80   0.0000       0.268921         7.3177 
  81   0.0000       0.277147         7.5416 
  82   0.0000       0.279050         7.5933 
  83   0.0000       0.293843         7.9959 
  84   0.0000       0.295336         8.0365 
  85   0.0000       0.297828         8.1043 
  86   0.0000       0.317299         8.6342 
  87   0.0000       0.325721         8.8633 
  88   0.0000       0.333666         9.0795 
  89   0.0000       0.337772         9.1912 
  90   0.0000       0.354378         9.6431 
  91   0.0000       0.357940         9.7400 
  92   0.0000       0.369574        10.0566 
  93   0.0000       0.375106        10.2071 
  94   0.0000       0.387200        10.5363 
  95   0.0000       0.396119        10.7790 
  96   0.0000       0.412080        11.2133 
  97   0.0000       0.418683        11.3929 
  98   0.0000       0.427152        11.6234 
  99   0.0000       0.440466        11.9857 
 100   0.0000       0.443712        12.0740 
 101   0.0000       0.449049        12.2193 
 102   0.0000       0.459290        12.4979 
 103   0.0000       0.459816        12.5122 
 104   0.0000       0.464529        12.6405 
 105   0.0000       0.467626        12.7247 
 106   0.0000       0.476685        12.9713 
 107   0.0000       0.486763        13.2455 
 108   0.0000       0.493518        13.4293 
 109   0.0000       0.497340        13.5333 
 110   0.0000       0.502753        13.6806 
 111   0.0000       0.510293        13.8858 
 112   0.0000       0.514531        14.0011 
 113   0.0000       0.518544        14.1103 
 114   0.0000       0.524523        14.2730 
 115   0.0000       0.529812        14.4169 
 116   0.0000       0.537295        14.6206 
 117   0.0000       0.541322        14.7301 
 118   0.0000       0.542616        14.7653 
 119   0.0000       0.548821        14.9342 
 120   0.0000       0.552929        15.0460 
 121   0.0000       0.561620        15.2825 
 122   0.0000       0.572297        15.5730 
 123   0.0000       0.574882        15.6433 
 124   0.0000       0.584792        15.9130 
 125   0.0000       0.592008        16.1094 
 126   0.0000       0.593118        16.1396 
 127   0.0000       0.602160        16.3856 
 128   0.0000       0.607574        16.5329 
 129   0.0000       0.619335        16.8530 
 130   0.0000       0.626736        17.0544 
 131   0.0000       0.634311        17.2605 
 132   0.0000       0.638531        17.3753 
 133   0.0000       0.643685        17.5156 
 134   0.0000       0.662995        18.0410 
 135   0.0000       0.668595        18.1934 
 136   0.0000       0.675664        18.3857 
 137   0.0000       0.691725        18.8228 
 138   0.0000       0.701770        19.0961 
 139   0.0000       0.720486        19.6054 
 140   0.0000       0.732861        19.9422 
 141   0.0000       0.741047        20.1649 
 142   0.0000       0.744634        20.2625 
 143   0.0000       0.755041        20.5457 
 144   0.0000       0.768133        20.9020 
 145   0.0000       0.774824        21.0840 
 146   0.0000       0.801919        21.8213 
 147   0.0000       0.829985        22.5850 
 148   0.0000       0.836557        22.7639 
 149   0.0000       0.843807        22.9612 
 150   0.0000       0.851720        23.1765 
 151   0.0000       0.863014        23.4838 
 152   0.0000       0.872378        23.7386 
 153   0.0000       0.893572        24.3153 
 154   0.0000       0.900281        24.4979 
 155   0.0000       0.913879        24.8679 
 156   0.0000       0.925802        25.1924 
 157   0.0000       0.927153        25.2291 
 158   0.0000       0.944024        25.6882 
 159   0.0000       0.956067        26.0159 
 160   0.0000       0.970446        26.4072 
 161   0.0000       0.982026        26.7223 
 162   0.0000       0.991270        26.9738 
 163   0.0000       1.010151        27.4876 
 164   0.0000       1.021382        27.7932 
 165   0.0000       1.028772        27.9943 
 166   0.0000       1.050053        28.5734 
 167   0.0000       1.063598        28.9420 
 168   0.0000       1.067093        29.0371 
 169   0.0000       1.078834        29.3566 
 170   0.0000       1.085082        29.5266 
 171   0.0000       1.093365        29.7520 
 172   0.0000       1.121097        30.5066 
 173   0.0000       1.134110        30.8607 
 174   0.0000       1.136645        30.9297 
 175   0.0000       1.156086        31.4587 
 176   0.0000       1.176967        32.0269 
 177   0.0000       1.182703        32.1830 
 178   0.0000       1.193954        32.4891 
 179   0.0000       1.216224        33.0951 
 180   0.0000       1.232450        33.5367 
 181   0.0000       1.235832        33.6287 
 182   0.0000       1.251426        34.0530 
 183   0.0000       1.267724        34.4965 
 184   0.0000       1.274311        34.6758 
 185   0.0000       1.276649        34.7394 
 186   0.0000       1.292401        35.1680 
 187   0.0000       1.310576        35.6626 
 188   0.0000       1.322702        35.9926 
 189   0.0000       1.335964        36.3534 
 190   0.0000       1.350652        36.7531 
 191   0.0000       1.360013        37.0078 
 192   0.0000       1.388816        37.7916 
 193   0.0000       1.397664        38.0324 
 194   0.0000       1.411459        38.4077 
 195   0.0000       1.424583        38.7649 
 196   0.0000       1.429870        38.9087 
 197   0.0000       1.441766        39.2325 
 198   0.0000       1.455517        39.6066 
 199   0.0000       1.480655        40.2907 
 200   0.0000       1.491751        40.5926 
 201   0.0000       1.504136        40.9296 
 202   0.0000       1.523294        41.4509 
 203   0.0000       1.542335        41.9691 
 204   0.0000       1.549255        42.1574 
 205   0.0000       1.564849        42.5817 
 206   0.0000       1.580332        43.0030 
 207   0.0000       1.594033        43.3758 
 208   0.0000       1.603551        43.6348 
 209   0.0000       1.610492        43.8237 
 210   0.0000       1.611114        43.8406 
 211   0.0000       1.622982        44.1636 
 212   0.0000       1.633818        44.4585 
 213   0.0000       1.646431        44.8017 
 214   0.0000       1.655446        45.0470 
 215   0.0000       1.672443        45.5095 
 216   0.0000       1.679667        45.7061 
 217   0.0000       1.680066        45.7169 
 218   0.0000       1.688746        45.9531 
 219   0.0000       1.700337        46.2685 
 220   0.0000       1.706688        46.4414 
 221   0.0000       1.721456        46.8432 
 222   0.0000       1.724950        46.9383 
 223   0.0000       1.729355        47.0581 
 224   0.0000       1.740417        47.3592 
 225   0.0000       1.749626        47.6098 
 226   0.0000       1.755860        47.7794 
 227   0.0000       1.768554        48.1248 
 228   0.0000       1.789427        48.6928 
 229   0.0000       1.795763        48.8652 
 230   0.0000       1.801782        49.0290 
 231   0.0000       1.813437        49.3461 
 232   0.0000       1.826897        49.7124 
 233   0.0000       1.848139        50.2904 
 234   0.0000       1.860646        50.6308 
 235   0.0000       1.869706        50.8773 
 236   0.0000       1.876190        51.0537 
 237   0.0000       1.904448        51.8227 
 238   0.0000       1.911149        52.0050 
 239   0.0000       1.920554        52.2609 
 240   0.0000       1.945395        52.9369 
 241   0.0000       1.948115        53.0109 
 242   0.0000       1.955512        53.2122 
 243   0.0000       1.972967        53.6872 
 244   0.0000       1.982979        53.9596 
 245   0.0000       1.996037        54.3149 
 246   0.0000       2.018271        54.9200 
 247   0.0000       2.034396        55.3587 
 248   0.0000       2.045139        55.6511 
 249   0.0000       2.055609        55.9360 
 250   0.0000       2.060612        56.0721 
 251   0.0000       2.065232        56.1978 
 252   0.0000       2.093003        56.9535 
 253   0.0000       2.100448        57.1561 
 254   0.0000       2.113582        57.5135 
 255   0.0000       2.123402        57.7807 
 256   0.0000       2.131977        58.0140 
 257   0.0000       2.150093        58.5070 
 258   0.0000       2.172386        59.1136 
 259   0.0000       2.184792        59.4512 
 260   0.0000       2.189012        59.5660 
 261   0.0000       2.198473        59.8235 
 262   0.0000       2.209861        60.1334 
 263   0.0000       2.224410        60.5293 
 264   0.0000       2.237160        60.8762 
 265   0.0000       2.269764        61.7634 
 266   0.0000       2.281251        62.0760 
 267   0.0000       2.291255        62.3482 
 268   0.0000       2.323671        63.2303 
 269   0.0000       2.331174        63.4345 
 270   0.0000       2.340440        63.6866 
 271   0.0000       2.362286        64.2811 
 272   0.0000       2.372089        64.5478 
 273   0.0000       2.387385        64.9641 
 274   0.0000       2.409452        65.5645 
 275   0.0000       2.421086        65.8811 
 276   0.0000       2.434411        66.2437 
 277   0.0000       2.452460        66.7348 
 278   0.0000       2.469642        67.2024 
 279   0.0000       2.477879        67.4265 
 280   0.0000       2.488444        67.7140 
 281   0.0000       2.507083        68.2212 
 282   0.0000       2.509257        68.2803 
 283   0.0000       2.522834        68.6498 
 284   0.0000       2.530141        68.8486 
 285   0.0000       2.541219        69.1501 
 286   0.0000       2.551789        69.4377 
 287   0.0000       2.557882        69.6035 
 288   0.0000       2.573709        70.0342 
 289   0.0000       2.584685        70.3329 
 290   0.0000       2.595536        70.6281 
 291   0.0000       2.605089        70.8881 
 292   0.0000       2.616824        71.2074 
 293   0.0000       2.625138        71.4336 
 294   0.0000       2.637888        71.7806 
 295   0.0000       2.650989        72.1371 
 296   0.0000       2.656032        72.2743 
 297   0.0000       2.676741        72.8378 
 298   0.0000       2.682929        73.0062 
 299   0.0000       2.692564        73.2684 
 300   0.0000       2.699694        73.4624 
 301   0.0000       2.706371        73.6441 
 302   0.0000       2.713245        73.8311 
 303   0.0000       2.722911        74.0942 
 304   0.0000       2.730779        74.3083 
 305   0.0000       2.737110        74.4805 
 306   0.0000       2.742823        74.6360 
 307   0.0000       2.744056        74.6696 
 308   0.0000       2.762719        75.1774 
 309   0.0000       2.779783        75.6417 
 310   0.0000       2.781253        75.6817 
 311   0.0000       2.797918        76.1352 
 312   0.0000       2.808443        76.4216 
 313   0.0000       2.813301        76.5538 
 314   0.0000       2.817054        76.6559 
 315   0.0000       2.822194        76.7958 
 316   0.0000       2.832781        77.0839 
 317   0.0000       2.847061        77.4725 
 318   0.0000       2.869259        78.0765 
 319   0.0000       2.879358        78.3513 
 320   0.0000       2.888333        78.5955 
 321   0.0000       2.904426        79.0334 
 322   0.0000       2.915714        79.3406 
 323   0.0000       2.923769        79.5598 
 324   0.0000       2.942063        80.0576 
 325   0.0000       2.969189        80.7957 
 326   0.0000       2.977533        81.0228 
 327   0.0000       2.996020        81.5259 
 328   0.0000       3.013228        81.9941 
 329   0.0000       3.016785        82.0909 
 330   0.0000       3.031200        82.4831 
 331   0.0000       3.038580        82.6840 
 332   0.0000       3.066529        83.4445 
 333   0.0000       3.084579        83.9357 
 334   0.0000       3.098904        84.3255 
 335   0.0000       3.106132        84.5222 
 336   0.0000       3.120652        84.9173 
 337   0.0000       3.137190        85.3673 
 338   0.0000       3.150561        85.7311 
 339   0.0000       3.168414        86.2169 
 340   0.0000       3.187800        86.7445 
 341   0.0000       3.194673        86.9315 
 342   0.0000       3.207235        87.2733 
 343   0.0000       3.220796        87.6423 
 344   0.0000       3.231636        87.9373 
 345   0.0000       3.245729        88.3208 
 346   0.0000       3.255778        88.5942 
 347   0.0000       3.280513        89.2673 
 348   0.0000       3.284550        89.3771 
 349   0.0000       3.300255        89.8045 
 350   0.0000       3.307330        89.9970 
 351   0.0000       3.316157        90.2372 
 352   0.0000       3.323644        90.4409 
 353   0.0000       3.333914        90.7204 
 354   0.0000       3.351217        91.1912 
 355   0.0000       3.365632        91.5835 
 356   0.0000       3.370156        91.7066 
 357   0.0000       3.378655        91.9379 
 358   0.0000       3.382631        92.0461 
 359   0.0000       3.391717        92.2933 
 360   0.0000       3.402349        92.5826 
 361   0.0000       3.416444        92.9662 
 362   0.0000       3.428000        93.2806 
 363   0.0000       3.428443        93.2927 
 364   0.0000       3.452996        93.9608 
 365   0.0000       3.469591        94.4124 
 366   0.0000       3.482871        94.7737 
 367   0.0000       3.489911        94.9653 
 368   0.0000       3.496975        95.1575 
 369   0.0000       3.508514        95.4715 
 370   0.0000       3.510030        95.5128 
 371   0.0000       3.521079        95.8134 
 372   0.0000       3.554798        96.7310 
 373   0.0000       3.558217        96.8240 
 374   0.0000       3.568701        97.1093 
 375   0.0000       3.592089        97.7457 
 376   0.0000       3.611328        98.2692 
 377   0.0000       3.613534        98.3292 
 378   0.0000       3.629019        98.7506 
 379   0.0000       3.639899        99.0467 
 380   0.0000       3.646742        99.2329 
 381   0.0000       3.655697        99.4766 
 382   0.0000       3.675396       100.0126 
 383   0.0000       3.685170       100.2786 
 384   0.0000       3.712652       101.0264 
 385   0.0000       3.717561       101.1600 
 386   0.0000       3.728848       101.4671 
 387   0.0000       3.734989       101.6342 
 388   0.0000       3.792389       103.1961 
 389   0.0000       3.811056       103.7041 
 390   0.0000       3.826053       104.1122 
 391   0.0000       3.839321       104.4732 
 392   0.0000       3.876844       105.4943 
 393   0.0000       3.907871       106.3386 
 394   0.0000       3.928151       106.8904 
 395   0.0000       3.931320       106.9767 
 396   0.0000       3.961202       107.7898 
 397   0.0000       3.964935       107.8914 
 398   0.0000       3.989219       108.5522 
 399   0.0000       4.008469       109.0760 
 400   0.0000       4.031888       109.7133 
 401   0.0000       4.039014       109.9072 
 402   0.0000       4.066983       110.6682 
 403   0.0000       4.069962       110.7493 
 404   0.0000       4.075657       110.9043 
 405   0.0000       4.095350       111.4401 
 406   0.0000       4.102613       111.6378 
 407   0.0000       4.131242       112.4168 
 408   0.0000       4.160209       113.2050 
 409   0.0000       4.177782       113.6832 
 410   0.0000       4.191049       114.0442 
 411   0.0000       4.233684       115.2044 
 412   0.0000       4.254821       115.7796 
 413   0.0000       4.276429       116.3675 
 414   0.0000       4.292923       116.8164 
 415   0.0000       4.335878       117.9852 
 416   0.0000       4.394869       119.5905 
 417   0.0000       4.397853       119.6717 
 418   0.0000       4.422845       120.3517 
 419   0.0000       4.463300       121.4526 
 420   0.0000       4.478316       121.8612 
 421   0.0000       4.496814       122.3645 
 422   0.0000       4.545125       123.6791 
 423   0.0000       4.556777       123.9962 
 424   0.0000       4.585724       124.7839 
 425   0.0000       4.601959       125.2257 
 426   0.0000       4.629183       125.9665 
 427   0.0000       4.668003       127.0228 
 428   0.0000       4.699816       127.8885 
 429   0.0000       4.712760       128.2407 
 430   0.0000       4.723329       128.5283 
 431   0.0000       4.769716       129.7906 
 432   0.0000       4.787161       130.2653 
 433   0.0000       4.811630       130.9311 
 434   0.0000       4.826688       131.3409 
 435   0.0000       4.879130       132.7679 
 436   0.0000       4.882412       132.8572 
 437   0.0000       4.907068       133.5281 
 438   0.0000       4.938781       134.3911 
 439   0.0000       4.965216       135.1104 
 440   0.0000       4.988685       135.7490 
 441   0.0000       5.001281       136.0918 
 442   0.0000       5.058486       137.6484 
 443   0.0000       5.088661       138.4695 
 444   0.0000       5.136118       139.7609 
 445   0.0000       5.194530       141.3504 
 446   0.0000       5.198099       141.4475 
 447   0.0000       5.214034       141.8811 
 448   0.0000       5.223891       142.1493 
 449   0.0000       5.232017       142.3704 
 450   0.0000       5.248934       142.8308 
 451   0.0000       5.269071       143.3787 
 452   0.0000       5.286597       143.8556 
 453   0.0000       5.319089       144.7398 
 454   0.0000       5.342182       145.3682 
 455   0.0000       5.381169       146.4291 
 456   0.0000       5.417118       147.4073 
 457   0.0000       5.445139       148.1698 
 458   0.0000       5.467936       148.7901 
 459   0.0000       5.548944       150.9945 
 460   0.0000       5.564571       151.4197 
 461   0.0000       5.594309       152.2289 
 462   0.0000       5.634300       153.3171 
 463   0.0000       5.678747       154.5266 
 464   0.0000       5.752331       156.5289 
 465   0.0000       5.864515       159.5816 
 466   0.0000       6.074482       165.2951 
 467   0.0000       6.353047       172.8752 
 468   0.0000       6.361612       173.1083 
 469   0.0000       6.426080       174.8625 
 470   0.0000       6.512284       177.2082 
 471   0.0000       6.676066       181.6650 
 472   0.0000       6.703955       182.4239 
 473   0.0000       6.761886       184.0003 
 474   0.0000       6.823005       185.6634 
 475   0.0000       6.841000       186.1531 
 476   0.0000       6.850120       186.4012 
 477   0.0000       6.871936       186.9949 
 478   0.0000       6.918863       188.2718 
 479   0.0000       6.923970       188.4108 
 480   0.0000       6.952693       189.1924 
 481   0.0000       6.983875       190.0409 
 482   0.0000       7.006373       190.6531 
 483   0.0000       7.094641       193.0550 
 484   0.0000       8.307338       226.0542 
 485   0.0000       8.323927       226.5056 
 486   0.0000       8.624167       234.6755 
 487   0.0000       8.683373       236.2866 
 488   0.0000       8.797039       239.3796 
 489   0.0000       9.341836       254.2043 
 490   0.0000       9.588440       260.9147 
 491   0.0000       9.654489       262.7120 
 492   0.0000      22.059581       600.2717 
 493   0.0000      22.371740       608.7660 
 494   0.0000      22.413567       609.9042 
 495   0.0000      22.419818       610.0743 
 496   0.0000      22.449713       610.8878 
 497   0.0000      22.485249       611.8547 
 498   0.0000      22.510747       612.5486 
 499   0.0000      22.603294       615.0669 
 500   0.0000      23.212212       631.6364 
 501   0.0000      31.977564       870.1538 
 502   0.0000      43.448564      1182.2955 
 503   0.0000      43.549785      1185.0499 
 504   0.0000      56.795073      1545.4725 

                    ********************************
                    * MULLIKEN POPULATION ANALYSIS *
                    ********************************

-----------------------
MULLIKEN ATOMIC CHARGES
-----------------------
   0 C :   -0.284044
   1 C :   -0.238221
   2 C :   -0.381123
   3 H :    0.182931
   4 H :    0.203539
   5 S :    0.801910
   6 C :    0.146843
   7 N :   -0.359168
   8 C :   -0.433701
   9 H :    0.111400
  10 H :    0.076452
  11 H :    0.224657
  12 H :    0.214843
  13 F :   -0.126611
  14 O :   -0.363021
  15 C :   -0.313738
  16 C :   -0.266123
  17 H :    0.166033
  18 H :    0.143648
  19 C :   -0.239565
  20 H :    0.145580
  21 H :    0.136690
  22 O :   -0.389141
  23 H :    0.106571
  24 H :    0.131402
  25 H :    0.168515
  26 H :    0.133851
  27 H :    0.150958
  28 H :    0.148629
Sum of atomic charges:    0.0000000

--------------------------------
MULLIKEN REDUCED ORBITAL CHARGES
--------------------------------
  0 C s       :     3.317653  s :     3.317653
      pz      :     0.913562  p :     2.886488
      px      :     1.071749
      py      :     0.901177
      dz2     :     0.011396  d :     0.075007
      dxz     :     0.013711
      dyz     :     0.023051
      dx2y2   :     0.007412
      dxy     :     0.019437
      f0      :     0.000918  f :     0.004897
      f+1     :     0.000932
      f-1     :     0.000629
      f+2     :     0.000697
      f-2     :     0.000234
      f+3     :     0.000684
      f-3     :     0.000802
  1 C s       :     3.270465  s :     3.270465
      pz      :     0.870730  p :     2.871644
      px      :     0.964547
      py      :     1.036367
      dz2     :     0.030443  d :     0.090831
      dxz     :     0.019875
      dyz     :     0.011192
      dx2y2   :     0.020255
      dxy     :     0.009067
      f0      :     0.001185  f :     0.005281
      f+1     :     0.000973
      f-1     :     0.000473
      f+2     :     0.001158
      f-2     :     0.000901
      f+3     :     0.000079
      f-3     :     0.000512
  2 C s       :     3.295246  s :     3.295246
      pz      :     1.058420  p :     3.006776
      px      :     1.048580
      py      :     0.899775
      dz2     :     0.022348  d :     0.074785
      dxz     :     0.004510
      dyz     :     0.017165
      dx2y2   :     0.013887
      dxy     :     0.016875
      f0      :     0.000566  f :     0.004316
      f+1     :     0.000894
      f-1     :     0.000386
      f+2     :     0.000628
      f-2     :     0.000923
      f+3     :     0.000439
      f-3     :     0.000481
  3 H s       :     0.796033  s :     0.796033
      pz      :     0.004853  p :     0.021036
      px      :     0.009925
      py      :     0.006258
  4 H s       :     0.775007  s :     0.775007
      pz      :     0.009919  p :     0.021454
      px      :     0.005496
      py      :     0.006039
  5 S s       :     5.384472  s :     5.384472
      pz      :     2.811750  p :     8.554622
      px      :     2.788304
      py      :     2.954567
      dz2     :     0.232497  d :     1.135023
      dxz     :     0.252323
      dyz     :     0.251775
      dx2y2   :     0.236640
      dxy     :     0.161789
      f0      :     0.012778  f :     0.123972
      f+1     :     0.032531
      f-1     :     0.020316
      f+2     :     0.014962
      f-2     :     0.014587
      f+3     :     0.013198
      f-3     :     0.015601
  6 C s       :     3.196179  s :     3.196179
      pz      :     0.829958  p :     2.482333
      px      :     0.758020
      py      :     0.894355
      dz2     :     0.036731  d :     0.161136
      dxz     :     0.022721
      dyz     :     0.018301
      dx2y2   :     0.056214
      dxy     :     0.027169
      f0      :     0.001748  f :     0.013508
      f+1     :     0.002445
      f-1     :     0.001304
      f+2     :     0.002425
      f-2     :     0.001160
      f+3     :     0.002663
      f-3     :     0.001762
  7 N s       :     3.415827  s :     3.415827
      pz      :     1.113734  p :     3.912655
      px      :     1.274440
      py      :     1.524482
      dz2     :     0.004015  d :     0.027778
      dxz     :     0.006781
      dyz     :     0.003184
      dx2y2   :     0.005491
      dxy     :     0.008308
      f0      :     0.000607  f :     0.002907
      f+1     :     0.000274
      f-1     :     0.000234
      f+2     :     0.000182
      f-2     :     0.000464
      f+3     :     0.000677
      f-3     :     0.000470
  8 C s       :     3.355167  s :     3.355167
      pz      :     0.932663  p :     3.041662
      px      :     1.010083
      py      :     1.098916
      dz2     :     0.008366  d :     0.032629
      dxz     :     0.002637
      dyz     :     0.004334
      dx2y2   :     0.012662
      dxy     :     0.004630
      f0      :     0.000815  f :     0.004243
      f+1     :     0.000680
      f-1     :     0.000393
      f+2     :     0.000833
      f-2     :    -0.000007
      f+3     :     0.000947
      f-3     :     0.000582
  9 H s       :     0.865228  s :     0.865228
      pz      :     0.004349  p :     0.023372
      px      :     0.011694
      py      :     0.007329
 10 H s       :     0.897808  s :     0.897808
      pz      :     0.013559  p :     0.025740
      px      :     0.005101
      py      :     0.007080
 11 H s       :     0.738210  s :     0.738210
      pz      :     0.010481  p :     0.037132
      px      :     0.011528
      py      :     0.015123
 12 H s       :     0.745692  s :     0.745692
      pz      :     0.021128  p :     0.039465
      px      :     0.007796
      py      :     0.010541
 13 F s       :     3.885162  s :     3.885162
      pz      :     1.793092  p :     5.222137
      px      :     1.579332
      py      :     1.849713
      dz2     :     0.002759  d :     0.018480
      dxz     :     0.005578
      dyz     :     0.001303
      dx2y2   :     0.004878
      dxy     :     0.003964
      f0      :     0.000084  f :     0.000831
      f+1     :     0.000167
      f-1     :     0.000012
      f+2     :     0.000181
      f-2     :     0.000100
      f+3     :     0.000150
      f-3     :     0.000136
 14 O s       :     3.797299  s :     3.797299
      pz      :     1.279694  p :     4.529809
      px      :     1.614258
      py      :     1.635857
      dz2     :     0.012135  d :     0.033943
      dxz     :     0.010647
      dyz     :     0.010608
      dx2y2   :     0.000304
      dxy     :     0.000248
      f0      :     0.000670  f :     0.001970
      f+1     :     0.000601
      f-1     :     0.000614
      f+2     :     0.000045
      f-2     :     0.000038
      f+3     :     0.000001
      f-3     :     0.000001
 15 C s       :     3.318272  s :     3.318272
      pz      :     0.953969  p :     2.905450
      px      :     1.071286
      py      :     0.880196
      dz2     :     0.016361  d :     0.084935
      dxz     :     0.017297
      dyz     :     0.017976
      dx2y2   :     0.015024
      dxy     :     0.018278
      f0      :     0.000809  f :     0.005081
      f+1     :     0.000633
      f-1     :     0.000689
      f+2     :     0.001268
      f-2     :     0.000344
      f+3     :     0.000762
      f-3     :     0.000575
 16 C s       :     3.286797  s :     3.286797
      pz      :     0.941488  p :     2.892307
      px      :     0.916998
      py      :     1.033822
      dz2     :     0.015313  d :     0.081942
      dxz     :     0.027233
      dyz     :     0.008950
      dx2y2   :     0.021468
      dxy     :     0.008978
      f0      :     0.000678  f :     0.005077
      f+1     :     0.000998
      f-1     :     0.000481
      f+2     :     0.001288
      f-2     :     0.000551
      f+3     :     0.000456
      f-3     :     0.000626
 17 H s       :     0.813723  s :     0.813723
      pz      :     0.004746  p :     0.020243
      px      :     0.010228
      py      :     0.005269
 18 H s       :     0.836457  s :     0.836457
      pz      :     0.004219  p :     0.019895
      px      :     0.004362
      py      :     0.011314
 19 C s       :     3.274896  s :     3.274896
      pz      :     0.950845  p :     2.874871
      px      :     0.908279
      py      :     1.015748
      dz2     :     0.017416  d :     0.084674
      dxz     :     0.027180
      dyz     :     0.008564
      dx2y2   :     0.022508
      dxy     :     0.009007
      f0      :     0.000616  f :     0.005125
      f+1     :     0.001017
      f-1     :     0.000406
      f+2     :     0.001375
      f-2     :     0.000594
      f+3     :     0.000457
      f-3     :     0.000661
 20 H s       :     0.834557  s :     0.834557
      pz      :     0.005158  p :     0.019863
      px      :     0.009857
      py      :     0.004849
 21 H s       :     0.843187  s :     0.843187
      pz      :     0.008638  p :     0.020123
      px      :     0.007242
      py      :     0.004243
 22 O s       :     3.830409  s :     3.830409
      pz      :     1.617351  p :     4.523886
      px      :     1.411180
      py      :     1.495355
      dz2     :     0.004196  d :     0.032970
      dxz     :     0.005468
      dyz     :     0.005403
      dx2y2   :     0.009131
      dxy     :     0.008773
      f0      :     0.000172  f :     0.001876
      f+1     :     0.000213
      f-1     :     0.000199
      f+2     :     0.000147
      f-2     :     0.000352
      f+3     :     0.000381
      f-3     :     0.000413
 23 H s       :     0.872193  s :     0.872193
      pz      :     0.008033  p :     0.021236
      px      :     0.008829
      py      :     0.004373
 24 H s       :     0.848675  s :     0.848675
      pz      :     0.004463  p :     0.019923
      px      :     0.003927
      py      :     0.011532
 25 H s       :     0.809050  s :     0.809050
      pz      :     0.004545  p :     0.022434
      px      :     0.004014
      py      :     0.013875
 26 H s       :     0.846269  s :     0.846269
      pz      :     0.007487  p :     0.019881
      px      :     0.008211
      py      :     0.004183
 27 H s       :     0.828604  s :     0.828604
      pz      :     0.004017  p :     0.020438
      px      :     0.010831
      py      :     0.005591
 28 H s       :     0.831253  s :     0.831253
      pz      :     0.008086  p :     0.020118
      px      :     0.006598
      py      :     0.005434


                     *******************************
                     * LOEWDIN POPULATION ANALYSIS *
                     *******************************

----------------------
LOEWDIN ATOMIC CHARGES
----------------------
   0 C :   -0.223380
   1 C :   -0.290175
   2 C :   -0.375501
   3 H :    0.140866
   4 H :    0.155818
   5 S :    0.530747
   6 C :   -0.392182
   7 N :   -0.004236
   8 C :   -0.275907
   9 H :    0.108480
  10 H :    0.092635
  11 H :    0.168957
  12 H :    0.161001
  13 F :    0.067179
  14 O :   -0.245138
  15 C :   -0.269352
  16 C :   -0.278619
  17 H :    0.152737
  18 H :    0.150174
  19 C :   -0.279918
  20 H :    0.137639
  21 H :    0.143629
  22 O :   -0.244446
  23 H :    0.131428
  24 H :    0.141513
  25 H :    0.151259
  26 H :    0.143976
  27 H :    0.153734
  28 H :    0.147081

-------------------------------
LOEWDIN REDUCED ORBITAL CHARGES
-------------------------------
  0 C s       :     2.759327  s :     2.759327
      pz      :     1.013930  p :     3.057073
      px      :     1.035173
      py      :     1.007971
      dz2     :     0.079029  d :     0.369286
      dxz     :     0.064965
      dyz     :     0.087457
      dx2y2   :     0.059364
      dxy     :     0.078471
      f0      :     0.006407  f :     0.037694
      f+1     :     0.005263
      f-1     :     0.006336
      f+2     :     0.005637
      f-2     :     0.004622
      f+3     :     0.004641
      f-3     :     0.004788
  1 C s       :     2.774507  s :     2.774507
      pz      :     1.020607  p :     3.084742
      px      :     1.023752
      py      :     1.040382
      dz2     :     0.107044  d :     0.393151
      dxz     :     0.099030
      dyz     :     0.063792
      dx2y2   :     0.081787
      dxy     :     0.041499
      f0      :     0.009036  f :     0.037775
      f+1     :     0.005907
      f-1     :     0.004752
      f+2     :     0.005588
      f-2     :     0.006390
      f+3     :     0.001996
      f-3     :     0.004106
  2 C s       :     2.840167  s :     2.840167
      pz      :     1.079663  p :     3.157101
      px      :     1.078205
      py      :     0.999232
      dz2     :     0.073237  d :     0.347467
      dxz     :     0.057156
      dyz     :     0.076296
      dx2y2   :     0.065341
      dxy     :     0.075436
      f0      :     0.004952  f :     0.030766
      f+1     :     0.004455
      f-1     :     0.004174
      f+2     :     0.003938
      f-2     :     0.005453
      f+3     :     0.003724
      f-3     :     0.004071
  3 H s       :     0.796226  s :     0.796226
      pz      :     0.015626  p :     0.062908
      px      :     0.028316
      py      :     0.018966
  4 H s       :     0.781733  s :     0.781733
      pz      :     0.027354  p :     0.062448
      px      :     0.017245
      py      :     0.017849
  5 S s       :     4.760981  s :     4.760981
      pz      :     2.866148  p :     8.578137
      px      :     2.795977
      py      :     2.916011
      dz2     :     0.383149  d :     1.764792
      dxz     :     0.388365
      dyz     :     0.356479
      dx2y2   :     0.361650
      dxy     :     0.275150
      f0      :     0.045630  f :     0.365344
      f+1     :     0.086077
      f-1     :     0.056759
      f+2     :     0.045683
      f-2     :     0.043399
      f+3     :     0.040613
      f-3     :     0.047185
  6 C s       :     2.707060  s :     2.707060
      pz      :     1.020053  p :     2.877705
      px      :     0.960016
      py      :     0.897636
      dz2     :     0.152832  d :     0.713562
      dxz     :     0.156900
      dyz     :     0.092897
      dx2y2   :     0.179716
      dxy     :     0.131217
      f0      :     0.012812  f :     0.093855
      f+1     :     0.017042
      f-1     :     0.010350
      f+2     :     0.016183
      f-2     :     0.011719
      f+3     :     0.013188
      f-3     :     0.012562
  7 N s       :     2.958949  s :     2.958949
      pz      :     1.139347  p :     3.871781
      px      :     1.312786
      py      :     1.419648
      dz2     :     0.035147  d :     0.160895
      dxz     :     0.045306
      dyz     :     0.019161
      dx2y2   :     0.029851
      dxy     :     0.031430
      f0      :     0.002178  f :     0.012611
      f+1     :     0.001818
      f-1     :     0.000599
      f+2     :     0.001837
      f-2     :     0.001680
      f+3     :     0.002449
      f-3     :     0.002049
  8 C s       :     2.802351  s :     2.802351
      pz      :     1.055134  p :     3.194326
      px      :     1.052913
      py      :     1.086278
      dz2     :     0.096707  d :     0.246911
      dxz     :     0.039949
      dyz     :     0.033556
      dx2y2   :     0.043440
      dxy     :     0.033258
      f0      :     0.005128  f :     0.032319
      f+1     :     0.004723
      f-1     :     0.004640
      f+2     :     0.005060
      f-2     :     0.005565
      f+3     :     0.003890
      f-3     :     0.003313
  9 H s       :     0.818209  s :     0.818209
      pz      :     0.016652  p :     0.073310
      px      :     0.034197
      py      :     0.022462
 10 H s       :     0.829734  s :     0.829734
      pz      :     0.036186  p :     0.077631
      px      :     0.018306
      py      :     0.023139
 11 H s       :     0.725560  s :     0.725560
      pz      :     0.032080  p :     0.105483
      px      :     0.030052
      py      :     0.043351
 12 H s       :     0.728649  s :     0.728649
      pz      :     0.057214  p :     0.110350
      px      :     0.022935
      py      :     0.030202
 13 F s       :     3.656560  s :     3.656560
      pz      :     1.768843  p :     5.237595
      px      :     1.667515
      py      :     1.801237
      dz2     :     0.004644  d :     0.037042
      dxz     :     0.012422
      dyz     :     0.002122
      dx2y2   :     0.011116
      dxy     :     0.006738
      f0      :     0.000195  f :     0.001624
      f+1     :     0.000279
      f-1     :     0.000025
      f+2     :     0.000392
      f-2     :     0.000170
      f+3     :     0.000303
      f-3     :     0.000260
 14 O s       :     3.550063  s :     3.550063
      pz      :     1.474798  p :     4.622169
      px      :     1.564276
      py      :     1.583096
      dz2     :     0.039253  d :     0.068179
      dxz     :     0.012977
      dyz     :     0.014728
      dx2y2   :     0.000645
      dxy     :     0.000576
      f0      :     0.002459  f :     0.004727
      f+1     :     0.000950
      f-1     :     0.001104
      f+2     :     0.000113
      f-2     :     0.000095
      f+3     :     0.000003
      f-3     :     0.000003
 15 C s       :     2.772042  s :     2.772042
      pz      :     1.023496  p :     3.077393
      px      :     1.037869
      py      :     1.016028
      dz2     :     0.068123  d :     0.383319
      dxz     :     0.078803
      dyz     :     0.087222
      dx2y2   :     0.078573
      dxy     :     0.070598
      f0      :     0.006096  f :     0.036598
      f+1     :     0.003710
      f-1     :     0.005672
      f+2     :     0.006488
      f-2     :     0.004081
      f+3     :     0.006053
      f-3     :     0.004498
 16 C s       :     2.766034  s :     2.766034
      pz      :     1.011812  p :     3.086929
      px      :     1.025021
      py      :     1.050096
      dz2     :     0.072858  d :     0.387603
      dxz     :     0.117589
      dyz     :     0.053451
      dx2y2   :     0.099798
      dxy     :     0.043906
      f0      :     0.005969  f :     0.038054
      f+1     :     0.007083
      f-1     :     0.004633
      f+2     :     0.005549
      f-2     :     0.005570
      f+3     :     0.003942
      f-3     :     0.005307
 17 H s       :     0.788837  s :     0.788837
      pz      :     0.014611  p :     0.058426
      px      :     0.027332
      py      :     0.016483
 18 H s       :     0.792197  s :     0.792197
      pz      :     0.013428  p :     0.057629
      px      :     0.013399
      py      :     0.030802
 19 C s       :     2.765377  s :     2.765377
      pz      :     1.022425  p :     3.080855
      px      :     1.032411
      py      :     1.026019
      dz2     :     0.073067  d :     0.395537
      dxz     :     0.121893
      dyz     :     0.054113
      dx2y2   :     0.101956
      dxy     :     0.044508
      f0      :     0.005860  f :     0.038149
      f+1     :     0.007150
      f-1     :     0.004249
      f+2     :     0.005821
      f-2     :     0.005206
      f+3     :     0.004267
      f-3     :     0.005596
 20 H s       :     0.804727  s :     0.804727
      pz      :     0.015085  p :     0.057634
      px      :     0.027515
      py      :     0.015034
 21 H s       :     0.798443  s :     0.798443
      pz      :     0.023240  p :     0.057927
      px      :     0.021488
      py      :     0.013199
 22 O s       :     3.555914  s :     3.555914
      pz      :     1.588531  p :     4.617819
      px      :     1.487634
      py      :     1.541655
      dz2     :     0.008759  d :     0.066227
      dxz     :     0.010362
      dyz     :     0.010055
      dx2y2   :     0.011441
      dxy     :     0.025610
      f0      :     0.000487  f :     0.004485
      f+1     :     0.000420
      f-1     :     0.000431
      f+2     :     0.000236
      f-2     :     0.000994
      f+3     :     0.000926
      f-3     :     0.000991
 23 H s       :     0.809314  s :     0.809314
      pz      :     0.022164  p :     0.059258
      px      :     0.023266
      py      :     0.013828
 24 H s       :     0.801066  s :     0.801066
      pz      :     0.014395  p :     0.057422
      px      :     0.013064
      py      :     0.029962
 25 H s       :     0.785163  s :     0.785163
      pz      :     0.014557  p :     0.063578
      px      :     0.013079
      py      :     0.035942
 26 H s       :     0.798598  s :     0.798598
      pz      :     0.020558  p :     0.057426
      px      :     0.022562
      py      :     0.014306
 27 H s       :     0.788943  s :     0.788943
      pz      :     0.012012  p :     0.057323
      px      :     0.029048
      py      :     0.016263
 28 H s       :     0.794709  s :     0.794709
      pz      :     0.022399  p :     0.058210
      px      :     0.020143
      py      :     0.015668


                      *****************************
                      * MAYER POPULATION ANALYSIS *
                      *****************************

  NA   - Mulliken gross atomic population
  ZA   - Total nuclear charge
  QA   - Mulliken gross atomic charge
  VA   - Mayer's total valence
  BVA  - Mayer's bonded valence
  FA   - Mayer's free valence

  ATOM       NA         ZA         QA         VA         BVA        FA
  0 C      6.2840     6.0000    -0.2840     3.7278     3.7278     0.0000
  1 C      6.2382     6.0000    -0.2382     3.7229     3.7229     0.0000
  2 C      6.3811     6.0000    -0.3811     3.7960     3.7960    -0.0000
  3 H      0.8171     1.0000     0.1829     0.9495     0.9495    -0.0000
  4 H      0.7965     1.0000     0.2035     0.9628     0.9628    -0.0000
  5 S     15.1981    16.0000     0.8019     5.9775     5.9775     0.0000
  6 C      5.8532     6.0000     0.1468     3.5445     3.5445     0.0000
  7 N      7.3592     7.0000    -0.3592     3.0777     3.0777    -0.0000
  8 C      6.4337     6.0000    -0.4337     3.8156     3.8156     0.0000
  9 H      0.8886     1.0000     0.1114     1.0007     1.0007     0.0000
 10 H      0.9235     1.0000     0.0765     1.0207     1.0207     0.0000
 11 H      0.7753     1.0000     0.2247     0.9554     0.9554    -0.0000
 12 H      0.7852     1.0000     0.2148     0.9762     0.9762    -0.0000
 13 F      9.1266     9.0000    -0.1266     1.1918     1.1918     0.0000
 14 O      8.3630     8.0000    -0.3630     2.1569     2.1569     0.0000
 15 C      6.3137     6.0000    -0.3137     3.7472     3.7472     0.0000
 16 C      6.2661     6.0000    -0.2661     3.6075     3.6075     0.0000
 17 H      0.8340     1.0000     0.1660     0.9599     0.9599     0.0000
 18 H      0.8564     1.0000     0.1436     0.9567     0.9567     0.0000
 19 C      6.2396     6.0000    -0.2396     3.5978     3.5978     0.0000
 20 H      0.8544     1.0000     0.1456     0.9533     0.9533     0.0000
 21 H      0.8633     1.0000     0.1367     0.9675     0.9675     0.0000
 22 O      8.3891     8.0000    -0.3891     2.0423     2.0423     0.0000
 23 H      0.8934     1.0000     0.1066     1.0001     1.0001    -0.0000
 24 H      0.8686     1.0000     0.1314     0.9672     0.9672     0.0000
 25 H      0.8315     1.0000     0.1685     0.9918     0.9918     0.0000
 26 H      0.8661     1.0000     0.1339     0.9681     0.9681     0.0000
 27 H      0.8490     1.0000     0.1510     0.9630     0.9630    -0.0000
 28 H      0.8514     1.0000     0.1486     0.9596     0.9596     0.0000

  Mayer bond orders larger than 0.100000
B(  0-C ,  6-C ) :   0.8901 B(  0-C , 15-C ) :   0.8825 B(  0-C , 27-H ) :   0.9889 
B(  0-C , 28-H ) :   0.9927 B(  1-C ,  2-C ) :   0.8955 B(  1-C , 16-C ) :   0.9274 
B(  1-C , 17-H ) :   0.9796 B(  1-C , 18-H ) :   0.9622 B(  2-C ,  3-H ) :   0.9444 
B(  2-C ,  4-H ) :   0.9537 B(  2-C ,  5-S ) :   0.9130 B(  5-S , 13-F ) :   1.0822 
B(  5-S , 14-O ) :   2.0458 B(  5-S , 22-O ) :   1.9005 B(  6-C ,  7-N ) :   1.1195 
B(  6-C ,  8-C ) :   1.6887 B(  7-N , 11-H ) :   0.9388 B(  7-N , 12-H ) :   0.9312 
B(  8-C ,  9-H ) :   1.0279 B(  8-C , 10-H ) :   1.0435 B( 15-C , 19-C ) :   0.9003 
B( 15-C , 20-H ) :   1.0023 B( 15-C , 21-H ) :   0.9776 B( 16-C , 19-C ) :   0.8533 
B( 16-C , 25-H ) :   0.9790 B( 16-C , 26-H ) :   0.9774 B( 19-C , 23-H ) :   0.9865 
B( 19-C , 24-H ) :   0.9826 

-------
TIMINGS
-------

Total SCF time: 0 days 0 hours 0 min 55 sec 

Total time                  ....      55.936 sec
Sum of individual times     ....      54.833 sec  ( 98.0%)

Fock matrix formation       ....      50.446 sec  ( 90.2%)
  Split-RI-J                ....       4.065 sec  (  8.1% of F)
  Chain of spheres X        ....      41.796 sec  ( 82.9% of F)
  XC integration            ....       4.289 sec  (  8.5% of F)
    Basis function eval.    ....       1.154 sec  ( 26.9% of XC)
    Density eval.           ....       1.333 sec  ( 31.1% of XC)
    XC-Functional eval.     ....       0.175 sec  (  4.1% of XC)
    XC-Potential eval.      ....       1.171 sec  ( 27.3% of XC)
Diagonalization             ....       0.646 sec  (  1.2%)
Density matrix formation    ....       0.048 sec  (  0.1%)
Population analysis         ....       0.078 sec  (  0.1%)
Initial guess               ....       0.531 sec  (  0.9%)
Orbital Transformation      ....       0.000 sec  (  0.0%)
Orbital Orthonormalization  ....       0.000 sec  (  0.0%)
DIIS solution               ....       0.349 sec  (  0.6%)
SOSCF solution              ....       0.473 sec  (  0.8%)
Grid generation             ....       2.263 sec  (  4.0%)

Maximum memory used throughout the entire SCF-calculation: 81.2 MB

-------------------------   --------------------
FINAL SINGLE POINT ENERGY     -1016.260843742048
-------------------------   --------------------


                            ***************************************
                            *     ORCA property calculations      *
                            ***************************************

                                    ---------------------
                                    Active property flags
                                    ---------------------
   (+) Dipole Moment


------------------------------------------------------------------------------
                       ORCA ELECTRIC PROPERTIES CALCULATION
------------------------------------------------------------------------------

Dipole Moment Calculation                       ... on
Quadrupole Moment Calculation                   ... off
Polarizability Calculation                      ... off
GBWName                                         ... LC_BLYP_D2_wb97.gbw
Electron density file                           ... LC_BLYP_D2_wb97.scfp
The origin for moment calculation is the CENTER OF MASS  = ( 4.642587, -0.443180 -8.376315)

-------------
DIPOLE MOMENT
-------------
                                X             Y             Z
Electronic contribution:      3.47014      -4.22092     -18.24971
Nuclear contribution   :     -3.13969       6.14743      19.30799
                        -----------------------------------------
Total Dipole Moment    :      0.33045       1.92651       1.05828
                        -----------------------------------------
Magnitude (a.u.)       :      2.22275
Magnitude (Debye)      :      5.64977



--------------------
Rotational spectrum 
--------------------
 
Rotational constants in cm-1:     0.036460     0.018762     0.015014 
Rotational constants in MHz :  1093.039020   562.475626   450.105862 

 Dipole components along the rotational axes: 
x,y,z [a.u.] :     0.824967     1.489141    -1.429158 
x,y,z [Debye]:     2.096899     3.785096    -3.632631 

 

Timings for individual modules:

Sum of individual times         ...       57.540 sec (=   0.959 min)
GTO integral calculation        ...        1.159 sec (=   0.019 min)   2.0 %
SCF iterations                  ...       56.382 sec (=   0.940 min)  98.0 %
                             ****ORCA TERMINATED NORMALLY****
TOTAL RUN TIME: 0 days 0 hours 0 minutes 58 seconds 243 msec
