
                                        *****************
                                        * O   R   C   A *
                                        *****************

                                            #,                                       
                                            ###                                      
                                            ####                                     
                                            #####                                    
                                            ######                                   
                                           ########,                                 
                                     ,,################,,,,,                         
                               ,,#################################,,                 
                          ,,##########################################,,             
                       ,#########################################, ''#####,          
                    ,#############################################,,   '####,        
                  ,##################################################,,,,####,       
                ,###########''''           ''''###############################       
              ,#####''   ,,,,##########,,,,          '''####'''          '####       
            ,##' ,,,,###########################,,,                        '##       
           ' ,,###''''                  '''############,,,                           
         ,,##''                                '''############,,,,        ,,,,,,###''
      ,#''                                            '''#######################'''  
     '                                                          ''''####''''         
             ,#######,   #######,   ,#######,      ##                                
            ,#'     '#,  ##    ##  ,#'     '#,    #''#        ######   ,####,        
            ##       ##  ##   ,#'  ##            #'  '#       #        #'  '#        
            ##       ##  #######   ##           ,######,      #####,   #    #        
            '#,     ,#'  ##    ##  '#,     ,#' ,#      #,         ##   #,  ,#        
             '#######'   ##     ##  '#######'  #'      '#     #####' # '####'        



                  #######################################################
                  #                        -***-                        #
                  #          Department of theory and spectroscopy      #
                  #    Directorship and core code : Frank Neese         #
                  #        Max Planck Institute fuer Kohlenforschung    #
                  #                Kaiser Wilhelm Platz 1               #
                  #                 D-45470 Muelheim/Ruhr               #
                  #                      Germany                        #
                  #                                                     #
                  #                  All rights reserved                #
                  #                        -***-                        #
                  #######################################################


                         Program Version 5.0.0 -  RELEASE  -
                                (SVN: $Rev: 19529$)
                ($Date: 2021-06-28 11:36:33 +0200 (Mo, 28 Jun 2021) $)


 With contributions from (in alphabetic order):
   Daniel Aravena         : Magnetic Suceptibility
   Michael Atanasov       : Ab Initio Ligand Field Theory (pilot matlab implementation)
   Alexander A. Auer      : GIAO ZORA, VPT2 properties, NMR spectrum
   Ute Becker             : Parallelization
   Giovanni Bistoni       : ED, misc. LED, open-shell LED, HFLD
   Martin Brehm           : Molecular dynamics
   Dmytro Bykov           : SCF Hessian
   Vijay G. Chilkuri      : MRCI spin determinant printing, contributions to CSF-ICE
   Dipayan Datta          : RHF DLPNO-CCSD density
   Achintya Kumar Dutta   : EOM-CC, STEOM-CC
   Dmitry Ganyushin       : Spin-Orbit,Spin-Spin,Magnetic field MRCI
   Miquel Garcia          : C-PCM Hessian, Gaussian charge scheme
   Yang Guo               : DLPNO-NEVPT2, F12-NEVPT2, CIM, IAO-localization
   Andreas Hansen         : Spin unrestricted coupled pair/coupled cluster methods
   Benjamin Helmich-Paris : MC-RPA, TRAH-SCF, COSX integrals
   Lee Huntington         : MR-EOM, pCC
   Robert Izsak           : Overlap fitted RIJCOSX, COSX-SCS-MP3, EOM
   Marcus Kettner         : VPT2
   Christian Kollmar      : KDIIS, OOCD, Brueckner-CCSD(T), CCSD density, CASPT2, CASPT2-K
   Simone Kossmann        : Meta GGA functionals, TD-DFT gradient, OOMP2, MP2 Hessian
   Martin Krupicka        : Initial AUTO-CI
   Lucas Lang             : DCDCAS
   Marvin Lechner         : AUTO-CI (C++ implementation), FIC-MRCC
   Dagmar Lenk            : GEPOL surface, SMD
   Dimitrios Liakos       : Extrapolation schemes; Compound Job, initial MDCI parallelization
   Dimitrios Manganas     : Further ROCIS development; embedding schemes
   Dimitrios Pantazis     : SARC Basis sets
   Anastasios Papadopoulos: AUTO-CI, single reference methods and gradients
   Taras Petrenko         : DFT Hessian,TD-DFT gradient, ASA, ECA, R-Raman, ABS, FL, XAS/XES, NRVS
   Peter Pinski           : DLPNO-MP2, DLPNO-MP2 Gradient
   Christoph Reimann      : Effective Core Potentials
   Marius Retegan         : Local ZFS, SOC
   Christoph Riplinger    : Optimizer, TS searches, QM/MM, DLPNO-CCSD(T), (RO)-DLPNO pert. Triples
   Tobias Risthaus        : Range-separated hybrids, TD-DFT gradient, RPA, STAB
   Michael Roemelt        : Original ROCIS implementation
   Masaaki Saitow         : Open-shell DLPNO-CCSD energy and density
   Barbara Sandhoefer     : DKH picture change effects
   Avijit Sen             : IP-ROCIS
   Kantharuban Sivalingam : CASSCF convergence, NEVPT2, FIC-MRCI
   Bernardo de Souza      : ESD, SOC TD-DFT
   Georgi Stoychev        : AutoAux, RI-MP2 NMR
   Willem Van den Heuvel  : Paramagnetic NMR
   Boris Wezisla          : Elementary symmetry handling
   Frank Wennmohs         : Technical directorship


 We gratefully acknowledge several colleagues who have allowed us to
 interface, adapt or use parts of their codes:
   Stefan Grimme, W. Hujo, H. Kruse, P. Pracht,  : VdW corrections, initial TS optimization,
                  C. Bannwarth, S. Ehlert          DFT functionals, gCP, sTDA/sTD-DF
   Ed Valeev, F. Pavosevic, A. Kumar             : LibInt (2-el integral package), F12 methods
   Garnet Chan, S. Sharma, J. Yang, R. Olivares  : DMRG
   Ulf Ekstrom                                   : XCFun DFT Library
   Mihaly Kallay                                 : mrcc  (arbitrary order and MRCC methods)
   Jiri Pittner, Ondrej Demel                    : Mk-CCSD
   Frank Weinhold                                : gennbo (NPA and NBO analysis)
   Christopher J. Cramer and Donald G. Truhlar   : smd solvation model
   Lars Goerigk                                  : TD-DFT with DH, B97 family of functionals
   V. Asgeirsson, H. Jonsson                     : NEB implementation
   FAccTs GmbH                                   : IRC, NEB, NEB-TS, DLPNO-Multilevel, CI-OPT
                                                   MM, QMMM, 2- and 3-layer-ONIOM, Crystal-QMMM,
                                                   LR-CPCM, SF, NACMEs, symmetry and pop. for TD-DFT,
                                                   nearIR, NL-DFT gradient (VV10), updates on ESD,
                                                   ML-optimized integration grids
   S Lehtola, MJT Oliveira, MAL Marques          : LibXC Library
   Liviu Ungur et al                             : ANISO software


 Your calculation uses the libint2 library for the computation of 2-el integrals
 For citations please refer to: http://libint.valeyev.net

 Your ORCA version has been built with support for libXC version: 5.1.0
 For citations please refer to: https://tddft.org/programs/libxc/

 This ORCA versions uses:
   CBLAS   interface :  Fast vector & matrix operations
   LAPACKE interface :  Fast linear algebra routines
   SCALAPACK package :  Parallel linear algebra routines
   Shared memory     :  Shared parallel matrices
   BLAS/LAPACK       :  OpenBLAS 0.3.15  USE64BITINT DYNAMIC_ARCH NO_AFFINITY Haswell SINGLE_THREADED
        Core in use  :  Haswell
   Copyright (c) 2011-2014, The OpenBLAS Project


XCFun DFT library Copyright 2009-2010 Ulf Ekstrom and contributors.
See http://admol.org/xcfun for more information.
This is free software; see the source code for copying conditions.
There is ABSOLUTELY NO WARRANTY; not even for MERCHANTABILITY or FITNESS FOR A PARTICULAR PURPOSE.
For details see the documentation.
Scientific users of this library should cite U. Ekstrom, L. Visscher, R. Bast, A. J. Thorvaldsen and K. Ruud;
J.Chem.Theor.Comp. 2010, DOI: 10.1021/ct100117s
XCFun Version 0.99 

================================================================================

----- Orbital basis set information -----
Your calculation utilizes the basis: def2-TZVPD
   F. Weigend and R. Ahlrichs, Phys. Chem. Chem. Phys. 7, 3297 (2005).
   D. Rappoport and F. Furche, J. Chem. Phys. 133 134105 (2010).

----- AuxJ basis set information -----
Your calculation utilizes the auxiliary basis: def2/J
   F. Weigend, Phys. Chem. Chem. Phys. 8, 1057 (2006).

================================================================================
                                        WARNINGS
                       Please study these warnings very carefully!
================================================================================


INFO   : the flag for use of the SHARK integral package has been found!

================================================================================
                                       INPUT FILE
================================================================================
NAME = TZVPD_CAMB3LYP_A_wt_dlpno_neg.com
|  1> !CAM-B3LYP RIJCOSX def2-TZVPD def2/J TightSCF
|  2> *xyz -1 1 
|  3> C          0.13297        2.38587       -4.02462
|  4> C         -1.36646        2.47911       -4.31393
|  5> C         -2.35773        2.30686       -3.13675
|  6> H         -1.63680        1.72709       -5.06399
|  7> H         -1.58235        3.44561       -4.76869
|  8> O         -3.44376        2.84652       -3.25274
|  9> O         -1.97092        1.58304       -2.15123
| 10> H          0.68084        2.52514       -4.93310
| 11> H          0.35823        1.42282       -3.61633
| 12> H          0.40851        3.14443       -3.32208
| 13> *
| 14> %MaxCore 64000
| 15> 
| 16> %pal nprocs 4
| 17> end  
| 18> 
| 19> %scf
| 20>   MaxIter 150
| 21> end
| 22> 
| 23> 
| 24>                          ****END OF INPUT****
================================================================================

                       ****************************
                       * Single Point Calculation *
                       ****************************

---------------------------------
CARTESIAN COORDINATES (ANGSTROEM)
---------------------------------
  C      0.132970    2.385870   -4.024620
  C     -1.366460    2.479110   -4.313930
  C     -2.357730    2.306860   -3.136750
  H     -1.636800    1.727090   -5.063990
  H     -1.582350    3.445610   -4.768690
  O     -3.443760    2.846520   -3.252740
  O     -1.970920    1.583040   -2.151230
  H      0.680840    2.525140   -4.933100
  H      0.358230    1.422820   -3.616330
  H      0.408510    3.144430   -3.322080

----------------------------
CARTESIAN COORDINATES (A.U.)
----------------------------
  NO LB      ZA    FRAG     MASS         X           Y           Z
   0 C     6.0000    0    12.011    0.251277    4.508641   -7.605430
   1 C     6.0000    0    12.011   -2.582235    4.684839   -8.152146
   2 C     6.0000    0    12.011   -4.455464    4.359334   -5.927598
   3 H     1.0000    0     1.008   -3.093104    3.263727   -9.569554
   4 H     1.0000    0     1.008   -2.990208    6.511259   -9.011518
   5 O     8.0000    0    15.999   -6.507763    5.379143   -6.146788
   6 O     8.0000    0    15.999   -3.724499    2.991512   -4.065236
   7 H     1.0000    0     1.008    1.286601    4.771823   -9.322208
   8 H     1.0000    0     1.008    0.676957    2.688740   -6.833873
   9 H     1.0000    0     1.008    0.771972    5.942112   -6.277821

--------------------------------
INTERNAL COORDINATES (ANGSTROEM)
--------------------------------
 C      0   0   0     0.000000000000     0.00000000     0.00000000
 C      1   0   0     1.529929507722     0.00000000     0.00000000
 C      2   1   0     1.548560308093   118.47882882     0.00000000
 H      2   1   3     1.095996258935   109.22876055   237.73481310
 H      2   1   3     1.089741895909   109.09447516   122.39812450
 O      3   2   1     1.218256030808   116.67932681   153.78014971
 O      3   2   1     1.282492510271   116.99179008   332.02427143
 H      1   2   3     1.069997000089   109.47127642   179.99976211
 H      1   2   3     1.070003782330   109.47129403    59.99965283
 H      1   2   3     1.069999073271   109.47130491   300.00029354

---------------------------
INTERNAL COORDINATES (A.U.)
---------------------------
 C      0   0   0     0.000000000000     0.00000000     0.00000000
 C      1   0   0     2.891147773800     0.00000000     0.00000000
 C      2   1   0     2.926354884156   118.47882882     0.00000000
 H      2   1   3     2.071132773190   109.22876055   237.73481310
 H      2   1   3     2.059313739929   109.09447516   122.39812450
 O      3   2   1     2.302170259225   116.67932681   153.78014971
 O      3   2   1     2.423559613216   116.99179008   332.02427143
 H      1   2   3     2.022001294286   109.47127642   179.99976211
 H      1   2   3     2.022014110863   109.47129403    59.99965283
 H      1   2   3     2.022005212031   109.47130491   300.00029354

---------------------
BASIS SET INFORMATION
---------------------
There are 3 groups of distinct atoms

 Group   1 Type C   : 12s6p3d1f contracted to 6s3p3d1f pattern {621111/411/111/1}
 Group   2 Type H   : 5s2p contracted to 3s2p pattern {311/11}
 Group   3 Type O   : 12s7p3d1f contracted to 6s4p3d1f pattern {621111/4111/111/1}

Atom   0C    basis set group =>   1
Atom   1C    basis set group =>   1
Atom   2C    basis set group =>   1
Atom   3H    basis set group =>   2
Atom   4H    basis set group =>   2
Atom   5O    basis set group =>   3
Atom   6O    basis set group =>   3
Atom   7H    basis set group =>   2
Atom   8H    basis set group =>   2
Atom   9H    basis set group =>   2
---------------------------------
AUXILIARY/J BASIS SET INFORMATION
---------------------------------
There are 3 groups of distinct atoms

 Group   1 Type C   : 12s5p4d2f1g contracted to 6s4p3d1f1g pattern {711111/2111/211/2/1}
 Group   2 Type H   : 5s2p1d contracted to 3s1p1d pattern {311/2/1}
 Group   3 Type O   : 12s5p4d2f1g contracted to 6s4p3d1f1g pattern {711111/2111/211/2/1}

Atom   0C    basis set group =>   1
Atom   1C    basis set group =>   1
Atom   2C    basis set group =>   1
Atom   3H    basis set group =>   2
Atom   4H    basis set group =>   2
Atom   5O    basis set group =>   3
Atom   6O    basis set group =>   3
Atom   7H    basis set group =>   2
Atom   8H    basis set group =>   2
Atom   9H    basis set group =>   2


           ************************************************************
           *        Program running with 4 parallel MPI-processes     *
           *              working on a common directory               *
           ************************************************************
------------------------------------------------------------------------------
                           ORCA GTO INTEGRAL CALCULATION
                           -- RI-GTO INTEGRALS CHOSEN --
------------------------------------------------------------------------------
------------------------------------------------------------------------------
                   ___                                                        
                  /   \      - P O W E R E D   B Y -                         
                 /     \                                                     
                 |  |  |   _    _      __       _____    __    __             
                 |  |  |  | |  | |    /  \     |  _  \  |  |  /  |          
                  \  \/   | |  | |   /    \    | | | |  |  | /  /          
                 / \  \   | |__| |  /  /\  \   | |_| |  |  |/  /          
                |  |  |   |  __  | /  /__\  \  |    /   |      \           
                |  |  |   | |  | | |   __   |  |    \   |  |\   \          
                \     /   | |  | | |  |  |  |  | |\  \  |  | \   \       
                 \___/    |_|  |_| |__|  |__|  |_| \__\ |__|  \__/        
                                                                              
                      - O R C A' S   B I G   F R I E N D -                    
                                      &                                       
                       - I N T E G R A L  F E E D E R -                       
                                                                              
 v1 FN, 2020, v2 2021                                                         
------------------------------------------------------------------------------


Reading SHARK input file TZVPD_CAMB3LYP_A_wt_dlpno_neg.SHARKINP.tmp ... ok
----------------------
SHARK INTEGRAL PACKAGE
----------------------

Number of atoms                             ...     10
Number of basis functions                   ...    236
Number of shells                            ...     92
Maximum angular momentum                    ...      3
Integral batch strategy                     ... SHARK/LIBINT Hybrid
RI-J (if used) integral strategy            ... SPLIT-RIJ (Revised 2003 algorithm where possible)
Printlevel                                  ...      1
Contraction scheme used                     ... SEGMENTED contraction
Coulomb Range Separation                    ... NOT USED
Exchange Range Separation                   ... Long Range
   Mu parameter                             ...  0.330000
   Scaling (regular/separated)              ...  0.190000  0.460000
Finite Nucleus Model                        ... NOT USED
Auxiliary Coulomb fitting basis             ... AVAILABLE
   # of basis functions in Aux-J            ...    300
   # of shells in Aux-J                     ...    100
   Maximum angular momentum in Aux-J        ...      4
Auxiliary J/K fitting basis                 ... NOT available
Auxiliary Correlation fitting basis         ... NOT available
Auxiliary 'external' fitting basis          ... NOT available
Integral threshold                          ...     2.500000e-11
Primitive cut-off                           ...     2.500000e-12
Primitive pair pre-selection threshold      ...     2.500000e-12

Calculating pre-screening integrals         ... done (  0.1 sec) Dimension = 92
Organizing shell pair data                  ... done (  0.0 sec)
Shell pair information
Total number of shell pairs                 ...      4278
Shell pairs after pre-screening             ...      4167
Total number of primitive shell pairs       ...     11003
Primitive shell pairs kept                  ...      8969
          la=0 lb=0:    978 shell pairs
          la=1 lb=0:   1193 shell pairs
          la=1 lb=1:    376 shell pairs
          la=2 lb=0:    659 shell pairs
          la=2 lb=1:    402 shell pairs
          la=2 lb=2:    119 shell pairs
          la=3 lb=0:    216 shell pairs
          la=3 lb=1:    134 shell pairs
          la=3 lb=2:     75 shell pairs
          la=3 lb=3:     15 shell pairs

Calculating one electron integrals          ... done (  0.0 sec)
Calculating RI/J V-Matrix + Cholesky decomp.... done (  0.0 sec)
Calculating Nuclear repulsion               ... done (  0.0 sec) ENN=    168.246782725740 Eh

SHARK setup successfully completed in   0.2 seconds

Maximum memory used throughout the entire GTOINT-calculation: 13.9 MB


           ************************************************************
           *        Program running with 4 parallel MPI-processes     *
           *              working on a common directory               *
           ************************************************************
-------------------------------------------------------------------------------
                                 ORCA SCF
-------------------------------------------------------------------------------

------------
SCF SETTINGS
------------
Hamiltonian:
 Density Functional     Method          .... DFT(GTOs)
 Exchange Functional    Exchange        .... WB88
 Correlation Functional Correlation     .... LYP
 LDA part of GGA corr.  LDAOpt          .... VWN-5
 Gradients option       PostSCFGGA      .... off
 Hybrid DFT is turned on
   Fraction HF Exchange ScalHFX         ....  0.190000
   Scaling of DF-GGA-X  ScalDFX         ....  0.350000
   Scaling of DF-GGA-C  ScalDFC         ....  0.810000
   Scaling of DF-LDA-C  ScalLDAC        ....  1.000000
   Perturbative correction              ....  0.000000
   Density functional embedding theory  .... OFF
 Long-range corrected/Screened/Range-Separated Hybrid DFT is turned on
   Amount of maximum screened exact exchange              ....  0.460000
   Range separation parameter mu (erf(mu*r12)/r12)        ....  0.330000
 RI-approximation to the Coulomb term is turned on
   Number of AuxJ basis functions       .... 300
   RIJ-COSX (HFX calculated with COS-X)).... on


General Settings:
 Integral files         IntName         .... TZVPD_CAMB3LYP_A_wt_dlpno_neg
 Hartree-Fock type      HFTyp           .... RHF
 Total Charge           Charge          ....   -1
 Multiplicity           Mult            ....    1
 Number of Electrons    NEL             ....   40
 Basis Dimension        Dim             ....  236
 Nuclear Repulsion      ENuc            ....    168.2467827257 Eh

Convergence Acceleration:
 DIIS                   CNVDIIS         .... on
   Start iteration      DIISMaxIt       ....    12
   Startup error        DIISStart       ....  0.200000
   # of expansion vecs  DIISMaxEq       ....     5
   Bias factor          DIISBfac        ....   1.050
   Max. coefficient     DIISMaxC        ....  10.000
 Trust-Rad. Augm. Hess. CNVTRAH         .... auto
   Auto Start mean grad. ratio tolernc. ....  1.125000
   Auto Start start iteration           ....    20
   Auto Start num. interpolation iter.  ....    10
   Max. Number of Micro iterations      ....    16
   Max. Number of Macro iterations      .... Maxiter - #DIIS iter
   Number of Davidson start vectors     ....     2
   Converg. threshold I  (grad. norm)   ....   1.000e-05
   Converg. threshold II (energy diff.) ....   1.000e-08
   Grad. Scal. Fac. for Micro threshold ....   0.100
   Minimum threshold for Micro iter.    ....   0.010
   NR start threshold (gradient norm)   ....   0.001
   Initial trust radius                 ....   0.400
   Minimum AH scaling param. (alpha)    ....   1.000
   Maximum AH scaling param. (alpha)    .... 1000.000
   Orbital update algorithm             .... Taylor
   White noise on init. David. guess    .... on
   Maximum white noise                  ....   0.010
   Quad. conv. algorithm                .... NR
 SOSCF                  CNVSOSCF        .... on
   Start iteration      SOSCFMaxIt      ....   150
   Startup grad/error   SOSCFStart      ....  0.003300
 Level Shifting         CNVShift        .... on
   Level shift para.    LevelShift      ....    0.2500
   Turn off err/grad.   ShiftErr        ....    0.0010
 Zerner damping         CNVZerner       .... off
 Static damping         CNVDamp         .... on
   Fraction old density DampFac         ....    0.7000
   Max. Damping (<1)    DampMax         ....    0.9800
   Min. Damping (>=0)   DampMin         ....    0.0000
   Turn off err/grad.   DampErr         ....    0.1000
 Fernandez-Rico         CNVRico         .... off

SCF Procedure:
 Maximum # iterations   MaxIter         ....   150
 SCF integral mode      SCFMode         .... Direct
   Integral package                     .... SHARK and LIBINT hybrid scheme
 Reset frequency        DirectResetFreq ....    20
 Integral Threshold     Thresh          ....  2.500e-11 Eh
 Primitive CutOff       TCut            ....  2.500e-12 Eh

Convergence Tolerance:
 Convergence Check Mode ConvCheckMode   .... Total+1el-Energy
 Convergence forced     ConvForced      .... 0
 Energy Change          TolE            ....  1.000e-08 Eh
 1-El. energy change                    ....  1.000e-05 Eh
 Orbital Gradient       TolG            ....  1.000e-05
 Orbital Rotation angle TolX            ....  1.000e-05
 DIIS Error             TolErr          ....  5.000e-07


Diagonalization of the overlap matrix:
Smallest eigenvalue                        ... 1.041e-05
Time for diagonalization                   ...    0.011 sec
Threshold for overlap eigenvalues          ... 1.000e-08
Number of eigenvalues below threshold      ... 0
Time for construction of square roots      ...    0.009 sec
Total time needed                          ...    0.021 sec

Time for model grid setup =    0.079 sec

------------------------------
INITIAL GUESS: MODEL POTENTIAL
------------------------------
Loading Hartree-Fock densities                     ... done
Calculating cut-offs                               ... done
Initializing the effective Hamiltonian             ... done
Setting up the integral package (SHARK)            ... done
Starting the Coulomb interaction                   ... done (   0.1 sec)
Reading the grid                                   ... done
Mapping shells                                     ... done
Starting the XC term evaluation                    ... done (   0.1 sec)
  promolecular density results
     # of electrons  =     38.997956878
     EX              =    -33.069575100
     EC              =     -1.282321901
     EX+EC           =    -34.351897001
Transforming the Hamiltonian                       ... done (   0.0 sec)
Diagonalizing the Hamiltonian                      ... done (   0.0 sec)
Back transforming the eigenvectors                 ... done (   0.0 sec)
Now organizing SCF variables                       ... done
                      ------------------
                      INITIAL GUESS DONE (   0.3 sec)
                      ------------------
-------------------
DFT GRID GENERATION
-------------------

General Integration Accuracy     IntAcc      ... 4.388
Radial Grid Type                 RadialGrid  ... OptM3 with GC (2021)
Angular Grid (max. ang.)         AngularGrid ... 4 (Lebedev-302)
Angular grid pruning method      GridPruning ... 4 (adaptive)
Weight generation scheme         WeightScheme... Becke
Basis function cutoff            BFCut       ... 1.0000e-11
Integration weight cutoff        WCut        ... 1.0000e-14
Angular grids for H and He will be reduced by one unit
Partially contracted basis set               ... off
Rotationally invariant grid construction     ... off

Total number of grid points                  ...    49026
Total number of batches                      ...      771
Average number of points per batch           ...       63
Average number of grid points per atom       ...     4903
Time for grid setup =    0.340 sec

--------------------
COSX GRID GENERATION
--------------------

GRIDX 1
-------
General Integration Accuracy     IntAcc      ... 3.816
Radial Grid Type                 RadialGrid  ... OptM3 with GC (2021)
Angular Grid (max. ang.)         AngularGrid ... 1 (Lebedev-50)
Angular grid pruning method      GridPruning ... 4 (adaptive)
Weight generation scheme         WeightScheme... Becke
Basis function cutoff            BFCut       ... 1.0000e-11
Integration weight cutoff        WCut        ... 1.0000e-14
Angular grids for H and He will be reduced by one unit
Partially contracted basis set               ... on
Rotationally invariant grid construction     ... off

Total number of grid points                  ...     6176
Total number of batches                      ...      100
Average number of points per batch           ...       61
Average number of grid points per atom       ...      618
UseSFitting                                  ... on

GRIDX 2
-------
General Integration Accuracy     IntAcc      ... 4.020
Radial Grid Type                 RadialGrid  ... OptM3 with GC (2021)
Angular Grid (max. ang.)         AngularGrid ... 2 (Lebedev-110)
Angular grid pruning method      GridPruning ... 4 (adaptive)
Weight generation scheme         WeightScheme... Becke
Basis function cutoff            BFCut       ... 1.0000e-11
Integration weight cutoff        WCut        ... 1.0000e-14
Angular grids for H and He will be reduced by one unit
Partially contracted basis set               ... on
Rotationally invariant grid construction     ... off

Total number of grid points                  ...    15313
Total number of batches                      ...      245
Average number of points per batch           ...       62
Average number of grid points per atom       ...     1531
UseSFitting                                  ... on

GRIDX 3
-------
General Integration Accuracy     IntAcc      ... 4.338
Radial Grid Type                 RadialGrid  ... OptM3 with GC (2021)
Angular Grid (max. ang.)         AngularGrid ... 3 (Lebedev-194)
Angular grid pruning method      GridPruning ... 4 (adaptive)
Weight generation scheme         WeightScheme... Becke
Basis function cutoff            BFCut       ... 1.0000e-11
Integration weight cutoff        WCut        ... 1.0000e-14
Angular grids for H and He will be reduced by one unit
Partially contracted basis set               ... on
Rotationally invariant grid construction     ... off

Total number of grid points                  ...    34064
Total number of batches                      ...      538
Average number of points per batch           ...       63
Average number of grid points per atom       ...     3406
UseSFitting                                  ... on

Time for X-Grid setup             =    0.384 sec

--------------
SCF ITERATIONS
--------------
ITER       Energy         Delta-E        Max-DP      RMS-DP      [F,P]     Damp
               ***  Starting incremental Fock matrix formation  ***
  0   -267.5371359001   0.000000000000 0.10771683  0.00196597  0.3079142 0.7000
  1   -267.6708061153  -0.133670215208 0.07711100  0.00149775  0.1396120 0.7000
                               ***Turning on DIIS***
  2   -267.7273332301  -0.056527114749 0.12229534  0.00303903  0.0528912 0.0000
  3   -267.8166003583  -0.089267128276 0.04805253  0.00080962  0.0832019 0.0000
  4   -267.8348742140  -0.018273855691 0.01927083  0.00028236  0.0113119 0.0000
  5   -267.8355122947  -0.000638080661 0.00370627  0.00010461  0.0060244 0.0000
                      *** Initiating the SOSCF procedure ***
                           *** Shutting down DIIS ***
                      *** Re-Reading the Fockian *** 
                      *** Removing any level shift *** 
ITER      Energy       Delta-E        Grad      Rot      Max-DP    RMS-DP
  6   -267.83558146  -0.0000691624  0.000293  0.000293  0.006197  0.000136
               *** Restarting incremental Fock matrix formation ***
  7   -267.83559965  -0.0000181927  0.000292  0.000689  0.002259  0.000058
  8   -267.83559614   0.0000035049  0.000555  0.000469  0.000535  0.000012
  9   -267.83560198  -0.0000058333  0.000018  0.000060  0.000332  0.000007
 10   -267.83560199  -0.0000000073  0.000024  0.000022  0.000111  0.000003
                  ***Gradient check signals convergence***
              ***Rediagonalizing the Fockian in SOSCF/NRSCF***

               *****************************************************
               *                     SUCCESS                       *
               *           SCF CONVERGED AFTER  11 CYCLES          *
               *****************************************************

Old exchange energy                            =     -9.599513322 Eh
New exchange energy                            =     -9.599511581 Eh
Exchange energy change after final integration =      0.000001741 Eh
Total energy after final integration           =   -267.835600263 Eh
Final COS-X integration done in                =     5.485 sec

----------------
TOTAL SCF ENERGY
----------------

Total Energy       :         -267.83560026 Eh           -7288.17721 eV

Components:
Nuclear Repulsion  :          168.24678273 Eh            4578.22771 eV
Electronic Energy  :         -436.08238299 Eh          -11866.40492 eV
One Electron Energy:         -706.74890606 Eh          -19231.61545 eV
Two Electron Energy:          270.66652307 Eh            7365.21053 eV
Max COSX asymmetry :            0.00000045 Eh               0.00001 eV

Virial components:
Potential Energy   :         -534.67960995 Eh          -14549.37186 eV
Kinetic Energy     :          266.84400969 Eh            7261.19466 eV
Virial Ratio       :            2.00371599


DFT components:
N(Alpha)           :       19.999838356616 electrons
N(Beta)            :       19.999838356616 electrons
N(Total)           :       39.999676713232 electrons
E(XC)              :      -25.904547133738 Eh       
DFET-embed. en.    :        0.000000000000 Eh       

---------------
SCF CONVERGENCE
---------------

  Last Energy change         ...   -1.8376e-08  Tolerance :   1.0000e-08
  Last MAX-Density change    ...    5.2042e-16  Tolerance :   1.0000e-07
  Last RMS-Density change    ...    1.5795e-17  Tolerance :   5.0000e-09
  Last Orbital Gradient      ...    1.7488e-06  Tolerance :   1.0000e-05
  Last Orbital Rotation      ...    2.2593e-06  Tolerance :   1.0000e-05

             **** THE GBW FILE WAS UPDATED (TZVPD_CAMB3LYP_A_wt_dlpno_neg.gbw) ****
             **** DENSITY TZVPD_CAMB3LYP_A_wt_dlpno_neg.scfp WAS UPDATED ****
             **** ENERGY FILE WAS UPDATED (TZVPD_CAMB3LYP_A_wt_dlpno_neg.en.tmp) ****
             **** THE GBW FILE WAS UPDATED (TZVPD_CAMB3LYP_A_wt_dlpno_neg.gbw) ****
             **** DENSITY TZVPD_CAMB3LYP_A_wt_dlpno_neg.scfp WAS UPDATED ****
----------------
ORBITAL ENERGIES
----------------

  NO   OCC          E(Eh)            E(eV) 
   0   2.0000     -18.940205      -515.3892 
   1   2.0000     -18.929956      -515.1103 
   2   2.0000     -10.130900      -275.6758 
   3   2.0000     -10.077107      -274.2120 
   4   2.0000     -10.069890      -274.0156 
   5   2.0000      -0.911028       -24.7903 
   6   2.0000      -0.809023       -22.0146 
   7   2.0000      -0.686180       -18.6719 
   8   2.0000      -0.552441       -15.0327 
   9   2.0000      -0.389029       -10.5860 
  10   2.0000      -0.365339        -9.9414 
  11   2.0000      -0.332726        -9.0539 
  12   2.0000      -0.299440        -8.1482 
  13   2.0000      -0.284897        -7.7524 
  14   2.0000      -0.278824        -7.5872 
  15   2.0000      -0.247173        -6.7259 
  16   2.0000      -0.229444        -6.2435 
  17   2.0000      -0.114000        -3.1021 
  18   2.0000      -0.108314        -2.9474 
  19   2.0000      -0.097155        -2.6437 
  20   0.0000       0.157418         4.2836 
  21   0.0000       0.180094         4.9006 
  22   0.0000       0.192525         5.2389 
  23   0.0000       0.208561         5.6752 
  24   0.0000       0.222677         6.0594 
  25   0.0000       0.232734         6.3330 
  26   0.0000       0.246375         6.7042 
  27   0.0000       0.251316         6.8387 
  28   0.0000       0.255620         6.9558 
  29   0.0000       0.275369         7.4932 
  30   0.0000       0.285669         7.7734 
  31   0.0000       0.288914         7.8617 
  32   0.0000       0.303337         8.2542 
  33   0.0000       0.309826         8.4308 
  34   0.0000       0.318435         8.6651 
  35   0.0000       0.334963         9.1148 
  36   0.0000       0.359285         9.7766 
  37   0.0000       0.366331         9.9684 
  38   0.0000       0.374598        10.1933 
  39   0.0000       0.384495        10.4626 
  40   0.0000       0.395582        10.7643 
  41   0.0000       0.406155        11.0520 
  42   0.0000       0.409840        11.1523 
  43   0.0000       0.425435        11.5767 
  44   0.0000       0.440726        11.9928 
  45   0.0000       0.452319        12.3082 
  46   0.0000       0.461417        12.5558 
  47   0.0000       0.461794        12.5660 
  48   0.0000       0.468064        12.7367 
  49   0.0000       0.476648        12.9703 
  50   0.0000       0.491216        13.3667 
  51   0.0000       0.496674        13.5152 
  52   0.0000       0.505944        13.7674 
  53   0.0000       0.514376        13.9969 
  54   0.0000       0.519649        14.1404 
  55   0.0000       0.525662        14.3040 
  56   0.0000       0.548006        14.9120 
  57   0.0000       0.555224        15.1084 
  58   0.0000       0.562914        15.3177 
  59   0.0000       0.566602        15.4180 
  60   0.0000       0.586385        15.9564 
  61   0.0000       0.594373        16.1737 
  62   0.0000       0.600158        16.3311 
  63   0.0000       0.601823        16.3764 
  64   0.0000       0.621623        16.9152 
  65   0.0000       0.626874        17.0581 
  66   0.0000       0.637572        17.3492 
  67   0.0000       0.654785        17.8176 
  68   0.0000       0.662710        18.0333 
  69   0.0000       0.671668        18.2770 
  70   0.0000       0.704467        19.1695 
  71   0.0000       0.707264        19.2456 
  72   0.0000       0.725288        19.7361 
  73   0.0000       0.734185        19.9782 
  74   0.0000       0.753745        20.5104 
  75   0.0000       0.772255        21.0141 
  76   0.0000       0.787318        21.4240 
  77   0.0000       0.798414        21.7260 
  78   0.0000       0.803495        21.8642 
  79   0.0000       0.824350        22.4317 
  80   0.0000       0.832003        22.6400 
  81   0.0000       0.848959        23.1013 
  82   0.0000       0.859260        23.3817 
  83   0.0000       0.861951        23.4549 
  84   0.0000       0.871223        23.7072 
  85   0.0000       0.876511        23.8511 
  86   0.0000       0.886670        24.1275 
  87   0.0000       0.899321        24.4718 
  88   0.0000       0.903142        24.5757 
  89   0.0000       0.919678        25.0257 
  90   0.0000       0.928607        25.2687 
  91   0.0000       0.930526        25.3209 
  92   0.0000       0.950187        25.8559 
  93   0.0000       0.967736        26.3334 
  94   0.0000       0.986227        26.8366 
  95   0.0000       1.012525        27.5522 
  96   0.0000       1.023914        27.8621 
  97   0.0000       1.062275        28.9060 
  98   0.0000       1.117479        30.4082 
  99   0.0000       1.147317        31.2201 
 100   0.0000       1.157109        31.4865 
 101   0.0000       1.159316        31.5466 
 102   0.0000       1.181597        32.1529 
 103   0.0000       1.196415        32.5561 
 104   0.0000       1.221214        33.2309 
 105   0.0000       1.233825        33.5741 
 106   0.0000       1.269804        34.5531 
 107   0.0000       1.338779        36.4300 
 108   0.0000       1.353929        36.8423 
 109   0.0000       1.402395        38.1611 
 110   0.0000       1.408770        38.3346 
 111   0.0000       1.457445        39.6591 
 112   0.0000       1.470923        40.0258 
 113   0.0000       1.483956        40.3805 
 114   0.0000       1.490917        40.5699 
 115   0.0000       1.534160        41.7466 
 116   0.0000       1.554345        42.2959 
 117   0.0000       1.605498        43.6878 
 118   0.0000       1.619806        44.0772 
 119   0.0000       1.740001        47.3478 
 120   0.0000       1.807533        49.1855 
 121   0.0000       1.861661        50.6584 
 122   0.0000       1.951926        53.1146 
 123   0.0000       1.988098        54.0989 
 124   0.0000       2.012396        54.7601 
 125   0.0000       2.021319        55.0029 
 126   0.0000       2.037715        55.4490 
 127   0.0000       2.047930        55.7270 
 128   0.0000       2.053521        55.8792 
 129   0.0000       2.080019        56.6002 
 130   0.0000       2.085975        56.7623 
 131   0.0000       2.097508        57.0761 
 132   0.0000       2.143382        58.3244 
 133   0.0000       2.156507        58.6815 
 134   0.0000       2.187641        59.5287 
 135   0.0000       2.251494        61.2663 
 136   0.0000       2.274673        61.8970 
 137   0.0000       2.307040        62.7778 
 138   0.0000       2.341640        63.7193 
 139   0.0000       2.365134        64.3586 
 140   0.0000       2.373059        64.5742 
 141   0.0000       2.420838        65.8743 
 142   0.0000       2.498092        67.9765 
 143   0.0000       2.528608        68.8069 
 144   0.0000       2.578160        70.1553 
 145   0.0000       2.604880        70.8824 
 146   0.0000       2.613724        71.1230 
 147   0.0000       2.654059        72.2206 
 148   0.0000       2.710441        73.7549 
 149   0.0000       2.718207        73.9662 
 150   0.0000       2.729890        74.2841 
 151   0.0000       2.765995        75.2665 
 152   0.0000       2.802786        76.2677 
 153   0.0000       2.834457        77.1295 
 154   0.0000       2.862095        77.8816 
 155   0.0000       2.913481        79.2798 
 156   0.0000       2.941739        80.0488 
 157   0.0000       2.961036        80.5739 
 158   0.0000       2.979579        81.0785 
 159   0.0000       3.028884        82.4201 
 160   0.0000       3.054698        83.1226 
 161   0.0000       3.102974        84.4362 
 162   0.0000       3.162467        86.0551 
 163   0.0000       3.192721        86.8784 
 164   0.0000       3.241205        88.1977 
 165   0.0000       3.275251        89.1241 
 166   0.0000       3.357464        91.3612 
 167   0.0000       3.379847        91.9703 
 168   0.0000       3.402166        92.5776 
 169   0.0000       3.429515        93.3218 
 170   0.0000       3.454461        94.0007 
 171   0.0000       3.470810        94.4455 
 172   0.0000       3.495145        95.1077 
 173   0.0000       3.503036        95.3224 
 174   0.0000       3.569673        97.1357 
 175   0.0000       3.588004        97.6345 
 176   0.0000       3.591988        97.7430 
 177   0.0000       3.594390        97.8083 
 178   0.0000       3.668283        99.8191 
 179   0.0000       3.684992       100.2737 
 180   0.0000       3.724139       101.3390 
 181   0.0000       3.744693       101.8983 
 182   0.0000       3.786775       103.0434 
 183   0.0000       3.798049       103.3502 
 184   0.0000       3.823989       104.0560 
 185   0.0000       3.854372       104.8828 
 186   0.0000       3.876332       105.4804 
 187   0.0000       3.892900       105.9312 
 188   0.0000       3.907211       106.3206 
 189   0.0000       3.942327       107.2762 
 190   0.0000       4.038275       109.8870 
 191   0.0000       4.178194       113.6944 
 192   0.0000       4.207394       114.4890 
 193   0.0000       4.225904       114.9927 
 194   0.0000       4.288129       116.6859 
 195   0.0000       4.337690       118.0346 
 196   0.0000       4.471552       121.6771 
 197   0.0000       4.525457       123.1440 
 198   0.0000       4.677161       127.2720 
 199   0.0000       4.724142       128.5504 
 200   0.0000       4.835123       131.5704 
 201   0.0000       4.861956       132.3006 
 202   0.0000       4.915996       133.7711 
 203   0.0000       4.950289       134.7042 
 204   0.0000       5.011373       136.3664 
 205   0.0000       5.155448       140.2869 
 206   0.0000       5.213199       141.8583 
 207   0.0000       5.479361       149.1010 
 208   0.0000       5.514826       150.0660 
 209   0.0000       5.519116       150.1828 
 210   0.0000       5.530772       150.5000 
 211   0.0000       5.672582       154.3588 
 212   0.0000       5.872117       159.7884 
 213   0.0000       5.881612       160.0468 
 214   0.0000       5.963166       162.2660 
 215   0.0000       6.175958       168.0564 
 216   0.0000       6.407076       174.3454 
 217   0.0000       6.470275       176.0651 
 218   0.0000       6.512375       177.2107 
 219   0.0000       6.779995       184.4930 
 220   0.0000       6.810980       185.3362 
 221   0.0000       6.842228       186.1865 
 222   0.0000       6.902182       187.8179 
 223   0.0000       6.913355       188.1219 
 224   0.0000       7.109648       193.4634 
 225   0.0000       7.118386       193.7011 
 226   0.0000       7.214570       196.3184 
 227   0.0000       7.382153       200.8786 
 228   0.0000       7.513218       204.4451 
 229   0.0000       7.557044       205.6376 
 230   0.0000       7.579528       206.2494 
 231   0.0000      22.778252       619.8278 
 232   0.0000      22.860502       622.0659 
 233   0.0000      23.861207       649.2965 
 234   0.0000      44.393153      1207.9991 
 235   0.0000      44.524300      1211.5678 

                    ********************************
                    * MULLIKEN POPULATION ANALYSIS *
                    ********************************

-----------------------
MULLIKEN ATOMIC CHARGES
-----------------------
   0 C :   -0.983350
   1 C :   -0.166477
   2 C :    0.311759
   3 H :    0.185898
   4 H :    0.233427
   5 O :   -0.665977
   6 O :   -0.741564
   7 H :    0.317603
   8 H :    0.248453
   9 H :    0.260228
Sum of atomic charges:   -1.0000000

--------------------------------
MULLIKEN REDUCED ORBITAL CHARGES
--------------------------------
  0 C s       :     3.426712  s :     3.426712
      pz      :     1.244329  p :     3.520594
      px      :     0.993874
      py      :     1.282390
      dz2     :     0.007618  d :     0.032500
      dxz     :     0.015083
      dyz     :     0.026948
      dx2y2   :     0.010827
      dxy     :    -0.027976
      f0      :     0.000289  f :     0.003544
      f+1     :     0.000686
      f-1     :     0.000153
      f+2     :     0.001149
      f-2     :    -0.000002
      f+3     :     0.000484
      f-3     :     0.000786
  1 C s       :     3.140311  s :     3.140311
      pz      :     1.036139  p :     3.052540
      px      :     0.868643
      py      :     1.147758
      dz2     :    -0.008308  d :    -0.031826
      dxz     :    -0.029570
      dyz     :     0.046899
      dx2y2   :     0.013192
      dxy     :    -0.054039
      f0      :     0.000703  f :     0.005452
      f+1     :     0.000997
      f-1     :     0.000277
      f+2     :     0.001524
      f-2     :     0.000380
      f+3     :     0.000605
      f-3     :     0.000967
  2 C s       :     3.158830  s :     3.158830
      pz      :     0.712770  p :     2.156483
      px      :     0.746186
      py      :     0.697527
      dz2     :     0.058292  d :     0.346479
      dxz     :     0.111078
      dyz     :     0.042347
      dx2y2   :     0.081500
      dxy     :     0.053262
      f0      :     0.005064  f :     0.026448
      f+1     :     0.003103
      f-1     :     0.002715
      f+2     :     0.003637
      f-2     :     0.004719
      f+3     :     0.004593
      f-3     :     0.002616
  3 H s       :     0.755924  s :     0.755924
      pz      :     0.017811  p :     0.058179
      px      :     0.017543
      py      :     0.022824
  4 H s       :     0.703917  s :     0.703917
      pz      :     0.014032  p :     0.062656
      px      :     0.016305
      py      :     0.032320
  5 O s       :     3.980808  s :     3.980808
      pz      :     1.775013  p :     4.659003
      px      :     1.350805
      py      :     1.533185
      dz2     :     0.002572  d :     0.024478
      dxz     :     0.005138
      dyz     :     0.001693
      dx2y2   :     0.007414
      dxy     :     0.007660
      f0      :     0.000220  f :     0.001688
      f+1     :     0.000211
      f-1     :     0.000089
      f+2     :     0.000131
      f-2     :     0.000218
      f+3     :     0.000508
      f-3     :     0.000310
  6 O s       :     3.976383  s :     3.976383
      pz      :     1.456821  p :     4.743271
      px      :     1.791804
      py      :     1.494646
      dz2     :     0.005927  d :     0.020431
      dxz     :     0.003664
      dyz     :     0.006055
      dx2y2   :     0.003499
      dxy     :     0.001285
      f0      :     0.000252  f :     0.001480
      f+1     :     0.000216
      f-1     :     0.000308
      f+2     :     0.000284
      f-2     :     0.000264
      f+3     :     0.000069
      f-3     :     0.000086
  7 H s       :     0.619694  s :     0.619694
      pz      :     0.021793  p :     0.062703
      px      :     0.030149
      py      :     0.010761
  8 H s       :     0.675069  s :     0.675069
      pz      :     0.024607  p :     0.076478
      px      :     0.014522
      py      :     0.037349
  9 H s       :     0.669584  s :     0.669584
      pz      :     0.026626  p :     0.070188
      px      :     0.014788
      py      :     0.028775


                     *******************************
                     * LOEWDIN POPULATION ANALYSIS *
                     *******************************

----------------------
LOEWDIN ATOMIC CHARGES
----------------------
   0 C :   -0.141005
   1 C :   -0.209483
   2 C :   -0.779726
   3 H :    0.096003
   4 H :    0.085912
   5 O :   -0.071391
   6 O :   -0.133574
   7 H :    0.042145
   8 H :    0.053283
   9 H :    0.057838

-------------------------------
LOEWDIN REDUCED ORBITAL CHARGES
-------------------------------
  0 C s       :     2.730554  s :     2.730554
      pz      :     0.959828  p :     2.896967
      px      :     0.959407
      py      :     0.977732
      dz2     :     0.049086  d :     0.485988
      dxz     :     0.155858
      dyz     :     0.065744
      dx2y2   :     0.098516
      dxy     :     0.116785
      f0      :     0.002998  f :     0.027495
      f+1     :     0.005745
      f-1     :     0.001488
      f+2     :     0.004912
      f-2     :     0.002122
      f+3     :     0.003935
      f-3     :     0.006294
  1 C s       :     2.687458  s :     2.687458
      pz      :     0.922135  p :     2.761218
      px      :     0.913781
      py      :     0.925302
      dz2     :     0.105030  d :     0.724054
      dxz     :     0.184620
      dyz     :     0.131206
      dx2y2   :     0.169119
      dxy     :     0.134079
      f0      :     0.005384  f :     0.036753
      f+1     :     0.006366
      f-1     :     0.002542
      f+2     :     0.006867
      f-2     :     0.004121
      f+3     :     0.004366
      f-3     :     0.007107
  2 C s       :     2.663333  s :     2.663333
      pz      :     0.836350  p :     2.449658
      px      :     0.874411
      py      :     0.738897
      dz2     :     0.296319  d :     1.504098
      dxz     :     0.404976
      dyz     :     0.231499
      dx2y2   :     0.302007
      dxy     :     0.269296
      f0      :     0.031883  f :     0.162637
      f+1     :     0.019608
      f-1     :     0.018245
      f+2     :     0.020302
      f-2     :     0.028512
      f+3     :     0.026128
      f-3     :     0.017959
  3 H s       :     0.691623  s :     0.691623
      pz      :     0.077656  p :     0.212374
      px      :     0.055362
      py      :     0.079356
  4 H s       :     0.690722  s :     0.690722
      pz      :     0.066733  p :     0.223367
      px      :     0.062685
      py      :     0.093949
  5 O s       :     3.345442  s :     3.345442
      pz      :     1.553453  p :     4.469312
      px      :     1.485934
      py      :     1.429925
      dz2     :     0.025711  d :     0.250435
      dxz     :     0.071915
      dyz     :     0.023119
      dx2y2   :     0.067910
      dxy     :     0.061780
      f0      :     0.000713  f :     0.006202
      f+1     :     0.000951
      f-1     :     0.000291
      f+2     :     0.000465
      f-2     :     0.000828
      f+3     :     0.001329
      f-3     :     0.001624
  6 O s       :     3.382024  s :     3.382024
      pz      :     1.486604  p :     4.515909
      px      :     1.595136
      py      :     1.434169
      dz2     :     0.060415  d :     0.230757
      dxz     :     0.050380
      dyz     :     0.056726
      dx2y2   :     0.028119
      dxy     :     0.035118
      f0      :     0.000674  f :     0.004885
      f+1     :     0.000594
      f-1     :     0.001304
      f+2     :     0.000784
      f-2     :     0.001053
      f+3     :     0.000251
      f-3     :     0.000224
  7 H s       :     0.722421  s :     0.722421
      pz      :     0.097837  p :     0.235435
      px      :     0.072943
      py      :     0.064655
  8 H s       :     0.705599  s :     0.705599
      pz      :     0.073600  p :     0.241118
      px      :     0.064749
      py      :     0.102768
  9 H s       :     0.712308  s :     0.712308
      pz      :     0.083997  p :     0.229854
      px      :     0.060005
      py      :     0.085853


                      *****************************
                      * MAYER POPULATION ANALYSIS *
                      *****************************

  NA   - Mulliken gross atomic population
  ZA   - Total nuclear charge
  QA   - Mulliken gross atomic charge
  VA   - Mayer's total valence
  BVA  - Mayer's bonded valence
  FA   - Mayer's free valence

  ATOM       NA         ZA         QA         VA         BVA        FA
  0 C      6.9833     6.0000    -0.9833     3.5261     3.5261    -0.0000
  1 C      6.1665     6.0000    -0.1665     3.2437     3.2437    -0.0000
  2 C      5.6882     6.0000     0.3118     4.0922     4.0922    -0.0000
  3 H      0.8141     1.0000     0.1859     1.0255     1.0255     0.0000
  4 H      0.7666     1.0000     0.2334     1.0690     1.0690    -0.0000
  5 O      8.6660     8.0000    -0.6660     1.6074     1.6074    -0.0000
  6 O      8.7416     8.0000    -0.7416     1.5020     1.5020     0.0000
  7 H      0.6824     1.0000     0.3176     0.9834     0.9834    -0.0000
  8 H      0.7515     1.0000     0.2485     1.0761     1.0761    -0.0000
  9 H      0.7398     1.0000     0.2602     1.0629     1.0629    -0.0000

  Mayer bond orders larger than 0.100000
B(  0-C ,  1-C ) :   0.5500 B(  0-C ,  7-H ) :   0.9453 B(  0-C ,  8-H ) :   1.0245 
B(  0-C ,  9-H ) :   0.9891 B(  1-C ,  2-C ) :   0.9318 B(  1-C ,  3-H ) :   0.9693 
B(  1-C ,  4-H ) :   1.0003 B(  2-C ,  5-O ) :   1.5421 B(  2-C ,  6-O ) :   1.4702 


-------
TIMINGS
-------

Total SCF time: 0 days 0 hours 0 min 34 sec 

Total time                  ....      34.233 sec
Sum of individual times     ....      34.019 sec  ( 99.4%)

Fock matrix formation       ....      32.811 sec  ( 95.8%)
  Split-RI-J                ....       1.338 sec  (  4.1% of F)
  Chain of spheres X        ....      27.603 sec  ( 84.1% of F)
  XC integration            ....       3.818 sec  ( 11.6% of F)
    Basis function eval.    ....       0.969 sec  ( 25.4% of XC)
    Density eval.           ....       0.898 sec  ( 23.5% of XC)
    XC-Functional eval.     ....       0.422 sec  ( 11.1% of XC)
    XC-Potential eval.      ....       1.407 sec  ( 36.9% of XC)
Diagonalization             ....       0.094 sec  (  0.3%)
Density matrix formation    ....       0.007 sec  (  0.0%)
Population analysis         ....       0.011 sec  (  0.0%)
Initial guess               ....       0.192 sec  (  0.6%)
Orbital Transformation      ....       0.000 sec  (  0.0%)
Orbital Orthonormalization  ....       0.000 sec  (  0.0%)
DIIS solution               ....       0.054 sec  (  0.2%)
SOSCF solution              ....       0.047 sec  (  0.1%)
Grid generation             ....       0.803 sec  (  2.3%)

Maximum memory used throughout the entire SCF-calculation: 70.8 MB

-------------------------   --------------------
FINAL SINGLE POINT ENERGY      -267.835600263183
-------------------------   --------------------


                            ***************************************
                            *     ORCA property calculations      *
                            ***************************************

                                    ---------------------
                                    Active property flags
                                    ---------------------
   (+) Dipole Moment


------------------------------------------------------------------------------
                       ORCA ELECTRIC PROPERTIES CALCULATION
------------------------------------------------------------------------------

Dipole Moment Calculation                       ... on
Quadrupole Moment Calculation                   ... off
Polarizability Calculation                      ... off
GBWName                                         ... TZVPD_CAMB3LYP_A_wt_dlpno_neg.gbw
Electron density file                           ... TZVPD_CAMB3LYP_A_wt_dlpno_neg.scfp
The origin for moment calculation is the CENTER OF MASS  = (-3.402064,  4.380233 -6.366218)

-------------
DIPOLE MOMENT
-------------
                                X             Y             Z
Electronic contribution:     -5.23120      -0.36419       3.17007
Nuclear contribution   :      6.75610       0.63068      -4.53972
                        -----------------------------------------
Total Dipole Moment    :      1.52490       0.26649      -1.36965
                        -----------------------------------------
Magnitude (a.u.)       :      2.06694
Magnitude (Debye)      :      5.25376



--------------------
Rotational spectrum 
--------------------
 
Rotational constants in cm-1:     0.335096     0.130241     0.099025 
Rotational constants in MHz : 10045.924902  3904.536250  2968.708333 

 Dipole components along the rotational axes: 
x,y,z [a.u.] :     1.935348     0.717813     0.106926 
x,y,z [Debye]:     4.919263     1.824536     0.271785 

 

Timings for individual modules:

Sum of individual times         ...       38.715 sec (=   0.645 min)
GTO integral calculation        ...        2.573 sec (=   0.043 min)   6.6 %
SCF iterations                  ...       36.142 sec (=   0.602 min)  93.4 %
                             ****ORCA TERMINATED NORMALLY****
TOTAL RUN TIME: 0 days 0 hours 0 minutes 39 seconds 196 msec
