
                                        *****************
                                        * O   R   C   A *
                                        *****************

                                            #,                                       
                                            ###                                      
                                            ####                                     
                                            #####                                    
                                            ######                                   
                                           ########,                                 
                                     ,,################,,,,,                         
                               ,,#################################,,                 
                          ,,##########################################,,             
                       ,#########################################, ''#####,          
                    ,#############################################,,   '####,        
                  ,##################################################,,,,####,       
                ,###########''''           ''''###############################       
              ,#####''   ,,,,##########,,,,          '''####'''          '####       
            ,##' ,,,,###########################,,,                        '##       
           ' ,,###''''                  '''############,,,                           
         ,,##''                                '''############,,,,        ,,,,,,###''
      ,#''                                            '''#######################'''  
     '                                                          ''''####''''         
             ,#######,   #######,   ,#######,      ##                                
            ,#'     '#,  ##    ##  ,#'     '#,    #''#        ######   ,####,        
            ##       ##  ##   ,#'  ##            #'  '#       #        #'  '#        
            ##       ##  #######   ##           ,######,      #####,   #    #        
            '#,     ,#'  ##    ##  '#,     ,#' ,#      #,         ##   #,  ,#        
             '#######'   ##     ##  '#######'  #'      '#     #####' # '####'        



                  #######################################################
                  #                        -***-                        #
                  #          Department of theory and spectroscopy      #
                  #    Directorship and core code : Frank Neese         #
                  #        Max Planck Institute fuer Kohlenforschung    #
                  #                Kaiser Wilhelm Platz 1               #
                  #                 D-45470 Muelheim/Ruhr               #
                  #                      Germany                        #
                  #                                                     #
                  #                  All rights reserved                #
                  #                        -***-                        #
                  #######################################################


                         Program Version 5.0.0 -  RELEASE  -
                                (SVN: $Rev: 19529$)
                ($Date: 2021-06-28 11:36:33 +0200 (Mo, 28 Jun 2021) $)


 With contributions from (in alphabetic order):
   Daniel Aravena         : Magnetic Suceptibility
   Michael Atanasov       : Ab Initio Ligand Field Theory (pilot matlab implementation)
   Alexander A. Auer      : GIAO ZORA, VPT2 properties, NMR spectrum
   Ute Becker             : Parallelization
   Giovanni Bistoni       : ED, misc. LED, open-shell LED, HFLD
   Martin Brehm           : Molecular dynamics
   Dmytro Bykov           : SCF Hessian
   Vijay G. Chilkuri      : MRCI spin determinant printing, contributions to CSF-ICE
   Dipayan Datta          : RHF DLPNO-CCSD density
   Achintya Kumar Dutta   : EOM-CC, STEOM-CC
   Dmitry Ganyushin       : Spin-Orbit,Spin-Spin,Magnetic field MRCI
   Miquel Garcia          : C-PCM Hessian, Gaussian charge scheme
   Yang Guo               : DLPNO-NEVPT2, F12-NEVPT2, CIM, IAO-localization
   Andreas Hansen         : Spin unrestricted coupled pair/coupled cluster methods
   Benjamin Helmich-Paris : MC-RPA, TRAH-SCF, COSX integrals
   Lee Huntington         : MR-EOM, pCC
   Robert Izsak           : Overlap fitted RIJCOSX, COSX-SCS-MP3, EOM
   Marcus Kettner         : VPT2
   Christian Kollmar      : KDIIS, OOCD, Brueckner-CCSD(T), CCSD density, CASPT2, CASPT2-K
   Simone Kossmann        : Meta GGA functionals, TD-DFT gradient, OOMP2, MP2 Hessian
   Martin Krupicka        : Initial AUTO-CI
   Lucas Lang             : DCDCAS
   Marvin Lechner         : AUTO-CI (C++ implementation), FIC-MRCC
   Dagmar Lenk            : GEPOL surface, SMD
   Dimitrios Liakos       : Extrapolation schemes; Compound Job, initial MDCI parallelization
   Dimitrios Manganas     : Further ROCIS development; embedding schemes
   Dimitrios Pantazis     : SARC Basis sets
   Anastasios Papadopoulos: AUTO-CI, single reference methods and gradients
   Taras Petrenko         : DFT Hessian,TD-DFT gradient, ASA, ECA, R-Raman, ABS, FL, XAS/XES, NRVS
   Peter Pinski           : DLPNO-MP2, DLPNO-MP2 Gradient
   Christoph Reimann      : Effective Core Potentials
   Marius Retegan         : Local ZFS, SOC
   Christoph Riplinger    : Optimizer, TS searches, QM/MM, DLPNO-CCSD(T), (RO)-DLPNO pert. Triples
   Tobias Risthaus        : Range-separated hybrids, TD-DFT gradient, RPA, STAB
   Michael Roemelt        : Original ROCIS implementation
   Masaaki Saitow         : Open-shell DLPNO-CCSD energy and density
   Barbara Sandhoefer     : DKH picture change effects
   Avijit Sen             : IP-ROCIS
   Kantharuban Sivalingam : CASSCF convergence, NEVPT2, FIC-MRCI
   Bernardo de Souza      : ESD, SOC TD-DFT
   Georgi Stoychev        : AutoAux, RI-MP2 NMR
   Willem Van den Heuvel  : Paramagnetic NMR
   Boris Wezisla          : Elementary symmetry handling
   Frank Wennmohs         : Technical directorship


 We gratefully acknowledge several colleagues who have allowed us to
 interface, adapt or use parts of their codes:
   Stefan Grimme, W. Hujo, H. Kruse, P. Pracht,  : VdW corrections, initial TS optimization,
                  C. Bannwarth, S. Ehlert          DFT functionals, gCP, sTDA/sTD-DF
   Ed Valeev, F. Pavosevic, A. Kumar             : LibInt (2-el integral package), F12 methods
   Garnet Chan, S. Sharma, J. Yang, R. Olivares  : DMRG
   Ulf Ekstrom                                   : XCFun DFT Library
   Mihaly Kallay                                 : mrcc  (arbitrary order and MRCC methods)
   Jiri Pittner, Ondrej Demel                    : Mk-CCSD
   Frank Weinhold                                : gennbo (NPA and NBO analysis)
   Christopher J. Cramer and Donald G. Truhlar   : smd solvation model
   Lars Goerigk                                  : TD-DFT with DH, B97 family of functionals
   V. Asgeirsson, H. Jonsson                     : NEB implementation
   FAccTs GmbH                                   : IRC, NEB, NEB-TS, DLPNO-Multilevel, CI-OPT
                                                   MM, QMMM, 2- and 3-layer-ONIOM, Crystal-QMMM,
                                                   LR-CPCM, SF, NACMEs, symmetry and pop. for TD-DFT,
                                                   nearIR, NL-DFT gradient (VV10), updates on ESD,
                                                   ML-optimized integration grids
   S Lehtola, MJT Oliveira, MAL Marques          : LibXC Library
   Liviu Ungur et al                             : ANISO software


 Your calculation uses the libint2 library for the computation of 2-el integrals
 For citations please refer to: http://libint.valeyev.net

 Your ORCA version has been built with support for libXC version: 5.1.0
 For citations please refer to: https://tddft.org/programs/libxc/

 This ORCA versions uses:
   CBLAS   interface :  Fast vector & matrix operations
   LAPACKE interface :  Fast linear algebra routines
   SCALAPACK package :  Parallel linear algebra routines
   Shared memory     :  Shared parallel matrices
   BLAS/LAPACK       :  OpenBLAS 0.3.15  USE64BITINT DYNAMIC_ARCH NO_AFFINITY Haswell SINGLE_THREADED
        Core in use  :  Haswell
   Copyright (c) 2011-2014, The OpenBLAS Project


XCFun DFT library Copyright 2009-2010 Ulf Ekstrom and contributors.
See http://admol.org/xcfun for more information.
This is free software; see the source code for copying conditions.
There is ABSOLUTELY NO WARRANTY; not even for MERCHANTABILITY or FITNESS FOR A PARTICULAR PURPOSE.
For details see the documentation.
Scientific users of this library should cite U. Ekstrom, L. Visscher, R. Bast, A. J. Thorvaldsen and K. Ruud;
J.Chem.Theor.Comp. 2010, DOI: 10.1021/ct100117s
XCFun Version 0.99 

================================================================================

----- Orbital basis set information -----
Your calculation utilizes the basis: def2-SVPD
   F. Weigend and R. Ahlrichs, Phys. Chem. Chem. Phys. 7, 3297 (2005).
   D. Rappoport and F. Furche, J. Chem. Phys. 133 134105 (2010).

----- AuxJ basis set information -----
Your calculation utilizes the auxiliary basis: def2/J
   F. Weigend, Phys. Chem. Chem. Phys. 8, 1057 (2006).

================================================================================
                                        WARNINGS
                       Please study these warnings very carefully!
================================================================================


INFO   : the flag for use of the SHARK integral package has been found!

================================================================================
                                       INPUT FILE
================================================================================
NAME = SVPD_LC_BLYP_C2_wt_dlpno_pos.com
|  1> !LC-BLYP RIJCOSX def2-SVPD def2/J TightSCF
|  2> *xyz 0 1
|  3> C          1.64703       -2.34528       -5.02041
|  4> C          2.20996       -2.81239       -3.66571
|  5> C          2.48901       -1.66851       -2.73754
|  6> N          3.59631       -0.94761       -2.95225
|  7> C          1.66394       -1.41369       -1.77781
|  8> H          0.81164       -1.96318       -1.70275
|  9> H          1.84550       -0.63508       -1.15875
| 10> H          4.20535       -1.17600       -3.73383
| 11> H          3.81723       -0.12585       -2.40604
| 12> H          3.14311       -3.36280       -3.81152
| 13> H          1.48768       -3.45893       -3.16521
| 14> H          1.46566       -3.19589       -5.64368
| 15> H          2.35406       -1.69850       -5.49654
| 16> H          0.73014       -1.81680       -4.86253
| 17> *
| 18> 
| 19> %MaxCore 64000
| 20> %pal nprocs 4
| 21> end  
| 22> 
| 23> %scf
| 24>   MaxIter 150
| 25> end
| 26> 
| 27> 
| 28>                          ****END OF INPUT****
================================================================================

                       ****************************
                       * Single Point Calculation *
                       ****************************

---------------------------------
CARTESIAN COORDINATES (ANGSTROEM)
---------------------------------
  C      1.647030   -2.345280   -5.020410
  C      2.209960   -2.812390   -3.665710
  C      2.489010   -1.668510   -2.737540
  N      3.596310   -0.947610   -2.952250
  C      1.663940   -1.413690   -1.777810
  H      0.811640   -1.963180   -1.702750
  H      1.845500   -0.635080   -1.158750
  H      4.205350   -1.176000   -3.733830
  H      3.817230   -0.125850   -2.406040
  H      3.143110   -3.362800   -3.811520
  H      1.487680   -3.458930   -3.165210
  H      1.465660   -3.195890   -5.643680
  H      2.354060   -1.698500   -5.496540
  H      0.730140   -1.816800   -4.862530

----------------------------
CARTESIAN COORDINATES (A.U.)
----------------------------
  NO LB      ZA    FRAG     MASS         X           Y           Z
   0 C     6.0000    0    12.011    3.112436   -4.431937   -9.487200
   1 C     6.0000    0    12.011    4.176219   -5.314647   -6.927188
   2 C     6.0000    0    12.011    4.703547   -3.153027   -5.173201
   3 N     7.0000    0    14.007    6.796041   -1.790723   -5.578944
   4 C     6.0000    0    12.011    3.144391   -2.671487   -3.359574
   5 H     1.0000    0     1.008    1.533777   -3.709873   -3.217731
   6 H     1.0000    0     1.008    3.487490   -1.200127   -2.189720
   7 H     1.0000    0     1.008    7.946960   -2.222318   -7.055916
   8 H     1.0000    0     1.008    7.213519   -0.237822   -4.546757
   9 H     1.0000    0     1.008    5.939617   -6.354771   -7.202729
  10 H     1.0000    0     1.008    2.811308   -6.536430   -5.981380
  11 H     1.0000    0     1.008    2.769696   -6.039357  -10.665010
  12 H     1.0000    0     1.008    4.448529   -3.209700  -10.386955
  13 H     1.0000    0     1.008    1.379765   -3.433254   -9.188850

--------------------------------
INTERNAL COORDINATES (ANGSTROEM)
--------------------------------
 C      0   0   0     0.000000000000     0.00000000     0.00000000
 C      1   0   0     1.539575924403     0.00000000     0.00000000
 C      2   1   0     1.499276460764   112.41487602     0.00000000
 N      3   2   1     1.338622607048   117.74534069   282.67999189
 C      3   2   1     1.291028818501   119.46262227   102.41240062
 H      5   3   2     1.016852277226   118.93875800   356.56161909
 H      5   3   2     1.011154216378   119.49556415   180.77765573
 H      4   3   2     1.016837750135   119.85311119     0.99564669
 H      4   3   2     1.011158003529   122.12376033   175.86157171
 H      2   1   3     1.093151703425   110.33565258   239.46838079
 H      2   1   3     1.090964078235   109.96279536   119.02208714
 H      1   2   3     1.069999038271   109.47118841   179.99977864
 H      1   2   3     1.070007273901   109.47133769    59.99982829
 H      1   2   3     1.070002092007   109.47146625   300.00005003

---------------------------
INTERNAL COORDINATES (A.U.)
---------------------------
 C      0   0   0     0.000000000000     0.00000000     0.00000000
 C      1   0   0     2.909376859499     0.00000000     0.00000000
 C      2   1   0     2.833221909878   112.41487602     0.00000000
 N      3   2   1     2.529630123996   117.74534069   282.67999189
 C      3   2   1     2.439690897967   119.46262227   102.41240062
 H      5   3   2     1.921572322612   118.93875800   356.56161909
 H      5   3   2     1.910804548115   119.49556415   180.77765573
 H      4   3   2     1.921544870388   119.85311119     0.99564669
 H      4   3   2     1.910811704792   122.12376033   175.86157171
 H      2   1   3     2.065757342302   110.33565258   239.46838079
 H      2   1   3     2.061623329811   109.96279536   119.02208714
 H      1   2   3     2.022005145891   109.47118841   179.99977864
 H      1   2   3     2.022020708976   109.47133769    59.99982829
 H      1   2   3     2.022010916617   109.47146625   300.00005003

---------------------
BASIS SET INFORMATION
---------------------
There are 3 groups of distinct atoms

 Group   1 Type C   : 8s4p2d contracted to 4s2p2d pattern {5111/31/11}
 Group   2 Type N   : 8s4p2d contracted to 4s2p2d pattern {5111/31/11}
 Group   3 Type H   : 4s2p contracted to 2s2p pattern {31/11}

Atom   0C    basis set group =>   1
Atom   1C    basis set group =>   1
Atom   2C    basis set group =>   1
Atom   3N    basis set group =>   2
Atom   4C    basis set group =>   1
Atom   5H    basis set group =>   3
Atom   6H    basis set group =>   3
Atom   7H    basis set group =>   3
Atom   8H    basis set group =>   3
Atom   9H    basis set group =>   3
Atom  10H    basis set group =>   3
Atom  11H    basis set group =>   3
Atom  12H    basis set group =>   3
Atom  13H    basis set group =>   3
---------------------------------
AUXILIARY/J BASIS SET INFORMATION
---------------------------------
There are 3 groups of distinct atoms

 Group   1 Type C   : 12s5p4d2f1g contracted to 6s4p3d1f1g pattern {711111/2111/211/2/1}
 Group   2 Type N   : 12s5p4d2f1g contracted to 6s4p3d1f1g pattern {711111/2111/211/2/1}
 Group   3 Type H   : 5s2p1d contracted to 3s1p1d pattern {311/2/1}

Atom   0C    basis set group =>   1
Atom   1C    basis set group =>   1
Atom   2C    basis set group =>   1
Atom   3N    basis set group =>   2
Atom   4C    basis set group =>   1
Atom   5H    basis set group =>   3
Atom   6H    basis set group =>   3
Atom   7H    basis set group =>   3
Atom   8H    basis set group =>   3
Atom   9H    basis set group =>   3
Atom  10H    basis set group =>   3
Atom  11H    basis set group =>   3
Atom  12H    basis set group =>   3
Atom  13H    basis set group =>   3


           ************************************************************
           *        Program running with 4 parallel MPI-processes     *
           *              working on a common directory               *
           ************************************************************
------------------------------------------------------------------------------
                           ORCA GTO INTEGRAL CALCULATION
                           -- RI-GTO INTEGRALS CHOSEN --
------------------------------------------------------------------------------
------------------------------------------------------------------------------
                   ___                                                        
                  /   \      - P O W E R E D   B Y -                         
                 /     \                                                     
                 |  |  |   _    _      __       _____    __    __             
                 |  |  |  | |  | |    /  \     |  _  \  |  |  /  |          
                  \  \/   | |  | |   /    \    | | | |  |  | /  /          
                 / \  \   | |__| |  /  /\  \   | |_| |  |  |/  /          
                |  |  |   |  __  | /  /__\  \  |    /   |      \           
                |  |  |   | |  | | |   __   |  |    \   |  |\   \          
                \     /   | |  | | |  |  |  |  | |\  \  |  | \   \       
                 \___/    |_|  |_| |__|  |__|  |_| \__\ |__|  \__/        
                                                                              
                      - O R C A' S   B I G   F R I E N D -                    
                                      &                                       
                       - I N T E G R A L  F E E D E R -                       
                                                                              
 v1 FN, 2020, v2 2021                                                         
------------------------------------------------------------------------------


Reading SHARK input file SVPD_LC_BLYP_C2_wt_dlpno_pos.SHARKINP.tmp ... ok
----------------------
SHARK INTEGRAL PACKAGE
----------------------

Number of atoms                             ...     14
Number of basis functions                   ...    172
Number of shells                            ...     76
Maximum angular momentum                    ...      2
Integral batch strategy                     ... SHARK/LIBINT Hybrid
RI-J (if used) integral strategy            ... SPLIT-RIJ (Revised 2003 algorithm where possible)
Printlevel                                  ...      1
Contraction scheme used                     ... SEGMENTED contraction
Coulomb Range Separation                    ... NOT USED
Exchange Range Separation                   ... Long Range
   Mu parameter                             ...  0.330000
   Scaling (regular/separated)              ...  0.000000  1.000000
Finite Nucleus Model                        ... NOT USED
Auxiliary Coulomb fitting basis             ... AVAILABLE
   # of basis functions in Aux-J            ...    344
   # of shells in Aux-J                     ...    120
   Maximum angular momentum in Aux-J        ...      4
Auxiliary J/K fitting basis                 ... NOT available
Auxiliary Correlation fitting basis         ... NOT available
Auxiliary 'external' fitting basis          ... NOT available
Integral threshold                          ...     2.500000e-11
Primitive cut-off                           ...     2.500000e-12
Primitive pair pre-selection threshold      ...     2.500000e-12

Calculating pre-screening integrals         ... done (  0.0 sec) Dimension = 76
Organizing shell pair data                  ... done (  0.0 sec)
Shell pair information
Total number of shell pairs                 ...      2926
Shell pairs after pre-screening             ...      2911
Total number of primitive shell pairs       ...      7842
Primitive shell pairs kept                  ...      6668
          la=0 lb=0:    734 shell pairs
          la=1 lb=0:   1058 shell pairs
          la=1 lb=1:    404 shell pairs
          la=2 lb=0:    380 shell pairs
          la=2 lb=1:    280 shell pairs
          la=2 lb=2:     55 shell pairs

Calculating one electron integrals          ... done (  0.0 sec)
Calculating RI/J V-Matrix + Cholesky decomp.... done (  0.0 sec)
Calculating Nuclear repulsion               ... done (  0.0 sec) ENN=    181.353421613082 Eh

SHARK setup successfully completed in   0.2 seconds

Maximum memory used throughout the entire GTOINT-calculation: 8.9 MB


           ************************************************************
           *        Program running with 4 parallel MPI-processes     *
           *              working on a common directory               *
           ************************************************************
-------------------------------------------------------------------------------
                                 ORCA SCF
-------------------------------------------------------------------------------

------------
SCF SETTINGS
------------
Hamiltonian:
 Density Functional     Method          .... DFT(GTOs)
 Exchange Functional    Exchange        .... WB88
 Correlation Functional Correlation     .... LYP
 Gradients option       PostSCFGGA      .... off
   Density functional embedding theory  .... OFF
 Long-range corrected/Screened/Range-Separated Hybrid DFT is turned on
   Amount of maximum screened exact exchange              ....  1.000000
   Range separation parameter mu (erf(mu*r12)/r12)        ....  0.330000
 RI-approximation to the Coulomb term is turned on
   Number of AuxJ basis functions       .... 344
   RIJ-COSX (HFX calculated with COS-X)).... on


General Settings:
 Integral files         IntName         .... SVPD_LC_BLYP_C2_wt_dlpno_pos
 Hartree-Fock type      HFTyp           .... RHF
 Total Charge           Charge          ....    0
 Multiplicity           Mult            ....    1
 Number of Electrons    NEL             ....   40
 Basis Dimension        Dim             ....  172
 Nuclear Repulsion      ENuc            ....    181.3534216131 Eh

Convergence Acceleration:
 DIIS                   CNVDIIS         .... on
   Start iteration      DIISMaxIt       ....    12
   Startup error        DIISStart       ....  0.200000
   # of expansion vecs  DIISMaxEq       ....     5
   Bias factor          DIISBfac        ....   1.050
   Max. coefficient     DIISMaxC        ....  10.000
 Trust-Rad. Augm. Hess. CNVTRAH         .... auto
   Auto Start mean grad. ratio tolernc. ....  1.125000
   Auto Start start iteration           ....    20
   Auto Start num. interpolation iter.  ....    10
   Max. Number of Micro iterations      ....    16
   Max. Number of Macro iterations      .... Maxiter - #DIIS iter
   Number of Davidson start vectors     ....     2
   Converg. threshold I  (grad. norm)   ....   1.000e-05
   Converg. threshold II (energy diff.) ....   1.000e-08
   Grad. Scal. Fac. for Micro threshold ....   0.100
   Minimum threshold for Micro iter.    ....   0.010
   NR start threshold (gradient norm)   ....   0.001
   Initial trust radius                 ....   0.400
   Minimum AH scaling param. (alpha)    ....   1.000
   Maximum AH scaling param. (alpha)    .... 1000.000
   Orbital update algorithm             .... Taylor
   White noise on init. David. guess    .... on
   Maximum white noise                  ....   0.010
   Quad. conv. algorithm                .... NR
 SOSCF                  CNVSOSCF        .... on
   Start iteration      SOSCFMaxIt      ....   150
   Startup grad/error   SOSCFStart      ....  0.003300
 Level Shifting         CNVShift        .... on
   Level shift para.    LevelShift      ....    0.2500
   Turn off err/grad.   ShiftErr        ....    0.0010
 Zerner damping         CNVZerner       .... off
 Static damping         CNVDamp         .... on
   Fraction old density DampFac         ....    0.7000
   Max. Damping (<1)    DampMax         ....    0.9800
   Min. Damping (>=0)   DampMin         ....    0.0000
   Turn off err/grad.   DampErr         ....    0.1000
 Fernandez-Rico         CNVRico         .... off

SCF Procedure:
 Maximum # iterations   MaxIter         ....   150
 SCF integral mode      SCFMode         .... Direct
   Integral package                     .... SHARK and LIBINT hybrid scheme
 Reset frequency        DirectResetFreq ....    20
 Integral Threshold     Thresh          ....  2.500e-11 Eh
 Primitive CutOff       TCut            ....  2.500e-12 Eh

Convergence Tolerance:
 Convergence Check Mode ConvCheckMode   .... Total+1el-Energy
 Convergence forced     ConvForced      .... 0
 Energy Change          TolE            ....  1.000e-08 Eh
 1-El. energy change                    ....  1.000e-05 Eh
 Orbital Gradient       TolG            ....  1.000e-05
 Orbital Rotation angle TolX            ....  1.000e-05
 DIIS Error             TolErr          ....  5.000e-07


Diagonalization of the overlap matrix:
Smallest eigenvalue                        ... 6.423e-05
Time for diagonalization                   ...    0.008 sec
Threshold for overlap eigenvalues          ... 1.000e-08
Number of eigenvalues below threshold      ... 0
Time for construction of square roots      ...    0.006 sec
Total time needed                          ...    0.015 sec

Time for model grid setup =    0.083 sec

------------------------------
INITIAL GUESS: MODEL POTENTIAL
------------------------------
Loading Hartree-Fock densities                     ... done
Calculating cut-offs                               ... done
Initializing the effective Hamiltonian             ... done
Setting up the integral package (SHARK)            ... done
Starting the Coulomb interaction                   ... done (   0.0 sec)
Reading the grid                                   ... done
Mapping shells                                     ... done
Starting the XC term evaluation                    ... done (   0.1 sec)
  promolecular density results
     # of electrons  =     39.999399916
     EX              =    -29.709276423
     EC              =     -1.298199224
     EX+EC           =    -31.007475648
Transforming the Hamiltonian                       ... done (   0.0 sec)
Diagonalizing the Hamiltonian                      ... done (   0.0 sec)
Back transforming the eigenvectors                 ... done (   0.0 sec)
Now organizing SCF variables                       ... done
                      ------------------
                      INITIAL GUESS DONE (   0.2 sec)
                      ------------------
-------------------
DFT GRID GENERATION
-------------------

General Integration Accuracy     IntAcc      ... 4.388
Radial Grid Type                 RadialGrid  ... OptM3 with GC (2021)
Angular Grid (max. ang.)         AngularGrid ... 4 (Lebedev-302)
Angular grid pruning method      GridPruning ... 4 (adaptive)
Weight generation scheme         WeightScheme... Becke
Basis function cutoff            BFCut       ... 1.0000e-11
Integration weight cutoff        WCut        ... 1.0000e-14
Angular grids for H and He will be reduced by one unit
Partially contracted basis set               ... off
Rotationally invariant grid construction     ... off

Total number of grid points                  ...    60985
Total number of batches                      ...      960
Average number of points per batch           ...       63
Average number of grid points per atom       ...     4356
Time for grid setup =    0.392 sec

--------------------
COSX GRID GENERATION
--------------------

GRIDX 1
-------
General Integration Accuracy     IntAcc      ... 3.816
Radial Grid Type                 RadialGrid  ... OptM3 with GC (2021)
Angular Grid (max. ang.)         AngularGrid ... 1 (Lebedev-50)
Angular grid pruning method      GridPruning ... 4 (adaptive)
Weight generation scheme         WeightScheme... Becke
Basis function cutoff            BFCut       ... 1.0000e-11
Integration weight cutoff        WCut        ... 1.0000e-14
Angular grids for H and He will be reduced by one unit
Partially contracted basis set               ... on
Rotationally invariant grid construction     ... off

Total number of grid points                  ...     7627
Total number of batches                      ...      128
Average number of points per batch           ...       59
Average number of grid points per atom       ...      545
UseSFitting                                  ... on

GRIDX 2
-------
General Integration Accuracy     IntAcc      ... 4.020
Radial Grid Type                 RadialGrid  ... OptM3 with GC (2021)
Angular Grid (max. ang.)         AngularGrid ... 2 (Lebedev-110)
Angular grid pruning method      GridPruning ... 4 (adaptive)
Weight generation scheme         WeightScheme... Becke
Basis function cutoff            BFCut       ... 1.0000e-11
Integration weight cutoff        WCut        ... 1.0000e-14
Angular grids for H and He will be reduced by one unit
Partially contracted basis set               ... on
Rotationally invariant grid construction     ... off

Total number of grid points                  ...    16750
Total number of batches                      ...      270
Average number of points per batch           ...       62
Average number of grid points per atom       ...     1196
UseSFitting                                  ... on

GRIDX 3
-------
General Integration Accuracy     IntAcc      ... 4.338
Radial Grid Type                 RadialGrid  ... OptM3 with GC (2021)
Angular Grid (max. ang.)         AngularGrid ... 3 (Lebedev-194)
Angular grid pruning method      GridPruning ... 4 (adaptive)
Weight generation scheme         WeightScheme... Becke
Basis function cutoff            BFCut       ... 1.0000e-11
Integration weight cutoff        WCut        ... 1.0000e-14
Angular grids for H and He will be reduced by one unit
Partially contracted basis set               ... on
Rotationally invariant grid construction     ... off

Total number of grid points                  ...    38406
Total number of batches                      ...      609
Average number of points per batch           ...       63
Average number of grid points per atom       ...     2743
UseSFitting                                  ... on

Time for X-Grid setup             =    0.355 sec

--------------
SCF ITERATIONS
--------------
ITER       Energy         Delta-E        Max-DP      RMS-DP      [F,P]     Damp
               ***  Starting incremental Fock matrix formation  ***
  0   -211.5894194387   0.000000000000 0.09179063  0.00254988  0.2035544 0.7000
  1   -211.6807779636  -0.091358524848 0.05889477  0.00180388  0.1212818 0.7000
                               ***Turning on DIIS***
  2   -211.7279804415  -0.047202477955 0.09644670  0.00383433  0.0606224 0.0000
  3   -211.8029653027  -0.074984861162 0.05880214  0.00169795  0.0509546 0.0000
  4   -211.8152355648  -0.012270262145 0.01363510  0.00036900  0.0071063 0.0000
  5   -211.8154660126  -0.000230447814 0.00511118  0.00014241  0.0033810 0.0000
                      *** Initiating the SOSCF procedure ***
                           *** Shutting down DIIS ***
                      *** Re-Reading the Fockian *** 
                      *** Removing any level shift *** 
ITER      Energy       Delta-E        Grad      Rot      Max-DP    RMS-DP
  6   -211.81550309  -0.0000370754  0.000582  0.000582  0.002611  0.000088
               *** Restarting incremental Fock matrix formation ***
  7   -211.81550696  -0.0000038767  0.000189  0.000447  0.001115  0.000041
  8   -211.81550777  -0.0000008072  0.000051  0.000316  0.000667  0.000027
  9   -211.81550793  -0.0000001612  0.000021  0.000020  0.000429  0.000012
 10   -211.81550798  -0.0000000441  0.000010  0.000028  0.000076  0.000003
 11   -211.81550798  -0.0000000039  0.000004  0.000009  0.000030  0.000001
                 **** Energy Check signals convergence ****
              ***Rediagonalizing the Fockian in SOSCF/NRSCF***

               *****************************************************
               *                     SUCCESS                       *
               *           SCF CONVERGED AFTER  12 CYCLES          *
               *****************************************************


----------------
TOTAL SCF ENERGY
----------------

Total Energy       :         -211.81550798 Eh           -5763.79300 eV

Components:
Nuclear Repulsion  :          181.35342161 Eh            4934.87749 eV
Electronic Energy  :         -393.16892959 Eh          -10698.67048 eV
One Electron Energy:         -643.77680404 Eh          -17518.05744 eV
Two Electron Energy:          250.60787445 Eh            6819.38695 eV
Max COSX asymmetry :            0.00000631 Eh               0.00017 eV

Virial components:
Potential Energy   :         -421.87705753 Eh          -11479.85836 eV
Kinetic Energy     :          210.06154955 Eh            5716.06536 eV
Virial Ratio       :            2.00834974


DFT components:
N(Alpha)           :       19.999984583558 electrons
N(Beta)            :       19.999984583558 electrons
N(Total)           :       39.999969167117 electrons
E(XC)              :      -24.659110773277 Eh       
DFET-embed. en.    :        0.000000000000 Eh       

---------------
SCF CONVERGENCE
---------------

  Last Energy change         ...    6.0442e-10  Tolerance :   1.0000e-08
  Last MAX-Density change    ...    4.1313e-05  Tolerance :   1.0000e-07
  Last RMS-Density change    ...    1.1375e-06  Tolerance :   5.0000e-09
  Last Orbital Gradient      ...    5.2993e-07  Tolerance :   1.0000e-05
  Last Orbital Rotation      ...    1.7261e-06  Tolerance :   1.0000e-05

             **** THE GBW FILE WAS UPDATED (SVPD_LC_BLYP_C2_wt_dlpno_pos.gbw) ****
             **** DENSITY SVPD_LC_BLYP_C2_wt_dlpno_pos.scfp WAS UPDATED ****
             **** ENERGY FILE WAS UPDATED (SVPD_LC_BLYP_C2_wt_dlpno_pos.en.tmp) ****
             **** THE GBW FILE WAS UPDATED (SVPD_LC_BLYP_C2_wt_dlpno_pos.gbw) ****
             **** DENSITY SVPD_LC_BLYP_C2_wt_dlpno_pos.scfp WAS UPDATED ****
----------------
ORBITAL ENERGIES
----------------

  NO   OCC          E(Eh)            E(eV) 
   0   2.0000     -14.187307      -386.0562 
   1   2.0000     -10.104266      -274.9511 
   2   2.0000     -10.083607      -274.3889 
   3   2.0000     -10.071292      -274.0538 
   4   2.0000     -10.019418      -272.6422 
   5   2.0000      -1.016351       -27.6563 
   6   2.0000      -0.882110       -24.0034 
   7   2.0000      -0.824432       -22.4339 
   8   2.0000      -0.738217       -20.0879 
   9   2.0000      -0.669090       -18.2069 
  10   2.0000      -0.625099       -17.0098 
  11   2.0000      -0.586393       -15.9566 
  12   2.0000      -0.538840       -14.6626 
  13   2.0000      -0.528033       -14.3685 
  14   2.0000      -0.498951       -13.5771 
  15   2.0000      -0.487075       -13.2540 
  16   2.0000      -0.449592       -12.2340 
  17   2.0000      -0.432042       -11.7565 
  18   2.0000      -0.429498       -11.6872 
  19   2.0000      -0.292217        -7.9516 
  20   0.0000       0.070623         1.9217 
  21   0.0000       0.101135         2.7520 
  22   0.0000       0.108735         2.9588 
  23   0.0000       0.111325         3.0293 
  24   0.0000       0.132128         3.5954 
  25   0.0000       0.144148         3.9225 
  26   0.0000       0.153756         4.1839 
  27   0.0000       0.165678         4.5083 
  28   0.0000       0.178989         4.8705 
  29   0.0000       0.193216         5.2577 
  30   0.0000       0.205620         5.5952 
  31   0.0000       0.213173         5.8007 
  32   0.0000       0.219144         5.9632 
  33   0.0000       0.231403         6.2968 
  34   0.0000       0.239356         6.5132 
  35   0.0000       0.261398         7.1130 
  36   0.0000       0.266252         7.2451 
  37   0.0000       0.274284         7.4636 
  38   0.0000       0.299370         8.1463 
  39   0.0000       0.303262         8.2522 
  40   0.0000       0.309067         8.4101 
  41   0.0000       0.321892         8.7591 
  42   0.0000       0.332567         9.0496 
  43   0.0000       0.356410         9.6984 
  44   0.0000       0.368708        10.0331 
  45   0.0000       0.378522        10.3001 
  46   0.0000       0.382735        10.4148 
  47   0.0000       0.390680        10.6309 
  48   0.0000       0.400248        10.8913 
  49   0.0000       0.402640        10.9564 
  50   0.0000       0.407781        11.0963 
  51   0.0000       0.417724        11.3668 
  52   0.0000       0.421271        11.4634 
  53   0.0000       0.435753        11.8574 
  54   0.0000       0.445842        12.1320 
  55   0.0000       0.448876        12.2145 
  56   0.0000       0.450887        12.2693 
  57   0.0000       0.459972        12.5165 
  58   0.0000       0.466442        12.6925 
  59   0.0000       0.479697        13.0532 
  60   0.0000       0.491979        13.3874 
  61   0.0000       0.501782        13.6542 
  62   0.0000       0.506981        13.7957 
  63   0.0000       0.513510        13.9733 
  64   0.0000       0.519581        14.1385 
  65   0.0000       0.521677        14.1955 
  66   0.0000       0.541572        14.7369 
  67   0.0000       0.549743        14.9593 
  68   0.0000       0.558397        15.1948 
  69   0.0000       0.566683        15.4202 
  70   0.0000       0.570219        15.5165 
  71   0.0000       0.582899        15.8615 
  72   0.0000       0.586189        15.9510 
  73   0.0000       0.599200        16.3050 
  74   0.0000       0.605667        16.4810 
  75   0.0000       0.623715        16.9722 
  76   0.0000       0.630152        17.1473 
  77   0.0000       0.639796        17.4097 
  78   0.0000       0.645753        17.5718 
  79   0.0000       0.667467        18.1627 
  80   0.0000       0.676453        18.4072 
  81   0.0000       0.691739        18.8232 
  82   0.0000       0.712068        19.3764 
  83   0.0000       0.725184        19.7333 
  84   0.0000       0.734573        19.9887 
  85   0.0000       0.757749        20.6194 
  86   0.0000       0.774661        21.0796 
  87   0.0000       0.787908        21.4401 
  88   0.0000       0.799906        21.7665 
  89   0.0000       0.849573        23.1181 
  90   0.0000       0.850352        23.1392 
  91   0.0000       0.937834        25.5198 
  92   0.0000       0.961296        26.1582 
  93   0.0000       0.997441        27.1417 
  94   0.0000       1.030504        28.0414 
  95   0.0000       1.036382        28.2014 
  96   0.0000       1.048540        28.5322 
  97   0.0000       1.072648        29.1882 
  98   0.0000       1.084081        29.4993 
  99   0.0000       1.090873        29.6842 
 100   0.0000       1.114350        30.3230 
 101   0.0000       1.132384        30.8137 
 102   0.0000       1.146307        31.1926 
 103   0.0000       1.161772        31.6134 
 104   0.0000       1.189266        32.3616 
 105   0.0000       1.200086        32.6560 
 106   0.0000       1.239814        33.7370 
 107   0.0000       1.262349        34.3503 
 108   0.0000       1.290062        35.1044 
 109   0.0000       1.293299        35.1925 
 110   0.0000       1.314501        35.7694 
 111   0.0000       1.342605        36.5341 
 112   0.0000       1.355748        36.8918 
 113   0.0000       1.378402        37.5082 
 114   0.0000       1.436198        39.0809 
 115   0.0000       1.520356        41.3710 
 116   0.0000       1.573537        42.8181 
 117   0.0000       1.630166        44.3591 
 118   0.0000       1.661068        45.2000 
 119   0.0000       1.704217        46.3741 
 120   0.0000       1.707470        46.4626 
 121   0.0000       1.733796        47.1790 
 122   0.0000       1.757958        47.8365 
 123   0.0000       1.770560        48.1794 
 124   0.0000       1.809397        49.2362 
 125   0.0000       1.880415        51.1687 
 126   0.0000       1.883976        51.2656 
 127   0.0000       1.938852        52.7589 
 128   0.0000       1.958166        53.2844 
 129   0.0000       1.962474        53.4016 
 130   0.0000       1.974349        53.7248 
 131   0.0000       1.999628        54.4127 
 132   0.0000       2.026147        55.1343 
 133   0.0000       2.044920        55.6451 
 134   0.0000       2.072782        56.4033 
 135   0.0000       2.095355        57.0175 
 136   0.0000       2.127037        57.8796 
 137   0.0000       2.156460        58.6803 
 138   0.0000       2.166819        58.9621 
 139   0.0000       2.178312        59.2749 
 140   0.0000       2.205143        60.0050 
 141   0.0000       2.249644        61.2159 
 142   0.0000       2.263661        61.5974 
 143   0.0000       2.271655        61.8149 
 144   0.0000       2.375544        64.6418 
 145   0.0000       2.384265        64.8791 
 146   0.0000       2.392536        65.1042 
 147   0.0000       2.496239        67.9261 
 148   0.0000       2.523804        68.6762 
 149   0.0000       2.527157        68.7674 
 150   0.0000       2.552442        69.4555 
 151   0.0000       2.564528        69.7844 
 152   0.0000       2.621610        71.3376 
 153   0.0000       2.657703        72.3198 
 154   0.0000       2.700564        73.4861 
 155   0.0000       2.719839        74.0106 
 156   0.0000       2.762112        75.1609 
 157   0.0000       2.797646        76.1278 
 158   0.0000       2.849326        77.5341 
 159   0.0000       2.880085        78.3711 
 160   0.0000       2.907792        79.1250 
 161   0.0000       3.055739        83.1509 
 162   0.0000       3.102779        84.4309 
 163   0.0000       3.144108        85.5555 
 164   0.0000       3.183514        86.6278 
 165   0.0000       3.247971        88.3818 
 166   0.0000       3.275567        89.1327 
 167   0.0000       3.356168        91.3260 
 168   0.0000       3.390260        92.2537 
 169   0.0000       3.419596        93.0519 
 170   0.0000       3.621772        98.5534 
 171   0.0000       3.798607       103.3654 

                    ********************************
                    * MULLIKEN POPULATION ANALYSIS *
                    ********************************

-----------------------
MULLIKEN ATOMIC CHARGES
-----------------------
   0 C :    0.890623
   1 C :    0.015709
   2 C :   -0.164585
   3 N :    0.375399
   4 C :    0.518073
   5 H :   -0.227630
   6 H :   -0.501704
   7 H :   -0.158180
   8 H :   -0.224934
   9 H :   -0.152116
  10 H :    0.000341
  11 H :   -0.097781
  12 H :   -0.126196
  13 H :   -0.147019
Sum of atomic charges:   -0.0000000

--------------------------------
MULLIKEN REDUCED ORBITAL CHARGES
--------------------------------
  0 C s       :     2.371802  s :     2.371802
      pz      :     0.938343  p :     2.667476
      px      :     0.878095
      py      :     0.851039
      dz2     :     0.011790  d :     0.070100
      dxz     :     0.025673
      dyz     :     0.054417
      dx2y2   :    -0.013369
      dxy     :    -0.008411
  1 C s       :     2.669249  s :     2.669249
      pz      :     0.987657  p :     2.791403
      px      :     0.822363
      py      :     0.981384
      dz2     :     0.144529  d :     0.523639
      dxz     :     0.091676
      dyz     :     0.135324
      dx2y2   :     0.056826
      dxy     :     0.095283
  2 C s       :     2.754984  s :     2.754984
      pz      :     0.736966  p :     2.493867
      px      :     0.867296
      py      :     0.889606
      dz2     :     0.274307  d :     0.915734
      dxz     :     0.037419
      dyz     :     0.242552
      dx2y2   :     0.136455
      dxy     :     0.225001
  3 N s       :     3.055834  s :     3.055834
      pz      :     1.235320  p :     3.571198
      px      :     1.146165
      py      :     1.189713
      dz2     :     0.000741  d :    -0.002431
      dxz     :     0.001181
      dyz     :    -0.009796
      dx2y2   :     0.001546
      dxy     :     0.003897
  4 C s       :     3.051584  s :     3.051584
      pz      :     0.927061  p :     2.371937
      px      :     0.783297
      py      :     0.661579
      dz2     :     0.021443  d :     0.058406
      dxz     :     0.010063
      dyz     :     0.032054
      dx2y2   :     0.014502
      dxy     :    -0.019655
  5 H s       :     1.238971  s :     1.238971
      pz      :    -0.022691  p :    -0.011341
      px      :     0.023075
      py      :    -0.011724
  6 H s       :     1.485884  s :     1.485884
      pz      :     0.018968  p :     0.015820
      px      :    -0.017568
      py      :     0.014420
  7 H s       :     1.105876  s :     1.105876
      pz      :     0.020542  p :     0.052304
      px      :     0.026179
      py      :     0.005583
  8 H s       :     1.184258  s :     1.184258
      pz      :     0.010784  p :     0.040676
      px      :     0.000882
      py      :     0.029011
  9 H s       :     1.118521  s :     1.118521
      pz      :    -0.034305  p :     0.033595
      px      :     0.042842
      py      :     0.025059
 10 H s       :     0.965570  s :     0.965570
      pz      :     0.024984  p :     0.034090
      px      :    -0.004396
      py      :     0.013502
 11 H s       :     1.094369  s :     1.094369
      pz      :    -0.003176  p :     0.003411
      px      :    -0.046020
      py      :     0.052607
 12 H s       :     1.067403  s :     1.067403
      pz      :     0.006463  p :     0.058792
      px      :     0.053100
      py      :    -0.000771
 13 H s       :     1.087713  s :     1.087713
      pz      :     0.025995  p :     0.059306
      px      :     0.051447
      py      :    -0.018136


                     *******************************
                     * LOEWDIN POPULATION ANALYSIS *
                     *******************************

----------------------
LOEWDIN ATOMIC CHARGES
----------------------
   0 C :    0.123688
   1 C :   -0.043745
   2 C :   -0.282135
   3 N :    0.184333
   4 C :    0.164393
   5 H :   -0.069510
   6 H :   -0.075219
   7 H :   -0.002848
   8 H :    0.000986
   9 H :    0.025630
  10 H :    0.024295
  11 H :   -0.016800
  12 H :   -0.022386
  13 H :   -0.010682

-------------------------------
LOEWDIN REDUCED ORBITAL CHARGES
-------------------------------
  0 C s       :     2.706163  s :     2.706163
      pz      :     0.904127  p :     2.776002
      px      :     0.935349
      py      :     0.936526
      dz2     :     0.086269  d :     0.394147
      dxz     :     0.080482
      dyz     :     0.121832
      dx2y2   :     0.032227
      dxy     :     0.073337
  1 C s       :     2.685326  s :     2.685326
      pz      :     0.893476  p :     2.704588
      px      :     0.910304
      py      :     0.900808
      dz2     :     0.169648  d :     0.653831
      dxz     :     0.126727
      dyz     :     0.165118
      dx2y2   :     0.061480
      dxy     :     0.130858
  2 C s       :     2.660244  s :     2.660244
      pz      :     0.884463  p :     2.580233
      px      :     0.864249
      py      :     0.831521
      dz2     :     0.216116  d :     1.041657
      dxz     :     0.197045
      dyz     :     0.191545
      dx2y2   :     0.223708
      dxy     :     0.213242
  3 N s       :     2.919318  s :     2.919318
      pz      :     1.187013  p :     3.542180
      px      :     1.171295
      py      :     1.183871
      dz2     :     0.037827  d :     0.354170
      dxz     :     0.092850
      dyz     :     0.047755
      dx2y2   :     0.096332
      dxy     :     0.079406
  4 C s       :     2.729890  s :     2.729890
      pz      :     0.930648  p :     2.771049
      px      :     0.927109
      py      :     0.913292
      dz2     :     0.064921  d :     0.334668
      dxz     :     0.066186
      dyz     :     0.084152
      dx2y2   :     0.063051
      dxy     :     0.056358
  5 H s       :     0.753132  s :     0.753132
      pz      :     0.088715  p :     0.316378
      px      :     0.115978
      py      :     0.111685
  6 H s       :     0.766953  s :     0.766953
      pz      :     0.100453  p :     0.308267
      px      :     0.085914
      py      :     0.121900
  7 H s       :     0.654622  s :     0.654622
      pz      :     0.138648  p :     0.348226
      px      :     0.110605
      py      :     0.098973
  8 H s       :     0.657402  s :     0.657402
      pz      :     0.117044  p :     0.341611
      px      :     0.088443
      py      :     0.136125
  9 H s       :     0.724117  s :     0.724117
      pz      :     0.062511  p :     0.250252
      px      :     0.109319
      py      :     0.078422
 10 H s       :     0.712686  s :     0.712686
      pz      :     0.080595  p :     0.263019
      px      :     0.097038
      py      :     0.085386
 11 H s       :     0.738266  s :     0.738266
      pz      :     0.087533  p :     0.278533
      px      :     0.077666
      py      :     0.113334
 12 H s       :     0.736283  s :     0.736283
      pz      :     0.081508  p :     0.286103
      px      :     0.106956
      py      :     0.097640
 13 H s       :     0.733445  s :     0.733445
      pz      :     0.073318  p :     0.277237
      px      :     0.114570
      py      :     0.089349


                      *****************************
                      * MAYER POPULATION ANALYSIS *
                      *****************************

  NA   - Mulliken gross atomic population
  ZA   - Total nuclear charge
  QA   - Mulliken gross atomic charge
  VA   - Mayer's total valence
  BVA  - Mayer's bonded valence
  FA   - Mayer's free valence

  ATOM       NA         ZA         QA         VA         BVA        FA
  0 C      5.1094     6.0000     0.8906     3.7624     3.7624    -0.0000
  1 C      5.9843     6.0000     0.0157     5.0221     5.0221     0.0000
  2 C      6.1646     6.0000    -0.1646     4.8429     4.8429     0.0000
  3 N      6.6246     7.0000     0.3754     4.1134     4.1134    -0.0000
  4 C      5.4819     6.0000     0.5181     3.4946     3.4946    -0.0000
  5 H      1.2276     1.0000    -0.2276     0.9273     0.9273    -0.0000
  6 H      1.5017     1.0000    -0.5017     0.8206     0.8206    -0.0000
  7 H      1.1582     1.0000    -0.1582     0.9453     0.9453    -0.0000
  8 H      1.2249     1.0000    -0.2249     0.9304     0.9304     0.0000
  9 H      1.1521     1.0000    -0.1521     1.1366     1.1366    -0.0000
 10 H      0.9997     1.0000     0.0003     1.0099     1.0099    -0.0000
 11 H      1.0978     1.0000    -0.0978     0.9876     0.9876    -0.0000
 12 H      1.1262     1.0000    -0.1262     1.0917     1.0917    -0.0000
 13 H      1.1470     1.0000    -0.1470     1.0843     1.0843    -0.0000

  Mayer bond orders larger than 0.100000
B(  0-C ,  1-C ) :   1.2172 B(  0-C , 11-H ) :   0.7751 B(  0-C , 12-H ) :   0.7361 
B(  0-C , 13-H ) :   0.8005 B(  1-C ,  2-C ) :   1.2299 B(  1-C ,  3-N ) :   0.1126 
B(  1-C ,  4-C ) :   0.1940 B(  1-C ,  9-H ) :   0.8156 B(  1-C , 10-H ) :   0.8153 
B(  1-C , 11-H ) :   0.1946 B(  1-C , 12-H ) :   0.2370 B(  1-C , 13-H ) :   0.1937 
B(  2-C ,  3-N ) :   1.2789 B(  2-C ,  4-C ) :   1.6355 B(  2-C ,  6-H ) :   0.2650 
B(  2-C ,  9-H ) :   0.1840 B(  2-C , 10-H ) :   0.2085 B(  3-N ,  4-C ) :   0.2610 
B(  3-N ,  7-H ) :   1.1322 B(  3-N ,  8-H ) :   1.2281 B(  4-C ,  5-H ) :   0.9232 
B(  4-C ,  6-H ) :   0.5337 B(  7-H ,  8-H ) :  -0.1600 

-------
TIMINGS
-------

Total SCF time: 0 days 0 hours 0 min 20 sec 

Total time                  ....      20.488 sec
Sum of individual times     ....      20.233 sec  ( 98.8%)

Fock matrix formation       ....      19.134 sec  ( 93.4%)
  Split-RI-J                ....       0.892 sec  (  4.7% of F)
  Chain of spheres X        ....      14.851 sec  ( 77.6% of F)
  XC integration            ....       3.355 sec  ( 17.5% of F)
    Basis function eval.    ....       1.099 sec  ( 32.8% of XC)
    Density eval.           ....       0.763 sec  ( 22.7% of XC)
    XC-Functional eval.     ....       0.336 sec  ( 10.0% of XC)
    XC-Potential eval.      ....       1.003 sec  ( 29.9% of XC)
Diagonalization             ....       0.065 sec  (  0.3%)
Density matrix formation    ....       0.004 sec  (  0.0%)
Population analysis         ....       0.007 sec  (  0.0%)
Initial guess               ....       0.132 sec  (  0.6%)
Orbital Transformation      ....       0.000 sec  (  0.0%)
Orbital Orthonormalization  ....       0.000 sec  (  0.0%)
DIIS solution               ....       0.032 sec  (  0.2%)
SOSCF solution              ....       0.030 sec  (  0.1%)
Grid generation             ....       0.829 sec  (  4.0%)

Maximum memory used throughout the entire SCF-calculation: 21.9 MB

-------------------------   --------------------
FINAL SINGLE POINT ENERGY      -211.815507980559
-------------------------   --------------------


                            ***************************************
                            *     ORCA property calculations      *
                            ***************************************

                                    ---------------------
                                    Active property flags
                                    ---------------------
   (+) Dipole Moment


------------------------------------------------------------------------------
                       ORCA ELECTRIC PROPERTIES CALCULATION
------------------------------------------------------------------------------

Dipole Moment Calculation                       ... on
Quadrupole Moment Calculation                   ... off
Polarizability Calculation                      ... off
GBWName                                         ... SVPD_LC_BLYP_C2_wt_dlpno_pos.gbw
Electron density file                           ... SVPD_LC_BLYP_C2_wt_dlpno_pos.scfp
The origin for moment calculation is the CENTER OF MASS  = ( 4.426538, -3.449156 -6.168232)

-------------
DIPOLE MOMENT
-------------
                                X             Y             Z
Electronic contribution:      1.63619       1.06813       2.00557
Nuclear contribution   :     -1.13902      -0.93906      -2.44135
                        -----------------------------------------
Total Dipole Moment    :      0.49717       0.12906      -0.43578
                        -----------------------------------------
Magnitude (a.u.)       :      0.67360
Magnitude (Debye)      :      1.71216



--------------------
Rotational spectrum 
--------------------
 
Rotational constants in cm-1:     0.267243     0.130607     0.102304 
Rotational constants in MHz :  8011.748167  3915.504600  3066.999841 

 Dipole components along the rotational axes: 
x,y,z [a.u.] :    -0.157872     0.654822     0.004995 
x,y,z [Debye]:    -0.401280     1.664425     0.012696 

 

Timings for individual modules:

Sum of individual times         ...       24.891 sec (=   0.415 min)
GTO integral calculation        ...        2.546 sec (=   0.042 min)  10.2 %
SCF iterations                  ...       22.345 sec (=   0.372 min)  89.8 %
                             ****ORCA TERMINATED NORMALLY****
TOTAL RUN TIME: 0 days 0 hours 0 minutes 25 seconds 366 msec
