
                                        *****************
                                        * O   R   C   A *
                                        *****************

                                            #,                                       
                                            ###                                      
                                            ####                                     
                                            #####                                    
                                            ######                                   
                                           ########,                                 
                                     ,,################,,,,,                         
                               ,,#################################,,                 
                          ,,##########################################,,             
                       ,#########################################, ''#####,          
                    ,#############################################,,   '####,        
                  ,##################################################,,,,####,       
                ,###########''''           ''''###############################       
              ,#####''   ,,,,##########,,,,          '''####'''          '####       
            ,##' ,,,,###########################,,,                        '##       
           ' ,,###''''                  '''############,,,                           
         ,,##''                                '''############,,,,        ,,,,,,###''
      ,#''                                            '''#######################'''  
     '                                                          ''''####''''         
             ,#######,   #######,   ,#######,      ##                                
            ,#'     '#,  ##    ##  ,#'     '#,    #''#        ######   ,####,        
            ##       ##  ##   ,#'  ##            #'  '#       #        #'  '#        
            ##       ##  #######   ##           ,######,      #####,   #    #        
            '#,     ,#'  ##    ##  '#,     ,#' ,#      #,         ##   #,  ,#        
             '#######'   ##     ##  '#######'  #'      '#     #####' # '####'        



                  #######################################################
                  #                        -***-                        #
                  #          Department of theory and spectroscopy      #
                  #    Directorship and core code : Frank Neese         #
                  #        Max Planck Institute fuer Kohlenforschung    #
                  #                Kaiser Wilhelm Platz 1               #
                  #                 D-45470 Muelheim/Ruhr               #
                  #                      Germany                        #
                  #                                                     #
                  #                  All rights reserved                #
                  #                        -***-                        #
                  #######################################################


                         Program Version 5.0.0 -  RELEASE  -
                                (SVN: $Rev: 19529$)
                ($Date: 2021-06-28 11:36:33 +0200 (Mo, 28 Jun 2021) $)


 With contributions from (in alphabetic order):
   Daniel Aravena         : Magnetic Suceptibility
   Michael Atanasov       : Ab Initio Ligand Field Theory (pilot matlab implementation)
   Alexander A. Auer      : GIAO ZORA, VPT2 properties, NMR spectrum
   Ute Becker             : Parallelization
   Giovanni Bistoni       : ED, misc. LED, open-shell LED, HFLD
   Martin Brehm           : Molecular dynamics
   Dmytro Bykov           : SCF Hessian
   Vijay G. Chilkuri      : MRCI spin determinant printing, contributions to CSF-ICE
   Dipayan Datta          : RHF DLPNO-CCSD density
   Achintya Kumar Dutta   : EOM-CC, STEOM-CC
   Dmitry Ganyushin       : Spin-Orbit,Spin-Spin,Magnetic field MRCI
   Miquel Garcia          : C-PCM Hessian, Gaussian charge scheme
   Yang Guo               : DLPNO-NEVPT2, F12-NEVPT2, CIM, IAO-localization
   Andreas Hansen         : Spin unrestricted coupled pair/coupled cluster methods
   Benjamin Helmich-Paris : MC-RPA, TRAH-SCF, COSX integrals
   Lee Huntington         : MR-EOM, pCC
   Robert Izsak           : Overlap fitted RIJCOSX, COSX-SCS-MP3, EOM
   Marcus Kettner         : VPT2
   Christian Kollmar      : KDIIS, OOCD, Brueckner-CCSD(T), CCSD density, CASPT2, CASPT2-K
   Simone Kossmann        : Meta GGA functionals, TD-DFT gradient, OOMP2, MP2 Hessian
   Martin Krupicka        : Initial AUTO-CI
   Lucas Lang             : DCDCAS
   Marvin Lechner         : AUTO-CI (C++ implementation), FIC-MRCC
   Dagmar Lenk            : GEPOL surface, SMD
   Dimitrios Liakos       : Extrapolation schemes; Compound Job, initial MDCI parallelization
   Dimitrios Manganas     : Further ROCIS development; embedding schemes
   Dimitrios Pantazis     : SARC Basis sets
   Anastasios Papadopoulos: AUTO-CI, single reference methods and gradients
   Taras Petrenko         : DFT Hessian,TD-DFT gradient, ASA, ECA, R-Raman, ABS, FL, XAS/XES, NRVS
   Peter Pinski           : DLPNO-MP2, DLPNO-MP2 Gradient
   Christoph Reimann      : Effective Core Potentials
   Marius Retegan         : Local ZFS, SOC
   Christoph Riplinger    : Optimizer, TS searches, QM/MM, DLPNO-CCSD(T), (RO)-DLPNO pert. Triples
   Tobias Risthaus        : Range-separated hybrids, TD-DFT gradient, RPA, STAB
   Michael Roemelt        : Original ROCIS implementation
   Masaaki Saitow         : Open-shell DLPNO-CCSD energy and density
   Barbara Sandhoefer     : DKH picture change effects
   Avijit Sen             : IP-ROCIS
   Kantharuban Sivalingam : CASSCF convergence, NEVPT2, FIC-MRCI
   Bernardo de Souza      : ESD, SOC TD-DFT
   Georgi Stoychev        : AutoAux, RI-MP2 NMR
   Willem Van den Heuvel  : Paramagnetic NMR
   Boris Wezisla          : Elementary symmetry handling
   Frank Wennmohs         : Technical directorship


 We gratefully acknowledge several colleagues who have allowed us to
 interface, adapt or use parts of their codes:
   Stefan Grimme, W. Hujo, H. Kruse, P. Pracht,  : VdW corrections, initial TS optimization,
                  C. Bannwarth, S. Ehlert          DFT functionals, gCP, sTDA/sTD-DF
   Ed Valeev, F. Pavosevic, A. Kumar             : LibInt (2-el integral package), F12 methods
   Garnet Chan, S. Sharma, J. Yang, R. Olivares  : DMRG
   Ulf Ekstrom                                   : XCFun DFT Library
   Mihaly Kallay                                 : mrcc  (arbitrary order and MRCC methods)
   Jiri Pittner, Ondrej Demel                    : Mk-CCSD
   Frank Weinhold                                : gennbo (NPA and NBO analysis)
   Christopher J. Cramer and Donald G. Truhlar   : smd solvation model
   Lars Goerigk                                  : TD-DFT with DH, B97 family of functionals
   V. Asgeirsson, H. Jonsson                     : NEB implementation
   FAccTs GmbH                                   : IRC, NEB, NEB-TS, DLPNO-Multilevel, CI-OPT
                                                   MM, QMMM, 2- and 3-layer-ONIOM, Crystal-QMMM,
                                                   LR-CPCM, SF, NACMEs, symmetry and pop. for TD-DFT,
                                                   nearIR, NL-DFT gradient (VV10), updates on ESD,
                                                   ML-optimized integration grids
   S Lehtola, MJT Oliveira, MAL Marques          : LibXC Library
   Liviu Ungur et al                             : ANISO software


 Your calculation uses the libint2 library for the computation of 2-el integrals
 For citations please refer to: http://libint.valeyev.net

 Your ORCA version has been built with support for libXC version: 5.1.0
 For citations please refer to: https://tddft.org/programs/libxc/

 This ORCA versions uses:
   CBLAS   interface :  Fast vector & matrix operations
   LAPACKE interface :  Fast linear algebra routines
   SCALAPACK package :  Parallel linear algebra routines
   Shared memory     :  Shared parallel matrices
   BLAS/LAPACK       :  OpenBLAS 0.3.15  USE64BITINT DYNAMIC_ARCH NO_AFFINITY Haswell SINGLE_THREADED
        Core in use  :  Haswell
   Copyright (c) 2011-2014, The OpenBLAS Project




***************************************
The coordinates will be read from file: D2.xyz
***************************************


================================================================================

----- Orbital basis set information -----
Your calculation utilizes the basis: def2-TZVP
   F. Weigend and R. Ahlrichs, Phys. Chem. Chem. Phys. 7, 3297 (2005).

----- AuxJ basis set information -----
Your calculation utilizes the auxiliary basis: def2/J
   F. Weigend, Phys. Chem. Chem. Phys. 8, 1057 (2006).

================================================================================
                                        WARNINGS
                       Please study these warnings very carefully!
================================================================================


INFO   : the flag for use of the SHARK integral package has been found!

================================================================================
                                       INPUT FILE
================================================================================
NAME = LC_PBE_D2_wb97.com
|  1> !LC-PBE RIJCOSX def2-TZVP def2/J TightSCF xyzfile                                                                                         
|  2> 
|  3> *xyzfile 0 1 D2.xyz
|  4> 
|  5> %MaxCore 64000
|  6> 
|  7> %pal nprocs 18                                                                                                                                                  
|  8> end  
|  9> 
| 10> %scf
| 11>   MaxIter 150
| 12> end
| 13> 
| 14> 
| 15>                          ****END OF INPUT****
================================================================================

                       ****************************
                       * Single Point Calculation *
                       ****************************

---------------------------------
CARTESIAN COORDINATES (ANGSTROEM)
---------------------------------
  C      2.234473   -2.989754   -2.397622
  N      2.756799   -2.945553   -3.765029
  C     -1.104325    0.251374   -2.860056
  C     -0.711893    0.842517   -4.218344
  H      0.154626    1.499800   -4.130909
  H     -1.538134    1.459222   -4.582671
  C     -0.397624   -0.205875   -5.288018
  C      1.987208   -2.590451   -4.818975
  C      0.743221   -3.017493   -4.913524
  N      2.499636   -1.848598   -5.803241
  H      3.309780   -1.292818   -5.558947
  H      1.801025   -1.304298   -6.289129
  H      3.716116   -2.628797   -3.829533
  H      0.395828   -3.627747   -4.185024
  H      0.039201   -2.454383   -5.371367
  F      0.617165   -0.005348   -5.998273
  O     -1.133173   -1.221380   -5.341465
  C      2.191199   -1.619503   -1.715492
  H      2.872783   -3.666368   -1.828014
  H      1.246188   -3.447444   -2.407842
  C      1.298729   -0.554314   -2.359773
  H      1.872917   -1.787955   -0.681310
  H      3.216809   -1.238432   -1.654428
  C     -0.196255   -0.863365   -2.325763
  H      1.612531   -0.371346   -3.393065
  H      1.480944    0.388638   -1.834444
  H     -0.404105   -1.761825   -2.909448
  H     -0.490439   -1.087880   -1.294131
  H     -1.143842    1.066711   -2.129680
  H     -2.114401   -0.156834   -2.930323

----------------------------
CARTESIAN COORDINATES (A.U.)
----------------------------
  NO LB      ZA    FRAG     MASS         X           Y           Z
   0 C     6.0000    0    12.011    4.222543   -5.649816   -4.530848
   1 N     7.0000    0    14.007    5.209595   -5.566289   -7.114873
   2 C     6.0000    0    12.011   -2.086873    0.475028   -5.404722
   3 C     6.0000    0    12.011   -1.345283    1.592127   -7.971516
   4 H     1.0000    0     1.008    0.292200    2.834211   -7.806286
   5 H     1.0000    0     1.008   -2.906652    2.757530   -8.659992
   6 C     6.0000    0    12.011   -0.751401   -0.389047   -9.992907
   7 C     6.0000    0    12.011    3.755279   -4.895244   -9.106543
   8 C     6.0000    0    12.011    1.404485   -5.702235   -9.285215
   9 N     7.0000    0    14.007    4.723627   -3.493344  -10.966537
  10 H     1.0000    0     1.008    6.254578   -2.443072  -10.504887
  11 H     1.0000    0     1.008    3.403445   -2.464767  -11.884731
  12 H     1.0000    0     1.008    7.022441   -4.967706   -7.236769
  13 H     1.0000    0     1.008    0.748006   -6.855448   -7.908548
  14 H     1.0000    0     1.008    0.074080   -4.638111  -10.150413
  15 F     9.0000    0    18.998    1.166273   -0.010106  -11.335093
  16 O     8.0000    0    15.999   -2.141387   -2.308074  -10.093907
  17 C     6.0000    0    12.011    4.140767   -3.060418   -3.241811
  18 H     1.0000    0     1.008    5.428773   -6.928432   -3.454445
  19 H     1.0000    0     1.008    2.354955   -6.514725   -4.550162
  20 C     6.0000    0    12.011    2.454243   -1.047501   -4.459324
  21 H     1.0000    0     1.008    3.539301   -3.378746   -1.287489
  22 H     1.0000    0     1.008    6.078888   -2.340297   -3.126415
  23 C     6.0000    0    12.011   -0.370868   -1.631524   -4.395056
  24 H     1.0000    0     1.008    3.047241   -0.701741   -6.411963
  25 H     1.0000    0     1.008    2.798579    0.734420   -3.466597
  26 H     1.0000    0     1.008   -0.763647   -3.329367   -5.498059
  27 H     1.0000    0     1.008   -0.926795   -2.055796   -2.445553
  28 H     1.0000    0     1.008   -2.161548    2.015792   -4.024513
  29 H     1.0000    0     1.008   -3.995640   -0.296373   -5.537508

--------------------------------
INTERNAL COORDINATES (ANGSTROEM)
--------------------------------
 C      0   0   0     0.000000000000     0.00000000     0.00000000
 N      1   0   0     1.464438225876     0.00000000     0.00000000
 C      1   2   0     4.676145129276    98.12927291     0.00000000
 C      3   1   2     1.532449663024    99.91462131   348.31309700
 H      4   3   1     1.091109561698   111.39025959   283.89265125
 H      4   3   1     1.093495439559   108.62484397   166.67912614
 C      4   3   1     1.530389765639   114.06976040    46.19796968
 C      2   1   3     1.352468525377   122.18202950   332.12698446
 C      8   2   1     1.318638167115   120.50800772   318.92382051
 N      8   2   1     1.334806580019   120.13920908   141.74971933
 H     10   8   2     1.012375870590   115.74621574   337.06348414
 H     10   8   2     1.010151241361   112.87083799   206.24146608
 H      2   1   3     1.012316375193   114.01286739   115.96418648
 H      9   8   2     1.011832723100   117.87797810   358.89717874
 H      9   8   2     1.011116910562   120.59529148   149.18306403
 F      7   4   3     1.254778981721   116.88713641   223.97730908
 O      7   4   3     1.255045716386   117.62699891    40.66785663
 C      1   2   3     1.531261091561   113.51716415   306.50017999
 H      1   2   3     1.090733497968   107.31452929   184.97158571
 H      1   2   3     1.089170204566   109.12058142    70.56520786
 C     18   1   2     1.531740549402   116.83240064    61.84859762
 H     18   1   2     1.095086016226   106.93324123   184.96028215
 H     18   1   2     1.095819174782   108.03263762   298.48283650
 C     21  18   1     1.526973371423   114.85536009    65.69540509
 H     21  18   1     1.095281264436   110.24604822   301.31032456
 H     21  18   1     1.094683112767   107.46873106   187.23902369
 H     24  21  18     1.091383863395   109.94769458   296.45428662
 H     24  21  18     1.096000392918   108.97875853    52.80812729
 H      3   1   2     1.095346916976   118.40828837   231.18872133
 H      3   1   2     1.091707330182   114.06755658   104.31710724

---------------------------
INTERNAL COORDINATES (A.U.)
---------------------------
 C      0   0   0     0.000000000000     0.00000000     0.00000000
 N      1   0   0     2.767387186951     0.00000000     0.00000000
 C      1   2   0     8.836633656801    98.12927291     0.00000000
 C      3   1   2     2.895910177136    99.91462131   348.31309700
 H      4   3   1     2.061898253712   111.39025959   283.89265125
 H      4   3   1     2.066406909459   108.62484397   166.67912614
 C      4   3   1     2.892017535214   114.06976040    46.19796968
 C      2   1   3     2.555795117711   122.18202950   332.12698446
 C      8   2   1     2.491865005583   120.50800772   318.92382051
 N      8   2   1     2.522418877992   120.13920908   141.74971933
 H     10   8   2     1.913113140005   115.74621574   337.06348414
 H     10   8   2     1.908909200014   112.87083799   206.24146608
 H      2   1   3     1.913000709999   114.01286739   115.96418648
 H      9   8   2     1.912086739998   117.87797810   358.89717874
 H      9   8   2     1.910734050338   120.59529148   149.18306403
 F      7   4   3     2.371188634054   116.88713641   223.97730908
 O      7   4   3     2.371692689521   117.62699891    40.66785663
 C      1   2   3     2.893664102580   113.51716415   306.50017999
 H      1   2   3     2.061187596254   107.31452929   184.97158571
 H      1   2   3     2.058233399856   109.12058142    70.56520786
 C     18   1   2     2.894570146592   116.83240064    61.84859762
 H     18   1   2     2.069412663755   106.93324123   184.96028215
 H     18   1   2     2.070798132638   108.03263762   298.48283650
 C     21  18   1     2.885561485780   114.85536009    65.69540509
 H     21  18   1     2.069781629399   110.24604822   301.31032456
 H     21  18   1     2.068651286558   107.46873106   187.23902369
 H     24  21  18     2.062416608797   109.94769458   296.45428662
 H     24  21  18     2.071140585285   108.97875853    52.80812729
 H      3   1   2     2.069905694719   118.40828837   231.18872133
 H      3   1   2     2.063027872438   114.06755658   104.31710724

---------------------
BASIS SET INFORMATION
---------------------
There are 5 groups of distinct atoms

 Group   1 Type C   : 11s6p2d1f contracted to 5s3p2d1f pattern {62111/411/11/1}
 Group   2 Type N   : 11s6p2d1f contracted to 5s3p2d1f pattern {62111/411/11/1}
 Group   3 Type H   : 5s1p contracted to 3s1p pattern {311/1}
 Group   4 Type F   : 11s6p2d1f contracted to 5s3p2d1f pattern {62111/411/11/1}
 Group   5 Type O   : 11s6p2d1f contracted to 5s3p2d1f pattern {62111/411/11/1}

Atom   0C    basis set group =>   1
Atom   1N    basis set group =>   2
Atom   2C    basis set group =>   1
Atom   3C    basis set group =>   1
Atom   4H    basis set group =>   3
Atom   5H    basis set group =>   3
Atom   6C    basis set group =>   1
Atom   7C    basis set group =>   1
Atom   8C    basis set group =>   1
Atom   9N    basis set group =>   2
Atom  10H    basis set group =>   3
Atom  11H    basis set group =>   3
Atom  12H    basis set group =>   3
Atom  13H    basis set group =>   3
Atom  14H    basis set group =>   3
Atom  15F    basis set group =>   4
Atom  16O    basis set group =>   5
Atom  17C    basis set group =>   1
Atom  18H    basis set group =>   3
Atom  19H    basis set group =>   3
Atom  20C    basis set group =>   1
Atom  21H    basis set group =>   3
Atom  22H    basis set group =>   3
Atom  23C    basis set group =>   1
Atom  24H    basis set group =>   3
Atom  25H    basis set group =>   3
Atom  26H    basis set group =>   3
Atom  27H    basis set group =>   3
Atom  28H    basis set group =>   3
Atom  29H    basis set group =>   3
---------------------------------
AUXILIARY/J BASIS SET INFORMATION
---------------------------------
There are 5 groups of distinct atoms

 Group   1 Type C   : 12s5p4d2f1g contracted to 6s4p3d1f1g pattern {711111/2111/211/2/1}
 Group   2 Type N   : 12s5p4d2f1g contracted to 6s4p3d1f1g pattern {711111/2111/211/2/1}
 Group   3 Type H   : 5s2p1d contracted to 3s1p1d pattern {311/2/1}
 Group   4 Type F   : 12s5p4d2f1g contracted to 6s4p3d1f1g pattern {711111/2111/211/2/1}
 Group   5 Type O   : 12s5p4d2f1g contracted to 6s4p3d1f1g pattern {711111/2111/211/2/1}

Atom   0C    basis set group =>   1
Atom   1N    basis set group =>   2
Atom   2C    basis set group =>   1
Atom   3C    basis set group =>   1
Atom   4H    basis set group =>   3
Atom   5H    basis set group =>   3
Atom   6C    basis set group =>   1
Atom   7C    basis set group =>   1
Atom   8C    basis set group =>   1
Atom   9N    basis set group =>   2
Atom  10H    basis set group =>   3
Atom  11H    basis set group =>   3
Atom  12H    basis set group =>   3
Atom  13H    basis set group =>   3
Atom  14H    basis set group =>   3
Atom  15F    basis set group =>   4
Atom  16O    basis set group =>   5
Atom  17C    basis set group =>   1
Atom  18H    basis set group =>   3
Atom  19H    basis set group =>   3
Atom  20C    basis set group =>   1
Atom  21H    basis set group =>   3
Atom  22H    basis set group =>   3
Atom  23C    basis set group =>   1
Atom  24H    basis set group =>   3
Atom  25H    basis set group =>   3
Atom  26H    basis set group =>   3
Atom  27H    basis set group =>   3
Atom  28H    basis set group =>   3
Atom  29H    basis set group =>   3


           ************************************************************
           *        Program running with 18 parallel MPI-processes    *
           *              working on a common directory               *
           ************************************************************
------------------------------------------------------------------------------
                           ORCA GTO INTEGRAL CALCULATION
                           -- RI-GTO INTEGRALS CHOSEN --
------------------------------------------------------------------------------
------------------------------------------------------------------------------
                   ___                                                        
                  /   \      - P O W E R E D   B Y -                         
                 /     \                                                     
                 |  |  |   _    _      __       _____    __    __             
                 |  |  |  | |  | |    /  \     |  _  \  |  |  /  |          
                  \  \/   | |  | |   /    \    | | | |  |  | /  /          
                 / \  \   | |__| |  /  /\  \   | |_| |  |  |/  /          
                |  |  |   |  __  | /  /__\  \  |    /   |      \           
                |  |  |   | |  | | |   __   |  |    \   |  |\   \          
                \     /   | |  | | |  |  |  |  | |\  \  |  | \   \       
                 \___/    |_|  |_| |__|  |__|  |_| \__\ |__|  \__/        
                                                                              
                      - O R C A' S   B I G   F R I E N D -                    
                                      &                                       
                       - I N T E G R A L  F E E D E R -                       
                                                                              
 v1 FN, 2020, v2 2021                                                         
------------------------------------------------------------------------------


Reading SHARK input file LC_PBE_D2_wb97.SHARKINP.tmp ... ok
----------------------
SHARK INTEGRAL PACKAGE
----------------------

Number of atoms                             ...     30
Number of basis functions                   ...    505
Number of shells                            ...    211
Maximum angular momentum                    ...      3
Integral batch strategy                     ... SHARK/LIBINT Hybrid
RI-J (if used) integral strategy            ... SPLIT-RIJ (Revised 2003 algorithm where possible)
Printlevel                                  ...      1
Contraction scheme used                     ... SEGMENTED contraction
Coulomb Range Separation                    ... NOT USED
Exchange Range Separation                   ... Long Range
   Mu parameter                             ...  0.470000
   Scaling (regular/separated)              ...  0.000000  1.000000
Finite Nucleus Model                        ... NOT USED
Auxiliary Coulomb fitting basis             ... AVAILABLE
   # of basis functions in Aux-J            ...    824
   # of shells in Aux-J                     ...    280
   Maximum angular momentum in Aux-J        ...      4
Auxiliary J/K fitting basis                 ... NOT available
Auxiliary Correlation fitting basis         ... NOT available
Auxiliary 'external' fitting basis          ... NOT available
Integral threshold                          ...     2.500000e-11
Primitive cut-off                           ...     2.500000e-12
Primitive pair pre-selection threshold      ...     2.500000e-12

Calculating pre-screening integrals         ... done (  0.2 sec) Dimension = 211
Organizing shell pair data                  ... done (  0.2 sec)
Shell pair information
Total number of shell pairs                 ...     22366
Shell pairs after pre-screening             ...     19373
Total number of primitive shell pairs       ...     66040
Primitive shell pairs kept                  ...     40522
          la=0 lb=0:   5711 shell pairs
          la=1 lb=0:   5695 shell pairs
          la=1 lb=1:   1453 shell pairs
          la=2 lb=0:   2599 shell pairs
          la=2 lb=1:   1311 shell pairs
          la=2 lb=2:    316 shell pairs
          la=3 lb=0:   1250 shell pairs
          la=3 lb=1:    653 shell pairs
          la=3 lb=2:    304 shell pairs
          la=3 lb=3:     81 shell pairs

Calculating one electron integrals          ... done (  0.0 sec)
Calculating RI/J V-Matrix + Cholesky decomp.... done (  0.1 sec)
Calculating Nuclear repulsion               ... done (  0.0 sec) ENN=    907.271968661507 Eh

SHARK setup successfully completed in   0.7 seconds

Maximum memory used throughout the entire GTOINT-calculation: 30.1 MB


           ************************************************************
           *        Program running with 18 parallel MPI-processes    *
           *              working on a common directory               *
           ************************************************************
-------------------------------------------------------------------------------
                                 ORCA SCF
-------------------------------------------------------------------------------

------------
SCF SETTINGS
------------
Hamiltonian:
 Density Functional     Method          .... DFT(GTOs)
 Exchange Functional    Exchange        .... LC-PBE
 Correlation Functional Correlation     .... PBE
   PBE beta parameter  CBetaPBE         ....  0.066725
 LDA part of GGA corr.  LDAOpt          .... PW91-LDA
 Gradients option       PostSCFGGA      .... off
   Density functional embedding theory  .... OFF
 Long-range corrected/Screened/Range-Separated Hybrid DFT is turned on
   Amount of maximum screened exact exchange              ....  1.000000
   Range separation parameter mu (erf(mu*r12)/r12)        ....  0.470000
   NL short-range parameter             ....  6.400000
 RI-approximation to the Coulomb term is turned on
   Number of AuxJ basis functions       .... 824
   RIJ-COSX (HFX calculated with COS-X)).... on


General Settings:
 Integral files         IntName         .... LC_PBE_D2_wb97
 Hartree-Fock type      HFTyp           .... RHF
 Total Charge           Charge          ....    0
 Multiplicity           Mult            ....    1
 Number of Electrons    NEL             ....  102
 Basis Dimension        Dim             ....  505
 Nuclear Repulsion      ENuc            ....    907.2719686615 Eh

Convergence Acceleration:
 DIIS                   CNVDIIS         .... on
   Start iteration      DIISMaxIt       ....    12
   Startup error        DIISStart       ....  0.200000
   # of expansion vecs  DIISMaxEq       ....     5
   Bias factor          DIISBfac        ....   1.050
   Max. coefficient     DIISMaxC        ....  10.000
 Trust-Rad. Augm. Hess. CNVTRAH         .... auto
   Auto Start mean grad. ratio tolernc. ....  1.125000
   Auto Start start iteration           ....    20
   Auto Start num. interpolation iter.  ....    10
   Max. Number of Micro iterations      ....    16
   Max. Number of Macro iterations      .... Maxiter - #DIIS iter
   Number of Davidson start vectors     ....     2
   Converg. threshold I  (grad. norm)   ....   1.000e-05
   Converg. threshold II (energy diff.) ....   1.000e-08
   Grad. Scal. Fac. for Micro threshold ....   0.100
   Minimum threshold for Micro iter.    ....   0.010
   NR start threshold (gradient norm)   ....   0.001
   Initial trust radius                 ....   0.400
   Minimum AH scaling param. (alpha)    ....   1.000
   Maximum AH scaling param. (alpha)    .... 1000.000
   Orbital update algorithm             .... Taylor
   White noise on init. David. guess    .... on
   Maximum white noise                  ....   0.010
   Quad. conv. algorithm                .... NR
 SOSCF                  CNVSOSCF        .... on
   Start iteration      SOSCFMaxIt      ....   150
   Startup grad/error   SOSCFStart      ....  0.003300
 Level Shifting         CNVShift        .... on
   Level shift para.    LevelShift      ....    0.2500
   Turn off err/grad.   ShiftErr        ....    0.0010
 Zerner damping         CNVZerner       .... off
 Static damping         CNVDamp         .... on
   Fraction old density DampFac         ....    0.7000
   Max. Damping (<1)    DampMax         ....    0.9800
   Min. Damping (>=0)   DampMin         ....    0.0000
   Turn off err/grad.   DampErr         ....    0.1000
 Fernandez-Rico         CNVRico         .... off

SCF Procedure:
 Maximum # iterations   MaxIter         ....   150
 SCF integral mode      SCFMode         .... Direct
   Integral package                     .... SHARK and LIBINT hybrid scheme
 Reset frequency        DirectResetFreq ....    20
 Integral Threshold     Thresh          ....  2.500e-11 Eh
 Primitive CutOff       TCut            ....  2.500e-12 Eh

Convergence Tolerance:
 Convergence Check Mode ConvCheckMode   .... Total+1el-Energy
 Convergence forced     ConvForced      .... 0
 Energy Change          TolE            ....  1.000e-08 Eh
 1-El. energy change                    ....  1.000e-05 Eh
 Orbital Gradient       TolG            ....  1.000e-05
 Orbital Rotation angle TolX            ....  1.000e-05
 DIIS Error             TolErr          ....  5.000e-07


Diagonalization of the overlap matrix:
Smallest eigenvalue                        ... 5.631e-05
Time for diagonalization                   ...    0.073 sec
Threshold for overlap eigenvalues          ... 1.000e-08
Number of eigenvalues below threshold      ... 0
Time for construction of square roots      ...    0.209 sec
Total time needed                          ...    0.286 sec

Time for model grid setup =    0.146 sec

------------------------------
INITIAL GUESS: MODEL POTENTIAL
------------------------------
Loading Hartree-Fock densities                     ... done
Calculating cut-offs                               ... done
Initializing the effective Hamiltonian             ... done
Setting up the integral package (SHARK)            ... done
Starting the Coulomb interaction                   ... done (   0.1 sec)
Reading the grid                                   ... done
Mapping shells                                     ... done
Starting the XC term evaluation                    ... done (   0.1 sec)
  promolecular density results
     # of electrons  =    101.995070018
     EX              =    -58.432921335
     EC              =     -3.429321933
     EX+EC           =    -61.862243267
Transforming the Hamiltonian                       ... done (   0.0 sec)
Diagonalizing the Hamiltonian                      ... done (   0.1 sec)
Back transforming the eigenvectors                 ... done (   0.0 sec)
Now organizing SCF variables                       ... done
                      ------------------
                      INITIAL GUESS DONE (   0.5 sec)
                      ------------------
-------------------
DFT GRID GENERATION
-------------------

General Integration Accuracy     IntAcc      ... 4.388
Radial Grid Type                 RadialGrid  ... OptM3 with GC (2021)
Angular Grid (max. ang.)         AngularGrid ... 4 (Lebedev-302)
Angular grid pruning method      GridPruning ... 4 (adaptive)
Weight generation scheme         WeightScheme... Becke
Basis function cutoff            BFCut       ... 1.0000e-11
Integration weight cutoff        WCut        ... 1.0000e-14
Angular grids for H and He will be reduced by one unit
Partially contracted basis set               ... off
Rotationally invariant grid construction     ... off

Total number of grid points                  ...   131413
Total number of batches                      ...     2069
Average number of points per batch           ...       63
Average number of grid points per atom       ...     4380
Time for grid setup =    0.695 sec

--------------------
COSX GRID GENERATION
--------------------

GRIDX 1
-------
General Integration Accuracy     IntAcc      ... 3.816
Radial Grid Type                 RadialGrid  ... OptM3 with GC (2021)
Angular Grid (max. ang.)         AngularGrid ... 1 (Lebedev-50)
Angular grid pruning method      GridPruning ... 4 (adaptive)
Weight generation scheme         WeightScheme... Becke
Basis function cutoff            BFCut       ... 1.0000e-11
Integration weight cutoff        WCut        ... 1.0000e-14
Angular grids for H and He will be reduced by one unit
Partially contracted basis set               ... on
Rotationally invariant grid construction     ... off

Total number of grid points                  ...    16747
Total number of batches                      ...      281
Average number of points per batch           ...       59
Average number of grid points per atom       ...      558
UseSFitting                                  ... on

GRIDX 2
-------
General Integration Accuracy     IntAcc      ... 4.020
Radial Grid Type                 RadialGrid  ... OptM3 with GC (2021)
Angular Grid (max. ang.)         AngularGrid ... 2 (Lebedev-110)
Angular grid pruning method      GridPruning ... 4 (adaptive)
Weight generation scheme         WeightScheme... Becke
Basis function cutoff            BFCut       ... 1.0000e-11
Integration weight cutoff        WCut        ... 1.0000e-14
Angular grids for H and He will be reduced by one unit
Partially contracted basis set               ... on
Rotationally invariant grid construction     ... off

Total number of grid points                  ...    35349
Total number of batches                      ...      568
Average number of points per batch           ...       62
Average number of grid points per atom       ...     1178
UseSFitting                                  ... on

GRIDX 3
-------
General Integration Accuracy     IntAcc      ... 4.338
Radial Grid Type                 RadialGrid  ... OptM3 with GC (2021)
Angular Grid (max. ang.)         AngularGrid ... 3 (Lebedev-194)
Angular grid pruning method      GridPruning ... 4 (adaptive)
Weight generation scheme         WeightScheme... Becke
Basis function cutoff            BFCut       ... 1.0000e-11
Integration weight cutoff        WCut        ... 1.0000e-14
Angular grids for H and He will be reduced by one unit
Partially contracted basis set               ... on
Rotationally invariant grid construction     ... off

Total number of grid points                  ...    76917
Total number of batches                      ...     1218
Average number of points per batch           ...       63
Average number of grid points per atom       ...     2564
UseSFitting                                  ... on

Time for X-Grid setup             =    0.742 sec

--------------
SCF ITERATIONS
--------------
ITER       Energy         Delta-E        Max-DP      RMS-DP      [F,P]     Damp
               ***  Starting incremental Fock matrix formation  ***
  0   -635.6901544835   0.000000000000 0.04478617  0.00077848  0.1739980 0.7000
  1   -635.8055773476  -0.115422864118 0.04372459  0.00065448  0.0971202 0.7000
                               ***Turning on DIIS***
  2   -635.8621977100  -0.056620362407 0.13434802  0.00149977  0.0450135 0.0000
  3   -635.9607583756  -0.098560665603 0.03645577  0.00049911  0.0474199 0.0000
  4   -635.9750583889  -0.014300013335 0.02007638  0.00022491  0.0150742 0.0000
  5   -635.9759711105  -0.000912721593 0.00929175  0.00012837  0.0112160 0.0000
                      *** Initiating the SOSCF procedure ***
                           *** Shutting down DIIS ***
                      *** Re-Reading the Fockian *** 
                      *** Removing any level shift *** 
ITER      Energy       Delta-E        Grad      Rot      Max-DP    RMS-DP
  6   -635.97633632  -0.0003652054  0.001498  0.001498  0.006131  0.000072
               *** Restarting incremental Fock matrix formation ***
  7   -635.97636516  -0.0000288417  0.000786  0.001734  0.004350  0.000049
  8   -635.97638222  -0.0000170575  0.000267  0.001489  0.004787  0.000045
  9   -635.97638643  -0.0000042135  0.000152  0.000202  0.000692  0.000009
 10   -635.97638746  -0.0000010326  0.000048  0.000069  0.000280  0.000004
 11   -635.97638751  -0.0000000504  0.000033  0.000024  0.000069  0.000001
 12   -635.97638756  -0.0000000468  0.000008  0.000022  0.000053  0.000000
                  ***Gradient check signals convergence***
              ***Rediagonalizing the Fockian in SOSCF/NRSCF***

               *****************************************************
               *                     SUCCESS                       *
               *           SCF CONVERGED AFTER  13 CYCLES          *
               *****************************************************


----------------
TOTAL SCF ENERGY
----------------

Total Energy       :         -635.97638756 Eh          -17305.79732 eV

Components:
Nuclear Repulsion  :          907.27196866 Eh           24688.12539 eV
Electronic Energy  :        -1543.24835622 Eh          -41993.92270 eV
One Electron Energy:        -2669.51446234 Eh          -72641.18153 eV
Two Electron Energy:         1126.26610613 Eh           30647.25882 eV
Max COSX asymmetry :            0.00000793 Eh               0.00022 eV

Virial components:
Potential Energy   :        -1269.38189079 Eh          -34541.63731 eV
Kinetic Energy     :          633.40550323 Eh           17235.84000 eV
Virial Ratio       :            2.00405883


DFT components:
N(Alpha)           :       50.999933733524 electrons
N(Beta)            :       50.999933733524 electrons
N(Total)           :      101.999867467049 electrons
E(X)               :      -59.636624107896 Eh       
E(C)               :       -3.422641586272 Eh       
E(XC)              :      -63.059265694167 Eh       
DFET-embed. en.    :        0.000000000000 Eh       

---------------
SCF CONVERGENCE
---------------

  Last Energy change         ...    1.5509e-09  Tolerance :   1.0000e-08
  Last MAX-Density change    ...    2.0116e-05  Tolerance :   1.0000e-07
  Last RMS-Density change    ...    2.3240e-07  Tolerance :   5.0000e-09
  Last Orbital Gradient      ...    2.0381e-06  Tolerance :   1.0000e-05
  Last Orbital Rotation      ...    4.3170e-06  Tolerance :   1.0000e-05

             **** THE GBW FILE WAS UPDATED (LC_PBE_D2_wb97.gbw) ****
             **** DENSITY LC_PBE_D2_wb97.scfp WAS UPDATED ****
             **** ENERGY FILE WAS UPDATED (LC_PBE_D2_wb97.en.tmp) ****
             **** THE GBW FILE WAS UPDATED (LC_PBE_D2_wb97.gbw) ****
             **** DENSITY LC_PBE_D2_wb97.scfp WAS UPDATED ****
----------------
ORBITAL ENERGIES
----------------

  NO   OCC          E(Eh)            E(eV) 
   0   2.0000     -24.580835      -668.8785 
   1   2.0000     -18.991940      -516.7970 
   2   2.0000     -14.207153      -386.5963 
   3   2.0000     -14.197920      -386.3450 
   4   2.0000     -10.311184      -280.5816 
   5   2.0000     -10.152398      -276.2608 
   6   2.0000     -10.150956      -276.2215 
   7   2.0000     -10.142555      -275.9930 
   8   2.0000     -10.129602      -275.6405 
   9   2.0000     -10.117415      -275.3089 
  10   2.0000     -10.116680      -275.2888 
  11   2.0000     -10.110561      -275.1223 
  12   2.0000     -10.006315      -272.2857 
  13   2.0000      -1.499735       -40.8099 
  14   2.0000      -1.213717       -33.0269 
  15   2.0000      -1.136707       -30.9314 
  16   2.0000      -1.053128       -28.6571 
  17   2.0000      -1.006508       -27.3885 
  18   2.0000      -0.963345       -26.2139 
  19   2.0000      -0.907439       -24.6927 
  20   2.0000      -0.877068       -23.8662 
  21   2.0000      -0.858399       -23.3582 
  22   2.0000      -0.825358       -22.4591 
  23   2.0000      -0.781487       -21.2654 
  24   2.0000      -0.747951       -20.3528 
  25   2.0000      -0.726851       -19.7786 
  26   2.0000      -0.701848       -19.0983 
  27   2.0000      -0.699313       -19.0293 
  28   2.0000      -0.681924       -18.5561 
  29   2.0000      -0.675432       -18.3794 
  30   2.0000      -0.642527       -17.4841 
  31   2.0000      -0.632013       -17.1980 
  32   2.0000      -0.616714       -16.7816 
  33   2.0000      -0.593292       -16.1443 
  34   2.0000      -0.587161       -15.9775 
  35   2.0000      -0.565200       -15.3799 
  36   2.0000      -0.556185       -15.1346 
  37   2.0000      -0.548225       -14.9180 
  38   2.0000      -0.537204       -14.6181 
  39   2.0000      -0.519697       -14.1417 
  40   2.0000      -0.511406       -13.9161 
  41   2.0000      -0.498566       -13.5667 
  42   2.0000      -0.497882       -13.5480 
  43   2.0000      -0.485663       -13.2156 
  44   2.0000      -0.478614       -13.0238 
  45   2.0000      -0.457424       -12.4471 
  46   2.0000      -0.449267       -12.2252 
  47   2.0000      -0.444706       -12.1011 
  48   2.0000      -0.417778       -11.3683 
  49   2.0000      -0.373282       -10.1575 
  50   2.0000      -0.280196        -7.6245 
  51   0.0000       0.057382         1.5614 
  52   0.0000       0.101915         2.7732 
  53   0.0000       0.119217         3.2441 
  54   0.0000       0.129048         3.5116 
  55   0.0000       0.141132         3.8404 
  56   0.0000       0.155768         4.2387 
  57   0.0000       0.158051         4.3008 
  58   0.0000       0.164316         4.4713 
  59   0.0000       0.173446         4.7197 
  60   0.0000       0.180194         4.9033 
  61   0.0000       0.191629         5.2145 
  62   0.0000       0.196534         5.3480 
  63   0.0000       0.206627         5.6226 
  64   0.0000       0.211860         5.7650 
  65   0.0000       0.219265         5.9665 
  66   0.0000       0.223738         6.0882 
  67   0.0000       0.230282         6.2663 
  68   0.0000       0.247711         6.7406 
  69   0.0000       0.249064         6.7774 
  70   0.0000       0.262691         7.1482 
  71   0.0000       0.268576         7.3083 
  72   0.0000       0.272944         7.4272 
  73   0.0000       0.277063         7.5393 
  74   0.0000       0.288080         7.8391 
  75   0.0000       0.295795         8.0490 
  76   0.0000       0.301796         8.2123 
  77   0.0000       0.310222         8.4416 
  78   0.0000       0.313488         8.5304 
  79   0.0000       0.323161         8.7937 
  80   0.0000       0.329306         8.9609 
  81   0.0000       0.344397         9.3715 
  82   0.0000       0.348185         9.4746 
  83   0.0000       0.374404        10.1881 
  84   0.0000       0.380414        10.3516 
  85   0.0000       0.384617        10.4660 
  86   0.0000       0.391313        10.6482 
  87   0.0000       0.403231        10.9725 
  88   0.0000       0.408109        11.1052 
  89   0.0000       0.414149        11.2696 
  90   0.0000       0.427275        11.6267 
  91   0.0000       0.436410        11.8753 
  92   0.0000       0.447625        12.1805 
  93   0.0000       0.451517        12.2864 
  94   0.0000       0.461205        12.5500 
  95   0.0000       0.464813        12.6482 
  96   0.0000       0.468585        12.7508 
  97   0.0000       0.484146        13.1743 
  98   0.0000       0.492579        13.4037 
  99   0.0000       0.493296        13.4233 
 100   0.0000       0.505420        13.7532 
 101   0.0000       0.507920        13.8212 
 102   0.0000       0.513243        13.9661 
 103   0.0000       0.519106        14.1256 
 104   0.0000       0.520336        14.1591 
 105   0.0000       0.524876        14.2826 
 106   0.0000       0.532655        14.4943 
 107   0.0000       0.535148        14.5621 
 108   0.0000       0.543435        14.7876 
 109   0.0000       0.546812        14.8795 
 110   0.0000       0.554890        15.0993 
 111   0.0000       0.556383        15.1400 
 112   0.0000       0.562579        15.3085 
 113   0.0000       0.565847        15.3975 
 114   0.0000       0.570887        15.5346 
 115   0.0000       0.577474        15.7139 
 116   0.0000       0.584909        15.9162 
 117   0.0000       0.593381        16.1467 
 118   0.0000       0.595682        16.2093 
 119   0.0000       0.598388        16.2830 
 120   0.0000       0.609985        16.5985 
 121   0.0000       0.621763        16.9190 
 122   0.0000       0.629095        17.1186 
 123   0.0000       0.639037        17.3891 
 124   0.0000       0.654341        17.8055 
 125   0.0000       0.659110        17.9353 
 126   0.0000       0.667257        18.1570 
 127   0.0000       0.678901        18.4738 
 128   0.0000       0.687116        18.6974 
 129   0.0000       0.694248        18.8914 
 130   0.0000       0.702882        19.1264 
 131   0.0000       0.719411        19.5762 
 132   0.0000       0.724656        19.7189 
 133   0.0000       0.731707        19.9108 
 134   0.0000       0.740769        20.1574 
 135   0.0000       0.757136        20.6027 
 136   0.0000       0.764139        20.7933 
 137   0.0000       0.768810        20.9204 
 138   0.0000       0.792063        21.5531 
 139   0.0000       0.805484        21.9183 
 140   0.0000       0.827611        22.5204 
 141   0.0000       0.837683        22.7945 
 142   0.0000       0.852586        23.2000 
 143   0.0000       0.861750        23.4494 
 144   0.0000       0.887849        24.1596 
 145   0.0000       0.893590        24.3158 
 146   0.0000       0.902675        24.5630 
 147   0.0000       0.905156        24.6305 
 148   0.0000       0.909462        24.7477 
 149   0.0000       0.919838        25.0301 
 150   0.0000       0.932626        25.3780 
 151   0.0000       0.950663        25.8688 
 152   0.0000       0.970916        26.4200 
 153   0.0000       0.975702        26.5502 
 154   0.0000       0.979117        26.6431 
 155   0.0000       0.993151        27.0250 
 156   0.0000       1.013578        27.5808 
 157   0.0000       1.018173        27.7059 
 158   0.0000       1.027942        27.9717 
 159   0.0000       1.042769        28.3752 
 160   0.0000       1.059782        28.8381 
 161   0.0000       1.066808        29.0293 
 162   0.0000       1.085220        29.5303 
 163   0.0000       1.095330        29.8054 
 164   0.0000       1.104158        30.0457 
 165   0.0000       1.118317        30.4309 
 166   0.0000       1.122457        30.5436 
 167   0.0000       1.139071        30.9957 
 168   0.0000       1.157150        31.4876 
 169   0.0000       1.170510        31.8512 
 170   0.0000       1.175162        31.9778 
 171   0.0000       1.192456        32.4484 
 172   0.0000       1.199606        32.6429 
 173   0.0000       1.211949        32.9788 
 174   0.0000       1.234902        33.6034 
 175   0.0000       1.251861        34.0649 
 176   0.0000       1.259795        34.2808 
 177   0.0000       1.280842        34.8535 
 178   0.0000       1.283575        34.9278 
 179   0.0000       1.295480        35.2518 
 180   0.0000       1.305805        35.5328 
 181   0.0000       1.310125        35.6503 
 182   0.0000       1.330083        36.1934 
 183   0.0000       1.338044        36.4100 
 184   0.0000       1.340502        36.4769 
 185   0.0000       1.364737        37.1364 
 186   0.0000       1.377735        37.4901 
 187   0.0000       1.383004        37.6334 
 188   0.0000       1.395504        37.9736 
 189   0.0000       1.413246        38.4564 
 190   0.0000       1.429384        38.8955 
 191   0.0000       1.446939        39.3732 
 192   0.0000       1.467666        39.9372 
 193   0.0000       1.476343        40.1733 
 194   0.0000       1.492634        40.6166 
 195   0.0000       1.507151        41.0117 
 196   0.0000       1.515936        41.2507 
 197   0.0000       1.521562        41.4038 
 198   0.0000       1.536141        41.8005 
 199   0.0000       1.570925        42.7470 
 200   0.0000       1.589305        43.2472 
 201   0.0000       1.594169        43.3795 
 202   0.0000       1.623744        44.1843 
 203   0.0000       1.635034        44.4915 
 204   0.0000       1.649113        44.8747 
 205   0.0000       1.661434        45.2099 
 206   0.0000       1.681038        45.7434 
 207   0.0000       1.693808        46.0909 
 208   0.0000       1.705836        46.4182 
 209   0.0000       1.709729        46.5241 
 210   0.0000       1.718190        46.7543 
 211   0.0000       1.735944        47.2374 
 212   0.0000       1.737778        47.2874 
 213   0.0000       1.743531        47.4439 
 214   0.0000       1.759234        47.8712 
 215   0.0000       1.767509        48.0964 
 216   0.0000       1.769793        48.1585 
 217   0.0000       1.783057        48.5194 
 218   0.0000       1.787345        48.6361 
 219   0.0000       1.807530        49.1854 
 220   0.0000       1.820289        49.5326 
 221   0.0000       1.824601        49.6499 
 222   0.0000       1.836892        49.9844 
 223   0.0000       1.841673        50.1145 
 224   0.0000       1.851374        50.3784 
 225   0.0000       1.859586        50.6019 
 226   0.0000       1.860373        50.6233 
 227   0.0000       1.883244        51.2457 
 228   0.0000       1.891827        51.4792 
 229   0.0000       1.906380        51.8752 
 230   0.0000       1.916904        52.1616 
 231   0.0000       1.940186        52.7951 
 232   0.0000       1.951745        53.1097 
 233   0.0000       1.964276        53.4507 
 234   0.0000       1.970038        53.6075 
 235   0.0000       1.984541        54.0021 
 236   0.0000       1.999179        54.4004 
 237   0.0000       2.014924        54.8289 
 238   0.0000       2.016626        54.8752 
 239   0.0000       2.028113        55.1878 
 240   0.0000       2.040672        55.5295 
 241   0.0000       2.054696        55.9111 
 242   0.0000       2.071723        56.3745 
 243   0.0000       2.083561        56.6966 
 244   0.0000       2.097094        57.0648 
 245   0.0000       2.112105        57.4733 
 246   0.0000       2.117948        57.6323 
 247   0.0000       2.139035        58.2061 
 248   0.0000       2.150384        58.5149 
 249   0.0000       2.170058        59.0503 
 250   0.0000       2.174736        59.1776 
 251   0.0000       2.192035        59.6483 
 252   0.0000       2.200782        59.8863 
 253   0.0000       2.220958        60.4353 
 254   0.0000       2.225929        60.5706 
 255   0.0000       2.244576        61.0780 
 256   0.0000       2.252196        61.2854 
 257   0.0000       2.266204        61.6665 
 258   0.0000       2.279098        62.0174 
 259   0.0000       2.292451        62.3808 
 260   0.0000       2.300697        62.6051 
 261   0.0000       2.326584        63.3096 
 262   0.0000       2.336908        63.5905 
 263   0.0000       2.357636        64.1545 
 264   0.0000       2.367822        64.4317 
 265   0.0000       2.387469        64.9663 
 266   0.0000       2.406937        65.4961 
 267   0.0000       2.426890        66.0390 
 268   0.0000       2.454367        66.7867 
 269   0.0000       2.464350        67.0584 
 270   0.0000       2.476746        67.3957 
 271   0.0000       2.485893        67.6446 
 272   0.0000       2.518058        68.5198 
 273   0.0000       2.531041        68.8731 
 274   0.0000       2.548370        69.3447 
 275   0.0000       2.554272        69.5053 
 276   0.0000       2.557646        69.5971 
 277   0.0000       2.565152        69.8013 
 278   0.0000       2.582740        70.2799 
 279   0.0000       2.593693        70.5780 
 280   0.0000       2.600222        70.7556 
 281   0.0000       2.621945        71.3467 
 282   0.0000       2.625956        71.4559 
 283   0.0000       2.637938        71.7819 
 284   0.0000       2.640287        71.8459 
 285   0.0000       2.661513        72.4235 
 286   0.0000       2.679939        72.9249 
 287   0.0000       2.682272        72.9883 
 288   0.0000       2.687537        73.1316 
 289   0.0000       2.701494        73.5114 
 290   0.0000       2.709472        73.7285 
 291   0.0000       2.719130        73.9913 
 292   0.0000       2.736579        74.4661 
 293   0.0000       2.745741        74.7154 
 294   0.0000       2.747255        74.7566 
 295   0.0000       2.753908        74.9377 
 296   0.0000       2.759617        75.0930 
 297   0.0000       2.777362        75.5759 
 298   0.0000       2.784881        75.7805 
 299   0.0000       2.793083        76.0037 
 300   0.0000       2.801461        76.2316 
 301   0.0000       2.810324        76.4728 
 302   0.0000       2.810612        76.4806 
 303   0.0000       2.831503        77.0491 
 304   0.0000       2.844085        77.3915 
 305   0.0000       2.846378        77.4539 
 306   0.0000       2.867039        78.0161 
 307   0.0000       2.873444        78.1904 
 308   0.0000       2.879223        78.3476 
 309   0.0000       2.897664        78.8494 
 310   0.0000       2.906643        79.0938 
 311   0.0000       2.915625        79.3382 
 312   0.0000       2.923823        79.5613 
 313   0.0000       2.931782        79.7778 
 314   0.0000       2.946127        80.1682 
 315   0.0000       2.961222        80.5790 
 316   0.0000       2.970013        80.8182 
 317   0.0000       2.979454        81.0751 
 318   0.0000       2.999975        81.6335 
 319   0.0000       3.012878        81.9846 
 320   0.0000       3.020570        82.1939 
 321   0.0000       3.038556        82.6833 
 322   0.0000       3.063063        83.3502 
 323   0.0000       3.079606        83.8003 
 324   0.0000       3.087969        84.0279 
 325   0.0000       3.106546        84.5334 
 326   0.0000       3.119354        84.8819 
 327   0.0000       3.134467        85.2932 
 328   0.0000       3.143709        85.5447 
 329   0.0000       3.161082        86.0174 
 330   0.0000       3.162617        86.0592 
 331   0.0000       3.184216        86.6469 
 332   0.0000       3.192009        86.8590 
 333   0.0000       3.196946        86.9933 
 334   0.0000       3.211879        87.3997 
 335   0.0000       3.230322        87.9015 
 336   0.0000       3.238288        88.1183 
 337   0.0000       3.256211        88.6060 
 338   0.0000       3.265371        88.8553 
 339   0.0000       3.287903        89.4684 
 340   0.0000       3.297406        89.7270 
 341   0.0000       3.309980        90.0691 
 342   0.0000       3.317630        90.2773 
 343   0.0000       3.330199        90.6193 
 344   0.0000       3.339587        90.8748 
 345   0.0000       3.350785        91.1795 
 346   0.0000       3.355921        91.3192 
 347   0.0000       3.366230        91.5998 
 348   0.0000       3.377899        91.9173 
 349   0.0000       3.391247        92.2805 
 350   0.0000       3.400730        92.5386 
 351   0.0000       3.417809        93.0033 
 352   0.0000       3.418950        93.0344 
 353   0.0000       3.430748        93.3554 
 354   0.0000       3.437412        93.5367 
 355   0.0000       3.445770        93.7642 
 356   0.0000       3.448108        93.8278 
 357   0.0000       3.460405        94.1624 
 358   0.0000       3.470266        94.4307 
 359   0.0000       3.484332        94.8135 
 360   0.0000       3.500003        95.2399 
 361   0.0000       3.502265        95.3015 
 362   0.0000       3.505011        95.3762 
 363   0.0000       3.524491        95.9063 
 364   0.0000       3.533561        96.1531 
 365   0.0000       3.547457        96.5312 
 366   0.0000       3.552370        96.6649 
 367   0.0000       3.561625        96.9167 
 368   0.0000       3.580149        97.4208 
 369   0.0000       3.582227        97.4773 
 370   0.0000       3.601470        98.0010 
 371   0.0000       3.608282        98.1863 
 372   0.0000       3.620171        98.5099 
 373   0.0000       3.630355        98.7870 
 374   0.0000       3.646345        99.2221 
 375   0.0000       3.648891        99.2914 
 376   0.0000       3.662431        99.6598 
 377   0.0000       3.680180       100.1428 
 378   0.0000       3.699108       100.6579 
 379   0.0000       3.701047       100.7106 
 380   0.0000       3.709836       100.9498 
 381   0.0000       3.734658       101.6252 
 382   0.0000       3.748973       102.0148 
 383   0.0000       3.757022       102.2338 
 384   0.0000       3.783688       102.9594 
 385   0.0000       3.790126       103.1346 
 386   0.0000       3.818239       103.8996 
 387   0.0000       3.842728       104.5660 
 388   0.0000       3.853539       104.8601 
 389   0.0000       3.870276       105.3156 
 390   0.0000       3.903646       106.2236 
 391   0.0000       3.930408       106.9519 
 392   0.0000       3.947271       107.4107 
 393   0.0000       3.965015       107.8935 
 394   0.0000       3.977776       108.2408 
 395   0.0000       3.995123       108.7128 
 396   0.0000       4.015772       109.2747 
 397   0.0000       4.028048       109.6088 
 398   0.0000       4.038967       109.9059 
 399   0.0000       4.052233       110.2669 
 400   0.0000       4.071029       110.7783 
 401   0.0000       4.077387       110.9513 
 402   0.0000       4.099396       111.5502 
 403   0.0000       4.112477       111.9062 
 404   0.0000       4.124227       112.2259 
 405   0.0000       4.139193       112.6332 
 406   0.0000       4.149725       112.9198 
 407   0.0000       4.171936       113.5241 
 408   0.0000       4.192694       114.0890 
 409   0.0000       4.203310       114.3779 
 410   0.0000       4.219289       114.8127 
 411   0.0000       4.234945       115.2387 
 412   0.0000       4.270738       116.2127 
 413   0.0000       4.296447       116.9123 
 414   0.0000       4.319819       117.5483 
 415   0.0000       4.324979       117.6887 
 416   0.0000       4.357789       118.5815 
 417   0.0000       4.380953       119.2118 
 418   0.0000       4.393783       119.5609 
 419   0.0000       4.452345       121.1545 
 420   0.0000       4.462872       121.4409 
 421   0.0000       4.512786       122.7992 
 422   0.0000       4.525982       123.1582 
 423   0.0000       4.547265       123.7374 
 424   0.0000       4.551453       123.8513 
 425   0.0000       4.594069       125.0110 
 426   0.0000       4.608349       125.3996 
 427   0.0000       4.633343       126.0797 
 428   0.0000       4.663250       126.8935 
 429   0.0000       4.689675       127.6125 
 430   0.0000       4.711434       128.2046 
 431   0.0000       4.725543       128.5886 
 432   0.0000       4.749625       129.2439 
 433   0.0000       4.764671       129.6533 
 434   0.0000       4.796996       130.5329 
 435   0.0000       4.850598       131.9915 
 436   0.0000       4.864763       132.3769 
 437   0.0000       4.877134       132.7136 
 438   0.0000       4.908178       133.5583 
 439   0.0000       4.915074       133.7460 
 440   0.0000       4.947342       134.6240 
 441   0.0000       4.968153       135.1903 
 442   0.0000       4.993349       135.8759 
 443   0.0000       4.997318       135.9839 
 444   0.0000       5.022529       136.6700 
 445   0.0000       5.035435       137.0212 
 446   0.0000       5.066438       137.8648 
 447   0.0000       5.081312       138.2695 
 448   0.0000       5.141916       139.9187 
 449   0.0000       5.145228       140.0088 
 450   0.0000       5.202240       141.5602 
 451   0.0000       5.242049       142.6434 
 452   0.0000       5.252673       142.9325 
 453   0.0000       5.257373       143.0604 
 454   0.0000       5.315591       144.6446 
 455   0.0000       5.329034       145.0104 
 456   0.0000       5.350580       145.5967 
 457   0.0000       5.381570       146.4400 
 458   0.0000       5.396679       146.8511 
 459   0.0000       5.415272       147.3570 
 460   0.0000       5.422219       147.5461 
 461   0.0000       5.484464       149.2399 
 462   0.0000       5.541851       150.8014 
 463   0.0000       5.615253       152.7988 
 464   0.0000       5.638079       153.4199 
 465   0.0000       5.650567       153.7597 
 466   0.0000       5.693424       154.9259 
 467   0.0000       5.847823       159.1274 
 468   0.0000       5.885297       160.1471 
 469   0.0000       6.027769       164.0239 
 470   0.0000       6.063415       164.9939 
 471   0.0000       6.095201       165.8589 
 472   0.0000       6.252899       170.1500 
 473   0.0000       6.301956       171.4849 
 474   0.0000       6.335906       172.4088 
 475   0.0000       6.585915       179.2119 
 476   0.0000       6.683565       181.8691 
 477   0.0000       6.875601       187.0946 
 478   0.0000       6.911830       188.0805 
 479   0.0000       6.941633       188.8914 
 480   0.0000       6.965267       189.5345 
 481   0.0000       7.133325       194.1076 
 482   0.0000       7.165549       194.9845 
 483   0.0000       7.254508       197.4052 
 484   0.0000       7.428824       202.1486 
 485   0.0000       7.568892       205.9600 
 486   0.0000       7.907243       215.1670 
 487   0.0000       8.466424       230.3831 
 488   0.0000       8.490570       231.0402 
 489   0.0000       8.883595       241.7349 
 490   0.0000       9.055089       246.4015 
 491   0.0000       9.060634       246.5524 
 492   0.0000      22.483778       611.8147 
 493   0.0000      22.495751       612.1405 
 494   0.0000      22.531504       613.1134 
 495   0.0000      22.566447       614.0642 
 496   0.0000      22.588927       614.6760 
 497   0.0000      22.621949       615.5745 
 498   0.0000      22.831993       621.2901 
 499   0.0000      23.278995       633.4537 
 500   0.0000      23.438609       637.7970 
 501   0.0000      32.098128       873.4345 
 502   0.0000      32.543473       885.5529 
 503   0.0000      43.793452      1191.6804 
 504   0.0000      57.192063      1556.2752 

                    ********************************
                    * MULLIKEN POPULATION ANALYSIS *
                    ********************************

-----------------------
MULLIKEN ATOMIC CHARGES
-----------------------
   0 C :   -0.279505
   1 N :   -0.268851
   2 C :   -0.263937
   3 C :   -0.351904
   4 H :    0.182817
   5 H :    0.188878
   6 C :    0.316895
   7 C :    0.164224
   8 C :   -0.580893
   9 N :   -0.412361
  10 H :    0.220817
  11 H :    0.248826
  12 H :    0.209190
  13 H :    0.116613
  14 H :    0.177360
  15 F :   -0.098745
  16 O :   -0.279419
  17 C :   -0.288315
  18 H :    0.167686
  19 H :    0.181194
  20 C :   -0.276801
  21 H :    0.145902
  22 H :    0.149518
  23 C :   -0.348686
  24 H :    0.142366
  25 H :    0.156498
  26 H :    0.197044
  27 H :    0.153933
  28 H :    0.158210
  29 H :    0.171446
Sum of atomic charges:   -0.0000000

--------------------------------
MULLIKEN REDUCED ORBITAL CHARGES
--------------------------------
  0 C s       :     3.279329  s :     3.279329
      pz      :     0.830816  p :     2.870985
      px      :     1.095494
      py      :     0.944675
      dz2     :     0.028397  d :     0.121674
      dxz     :     0.017875
      dyz     :     0.042287
      dx2y2   :     0.009431
      dxy     :     0.023684
      f0      :     0.001454  f :     0.007517
      f+1     :     0.001126
      f-1     :     0.002177
      f+2     :     0.000551
      f-2     :     0.001102
      f+3     :     0.000531
      f-3     :     0.000575
  1 N s       :     3.413525  s :     3.413525
      pz      :     1.055755  p :     3.799883
      px      :     1.068592
      py      :     1.675537
      dz2     :     0.016795  d :     0.051933
      dxz     :     0.010532
      dyz     :     0.011125
      dx2y2   :     0.006682
      dxy     :     0.006800
      f0      :     0.000749  f :     0.003509
      f+1     :     0.000617
      f-1     :     0.000515
      f+2     :     0.000561
      f-2     :     0.000263
      f+3     :     0.000306
      f-3     :     0.000497
  2 C s       :     3.247594  s :     3.247594
      pz      :     0.906742  p :     2.914068
      px      :     1.021519
      py      :     0.985806
      dz2     :     0.019616  d :     0.097451
      dxz     :     0.012982
      dyz     :     0.028785
      dx2y2   :     0.023133
      dxy     :     0.012934
      f0      :     0.000768  f :     0.004824
      f+1     :     0.000730
      f-1     :     0.000988
      f+2     :     0.000529
      f-2     :     0.000641
      f+3     :     0.000335
      f-3     :     0.000833
  3 C s       :     3.255948  s :     3.255948
      pz      :     0.918776  p :     3.009061
      px      :     1.115159
      py      :     0.975126
      dz2     :     0.020851  d :     0.082372
      dxz     :     0.012989
      dyz     :     0.022891
      dx2y2   :     0.004913
      dxy     :     0.020728
      f0      :     0.000896  f :     0.004522
      f+1     :     0.000452
      f-1     :     0.001000
      f+2     :     0.000655
      f-2     :     0.000852
      f+3     :     0.000126
      f-3     :     0.000542
  4 H s       :     0.797477  s :     0.797477
      pz      :     0.003801  p :     0.019706
      px      :     0.008855
      py      :     0.007049
  5 H s       :     0.790793  s :     0.790793
      pz      :     0.004726  p :     0.020329
      px      :     0.008759
      py      :     0.006844
  6 C s       :     3.115067  s :     3.115067
      pz      :     0.762148  p :     2.235565
      px      :     0.671012
      py      :     0.802405
      dz2     :     0.043751  d :     0.303025
      dxz     :     0.048340
      dyz     :     0.065961
      dx2y2   :     0.082169
      dxy     :     0.062803
      f0      :     0.003122  f :     0.029448
      f+1     :     0.005445
      f-1     :     0.001556
      f+2     :     0.002734
      f-2     :     0.006303
      f+3     :     0.003718
      f-3     :     0.006570
  7 C s       :     3.159758  s :     3.159758
      pz      :     0.753103  p :     2.416666
      px      :     0.823211
      py      :     0.840352
      dz2     :     0.042654  d :     0.241579
      dxz     :     0.063757
      dyz     :     0.044791
      dx2y2   :     0.036904
      dxy     :     0.053474
      f0      :     0.003077  f :     0.017773
      f+1     :     0.002422
      f-1     :     0.002476
      f+2     :     0.003491
      f-2     :     0.003166
      f+3     :     0.002030
      f-3     :     0.001111
  8 C s       :     3.360938  s :     3.360938
      pz      :     1.172845  p :     3.185248
      px      :     0.887149
      py      :     1.125254
      dz2     :     0.003019  d :     0.030693
      dxz     :     0.007773
      dyz     :     0.006077
      dx2y2   :     0.008606
      dxy     :     0.005219
      f0      :     0.000499  f :     0.004014
      f+1     :     0.000112
      f-1     :     0.000536
      f+2     :     0.000730
      f-2     :     0.000844
      f+3     :     0.000916
      f-3     :     0.000377
  9 N s       :     3.449060  s :     3.449060
      pz      :     1.360476  p :     3.928402
      px      :     1.203805
      py      :     1.364121
      dz2     :     0.008389  d :     0.032379
      dxz     :     0.006062
      dyz     :     0.005850
      dx2y2   :     0.001964
      dxy     :     0.010114
      f0      :     0.000473  f :     0.002520
      f+1     :     0.000061
      f-1     :     0.000433
      f+2     :     0.000450
      f-2     :     0.000657
      f+3     :     0.000073
      f-3     :     0.000375
 10 H s       :     0.742365  s :     0.742365
      pz      :     0.008727  p :     0.036818
      px      :     0.015876
      py      :     0.012215
 11 H s       :     0.709154  s :     0.709154
      pz      :     0.012974  p :     0.042020
      px      :     0.014982
      py      :     0.014064
 12 H s       :     0.752869  s :     0.752869
      pz      :     0.005359  p :     0.037941
      px      :     0.019123
      py      :     0.013458
 13 H s       :     0.858858  s :     0.858858
      pz      :     0.009640  p :     0.024529
      px      :     0.005430
      py      :     0.009459
 14 H s       :     0.788186  s :     0.788186
      pz      :     0.008725  p :     0.034454
      px      :     0.013258
      py      :     0.012471
 15 F s       :     3.893585  s :     3.893585
      pz      :     1.729037  p :     5.187070
      px      :     1.582188
      py      :     1.875845
      dz2     :     0.003002  d :     0.017249
      dxz     :     0.005428
      dyz     :     0.001729
      dx2y2   :     0.003765
      dxy     :     0.003326
      f0      :     0.000083  f :     0.000842
      f+1     :     0.000190
      f-1     :     0.000018
      f+2     :     0.000204
      f-2     :     0.000133
      f+3     :     0.000113
      f-3     :     0.000100
 16 O s       :     3.828483  s :     3.828483
      pz      :     1.602822  p :     4.420038
      px      :     1.456269
      py      :     1.360948
      dz2     :     0.002920  d :     0.029340
      dxz     :     0.003343
      dyz     :     0.005186
      dx2y2   :     0.008909
      dxy     :     0.008983
      f0      :     0.000224  f :     0.001558
      f+1     :     0.000111
      f-1     :     0.000159
      f+2     :     0.000030
      f-2     :     0.000253
      f+3     :     0.000305
      f-3     :     0.000475
 17 C s       :     3.263238  s :     3.263238
      pz      :     1.010223  p :     2.923419
      px      :     1.018080
      py      :     0.895116
      dz2     :     0.027536  d :     0.096932
      dxz     :     0.005881
      dyz     :     0.014742
      dx2y2   :     0.025794
      dxy     :     0.022978
      f0      :     0.000378  f :     0.004725
      f+1     :     0.000443
      f-1     :     0.001099
      f+2     :     0.000528
      f-2     :     0.000608
      f+3     :     0.000795
      f-3     :     0.000875
 18 H s       :     0.813014  s :     0.813014
      pz      :     0.005376  p :     0.019301
      px      :     0.006368
      py      :     0.007556
 19 H s       :     0.798282  s :     0.798282
      pz      :     0.003330  p :     0.020524
      px      :     0.011655
      py      :     0.005539
 20 C s       :     3.235405  s :     3.235405
      pz      :     1.039468  p :     2.939846
      px      :     0.882166
      py      :     1.018212
      dz2     :     0.016785  d :     0.096801
      dxz     :     0.017625
      dyz     :     0.015712
      dx2y2   :     0.026416
      dxy     :     0.020263
      f0      :     0.000685  f :     0.004749
      f+1     :     0.000461
      f-1     :     0.000478
      f+2     :     0.000837
      f-2     :     0.000274
      f+3     :     0.000858
      f-3     :     0.001156
 21 H s       :     0.834665  s :     0.834665
      pz      :     0.011048  p :     0.019434
      px      :     0.004444
      py      :     0.003941
 22 H s       :     0.831212  s :     0.831212
      pz      :     0.004002  p :     0.019270
      px      :     0.010626
      py      :     0.004642
 23 C s       :     3.281310  s :     3.281310
      pz      :     1.091707  p :     2.969309
      px      :     0.871375
      py      :     1.006228
      dz2     :     0.014368  d :     0.093374
      dxz     :     0.019355
      dyz     :     0.013533
      dx2y2   :     0.026450
      dxy     :     0.019668
      f0      :     0.000707  f :     0.004693
      f+1     :     0.000372
      f-1     :     0.000463
      f+2     :     0.000700
      f-2     :     0.000307
      f+3     :     0.000967
      f-3     :     0.001177
 24 H s       :     0.837388  s :     0.837388
      pz      :     0.011607  p :     0.020246
      px      :     0.004425
      py      :     0.004214
 25 H s       :     0.824207  s :     0.824207
      pz      :     0.005500  p :     0.019295
      px      :     0.003981
      py      :     0.009814
 26 H s       :     0.781842  s :     0.781842
      pz      :     0.007110  p :     0.021114
      px      :     0.003825
      py      :     0.010179
 27 H s       :     0.826775  s :     0.826775
      pz      :     0.010685  p :     0.019292
      px      :     0.004193
      py      :     0.004415
 28 H s       :     0.822502  s :     0.822502
      pz      :     0.007418  p :     0.019288
      px      :     0.004019
      py      :     0.007851
 29 H s       :     0.808924  s :     0.808924
      pz      :     0.003629  p :     0.019631
      px      :     0.010980
      py      :     0.005022


                     *******************************
                     * LOEWDIN POPULATION ANALYSIS *
                     *******************************

----------------------
LOEWDIN ATOMIC CHARGES
----------------------
   0 C :   -0.298171
   1 N :    0.098347
   2 C :   -0.273235
   3 C :   -0.252100
   4 H :    0.152804
   5 H :    0.167108
   6 C :   -0.506732
   7 C :   -0.498984
   8 C :   -0.317990
   9 N :   -0.033082
  10 H :    0.158561
  11 H :    0.168541
  12 H :    0.178675
  13 H :    0.102877
  14 H :    0.100823
  15 F :    0.340726
  16 O :    0.099301
  17 C :   -0.289011
  18 H :    0.140162
  19 H :    0.146608
  20 C :   -0.284770
  21 H :    0.148120
  22 H :    0.142271
  23 C :   -0.284387
  24 H :    0.143513
  25 H :    0.145583
  26 H :    0.154603
  27 H :    0.146561
  28 H :    0.148443
  29 H :    0.154835

-------------------------------
LOEWDIN REDUCED ORBITAL CHARGES
-------------------------------
  0 C s       :     2.774445  s :     2.774445
      pz      :     0.913567  p :     3.009586
      px      :     1.052114
      py      :     1.043904
      dz2     :     0.104290  d :     0.462564
      dxz     :     0.074025
      dyz     :     0.146362
      dx2y2   :     0.049319
      dxy     :     0.088567
      f0      :     0.008838  f :     0.051576
      f+1     :     0.007970
      f-1     :     0.013318
      f+2     :     0.005146
      f-2     :     0.008484
      f+3     :     0.003883
      f-3     :     0.003936
  1 N s       :     2.914390  s :     2.914390
      pz      :     1.145563  p :     3.752942
      px      :     1.125491
      py      :     1.481888
      dz2     :     0.072412  d :     0.218679
      dxz     :     0.056171
      dyz     :     0.039031
      dx2y2   :     0.026837
      dxy     :     0.024228
      f0      :     0.003268  f :     0.015643
      f+1     :     0.002726
      f-1     :     0.002861
      f+2     :     0.002668
      f-2     :     0.002131
      f+3     :     0.000656
      f-3     :     0.001333
  2 C s       :     2.767355  s :     2.767355
      pz      :     1.000313  p :     3.078552
      px      :     1.040366
      py      :     1.037873
      dz2     :     0.080590  d :     0.390589
      dxz     :     0.051596
      dyz     :     0.114900
      dx2y2   :     0.083655
      dxy     :     0.059848
      f0      :     0.005297  f :     0.036739
      f+1     :     0.006592
      f-1     :     0.005949
      f+2     :     0.005377
      f-2     :     0.004653
      f+3     :     0.003151
      f-3     :     0.005719
  3 C s       :     2.774668  s :     2.774668
      pz      :     1.017843  p :     3.087281
      px      :     1.049950
      py      :     1.019489
      dz2     :     0.090554  d :     0.355469
      dxz     :     0.059476
      dyz     :     0.095704
      dx2y2   :     0.024717
      dxy     :     0.085018
      f0      :     0.006723  f :     0.034682
      f+1     :     0.005109
      f-1     :     0.005921
      f+2     :     0.006663
      f-2     :     0.004623
      f+3     :     0.001614
      f-3     :     0.004030
  4 H s       :     0.787518  s :     0.787518
      pz      :     0.012429  p :     0.059678
      px      :     0.026862
      py      :     0.020387
  5 H s       :     0.773030  s :     0.773030
      pz      :     0.014728  p :     0.059862
      px      :     0.026060
      py      :     0.019074
  6 C s       :     2.776247  s :     2.776247
      pz      :     0.824880  p :     2.596342
      px      :     0.818200
      py      :     0.953262
      dz2     :     0.140645  d :     0.957621
      dxz     :     0.179640
      dyz     :     0.179988
      dx2y2   :     0.240575
      dxy     :     0.216773
      f0      :     0.020587  f :     0.176522
      f+1     :     0.030025
      f-1     :     0.010162
      f+2     :     0.022656
      f-2     :     0.031801
      f+3     :     0.022818
      f-3     :     0.038472
  7 C s       :     2.699117  s :     2.699117
      pz      :     0.902305  p :     2.823049
      px      :     1.056788
      py      :     0.863955
      dz2     :     0.165607  d :     0.860560
      dxz     :     0.243718
      dyz     :     0.142156
      dx2y2   :     0.140119
      dxy     :     0.168960
      f0      :     0.024175  f :     0.116257
      f+1     :     0.016331
      f-1     :     0.014859
      f+2     :     0.019950
      f-2     :     0.016635
      f+3     :     0.012597
      f-3     :     0.011710
  8 C s       :     2.800634  s :     2.800634
      pz      :     1.097170  p :     3.262401
      px      :     1.076446
      py      :     1.088785
      dz2     :     0.021472  d :     0.225023
      dxz     :     0.065270
      dyz     :     0.024837
      dx2y2   :     0.043337
      dxy     :     0.070107
      f0      :     0.003638  f :     0.029931
      f+1     :     0.003484
      f-1     :     0.002360
      f+2     :     0.003979
      f-2     :     0.004093
      f+3     :     0.006153
      f-3     :     0.006225
  9 N s       :     2.983557  s :     2.983557
      pz      :     1.371436  p :     3.883313
      px      :     1.194505
      py      :     1.317372
      dz2     :     0.035097  d :     0.154099
      dxz     :     0.032016
      dyz     :     0.025614
      dx2y2   :     0.014693
      dxy     :     0.046679
      f0      :     0.002838  f :     0.012113
      f+1     :     0.001109
      f-1     :     0.001862
      f+2     :     0.002164
      f-2     :     0.001914
      f+3     :     0.000695
      f-3     :     0.001531
 10 H s       :     0.733498  s :     0.733498
      pz      :     0.028186  p :     0.107940
      px      :     0.043766
      py      :     0.035988
 11 H s       :     0.711691  s :     0.711691
      pz      :     0.035204  p :     0.119768
      px      :     0.045906
      py      :     0.038659
 12 H s       :     0.715498  s :     0.715498
      pz      :     0.016922  p :     0.105827
      px      :     0.048116
      py      :     0.040790
 13 H s       :     0.819223  s :     0.819223
      pz      :     0.031598  p :     0.077900
      px      :     0.017985
      py      :     0.028317
 14 H s       :     0.790609  s :     0.790609
      pz      :     0.028287  p :     0.108568
      px      :     0.040535
      py      :     0.039745
 15 F s       :     3.522711  s :     3.522711
      pz      :     1.700242  p :     5.096404
      px      :     1.629090
      py      :     1.767073
      dz2     :     0.005818  d :     0.038075
      dxz     :     0.013143
      dyz     :     0.003588
      dx2y2   :     0.007799
      dxy     :     0.007726
      f0      :     0.000179  f :     0.002083
      f+1     :     0.000460
      f-1     :     0.000040
      f+2     :     0.000470
      f-2     :     0.000366
      f+3     :     0.000267
      f-3     :     0.000301
 16 O s       :     3.420686  s :     3.420686
      pz      :     1.500153  p :     4.410182
      px      :     1.462242
      py      :     1.447787
      dz2     :     0.009640  d :     0.064620
      dxz     :     0.005180
      dyz     :     0.009037
      dx2y2   :     0.014580
      dxy     :     0.026184
      f0      :     0.000505  f :     0.005211
      f+1     :     0.000443
      f-1     :     0.000668
      f+2     :     0.000086
      f-2     :     0.000705
      f+3     :     0.001557
      f-3     :     0.001248
 17 C s       :     2.773845  s :     2.773845
      pz      :     1.027441  p :     3.086462
      px      :     1.027561
      py      :     1.031460
      dz2     :     0.099906  d :     0.392566
      dxz     :     0.032769
      dyz     :     0.069913
      dx2y2   :     0.098679
      dxy     :     0.091299
      f0      :     0.002779  f :     0.036138
      f+1     :     0.004101
      f-1     :     0.006581
      f+2     :     0.004850
      f-2     :     0.005217
      f+3     :     0.006116
      f-3     :     0.006493
 18 H s       :     0.801825  s :     0.801825
      pz      :     0.015955  p :     0.058013
      px      :     0.020686
      py      :     0.021372
 19 H s       :     0.792791  s :     0.792791
      pz      :     0.010446  p :     0.060601
      px      :     0.033230
      py      :     0.016926
 20 C s       :     2.762753  s :     2.762753
      pz      :     1.031031  p :     3.085882
      px      :     1.026177
      py      :     1.028674
      dz2     :     0.073944  d :     0.398795
      dxz     :     0.076209
      dyz     :     0.058895
      dx2y2   :     0.106190
      dxy     :     0.083558
      f0      :     0.004471  f :     0.037340
      f+1     :     0.004586
      f-1     :     0.002962
      f+2     :     0.007138
      f-2     :     0.004242
      f+3     :     0.005764
      f-3     :     0.008176
 21 H s       :     0.793935  s :     0.793935
      pz      :     0.030129  p :     0.057945
      px      :     0.014729
      py      :     0.013087
 22 H s       :     0.800095  s :     0.800095
      pz      :     0.013129  p :     0.057635
      px      :     0.029515
      py      :     0.014991
 23 C s       :     2.763897  s :     2.763897
      pz      :     1.037342  p :     3.092224
      px      :     1.016564
      py      :     1.038319
      dz2     :     0.065080  d :     0.391218
      dxz     :     0.072152
      dyz     :     0.060466
      dx2y2   :     0.104656
      dxy     :     0.088864
      f0      :     0.004703  f :     0.037047
      f+1     :     0.004132
      f-1     :     0.002692
      f+2     :     0.006440
      f-2     :     0.004436
      f+3     :     0.006421
      f-3     :     0.008224
 24 H s       :     0.797700  s :     0.797700
      pz      :     0.030856  p :     0.058787
      px      :     0.014359
      py      :     0.013572
 25 H s       :     0.796486  s :     0.796486
      pz      :     0.018174  p :     0.057931
      px      :     0.013164
      py      :     0.026594
 26 H s       :     0.782452  s :     0.782452
      pz      :     0.021406  p :     0.062946
      px      :     0.013220
      py      :     0.028319
 27 H s       :     0.795568  s :     0.795568
      pz      :     0.030184  p :     0.057871
      px      :     0.013540
      py      :     0.014147
 28 H s       :     0.793492  s :     0.793492
      pz      :     0.020978  p :     0.058065
      px      :     0.013458
      py      :     0.023629
 29 H s       :     0.786180  s :     0.786180
      pz      :     0.012229  p :     0.058985
      px      :     0.030352
      py      :     0.016404


                      *****************************
                      * MAYER POPULATION ANALYSIS *
                      *****************************

  NA   - Mulliken gross atomic population
  ZA   - Total nuclear charge
  QA   - Mulliken gross atomic charge
  VA   - Mayer's total valence
  BVA  - Mayer's bonded valence
  FA   - Mayer's free valence

  ATOM       NA         ZA         QA         VA         BVA        FA
  0 C      6.2795     6.0000    -0.2795     3.8918     3.8918    -0.0000
  1 N      7.2689     7.0000    -0.2689     2.9564     2.9564     0.0000
  2 C      6.2639     6.0000    -0.2639     3.8202     3.8202     0.0000
  3 C      6.3519     6.0000    -0.3519     3.7788     3.7788     0.0000
  4 H      0.8172     1.0000     0.1828     0.9510     0.9510    -0.0000
  5 H      0.8111     1.0000     0.1889     0.9601     0.9601     0.0000
  6 C      5.6831     6.0000     0.3169     4.2221     4.2221     0.0000
  7 C      5.8358     6.0000     0.1642     3.8074     3.8074     0.0000
  8 C      6.5809     6.0000    -0.5809     3.6887     3.6887    -0.0000
  9 N      7.4124     7.0000    -0.4124     3.0115     3.0115     0.0000
 10 H      0.7792     1.0000     0.2208     0.9593     0.9593     0.0000
 11 H      0.7512     1.0000     0.2488     0.9737     0.9737     0.0000
 12 H      0.7908     1.0000     0.2092     0.9617     0.9617     0.0000
 13 H      0.8834     1.0000     0.1166     0.9948     0.9948    -0.0000
 14 H      0.8226     1.0000     0.1774     1.0062     1.0062    -0.0000
 15 F      9.0987     9.0000    -0.0987     1.2026     1.2026    -0.0000
 16 O      8.2794     8.0000    -0.2794     2.1151     2.1151     0.0000
 17 C      6.2883     6.0000    -0.2883     3.8240     3.8240    -0.0000
 18 H      0.8323     1.0000     0.1677     0.9675     0.9675    -0.0000
 19 H      0.8188     1.0000     0.1812     0.9507     0.9507    -0.0000
 20 C      6.2768     6.0000    -0.2768     3.6585     3.6585    -0.0000
 21 H      0.8541     1.0000     0.1459     0.9683     0.9683    -0.0000
 22 H      0.8505     1.0000     0.1495     0.9613     0.9613    -0.0000
 23 C      6.3487     6.0000    -0.3487     3.7032     3.7032    -0.0000
 24 H      0.8576     1.0000     0.1424     0.9637     0.9637    -0.0000
 25 H      0.8435     1.0000     0.1565     0.9601     0.9601    -0.0000
 26 H      0.8030     1.0000     0.1970     0.9567     0.9567    -0.0000
 27 H      0.8461     1.0000     0.1539     0.9653     0.9653     0.0000
 28 H      0.8418     1.0000     0.1582     0.9571     0.9571     0.0000
 29 H      0.8286     1.0000     0.1714     0.9614     0.9614     0.0000

  Mayer bond orders larger than 0.100000
B(  0-C ,  1-N ) :   0.9029 B(  0-C , 17-C ) :   0.9445 B(  0-C , 18-H ) :   0.9875 
B(  0-C , 19-H ) :   0.9842 B(  1-N ,  7-C ) :   1.1044 B(  1-N , 12-H ) :   0.9318 
B(  2-C ,  3-C ) :   0.9276 B(  2-C , 23-C ) :   0.9525 B(  2-C , 28-H ) :   0.9774 
B(  2-C , 29-H ) :   0.9743 B(  3-C ,  4-H ) :   0.9628 B(  3-C ,  5-H ) :   0.9481 
B(  3-C ,  6-C ) :   0.9729 B(  6-C , 15-F ) :   1.1299 B(  6-C , 16-O ) :   2.0455 
B(  7-C ,  8-C ) :   1.5919 B(  7-C ,  9-N ) :   1.1357 B(  8-C , 13-H ) :   1.0402 
B(  8-C , 14-H ) :   0.9887 B(  9-N , 10-H ) :   0.9299 B(  9-N , 11-H ) :   0.9135 
B( 17-C , 20-C ) :   0.9540 B( 17-C , 21-H ) :   0.9810 B( 17-C , 22-H ) :   0.9878 
B( 20-C , 23-C ) :   0.8750 B( 20-C , 24-H ) :   0.9631 B( 20-C , 25-H ) :   0.9781 
B( 23-C , 26-H ) :   0.9720 B( 23-C , 27-H ) :   0.9757 

-------
TIMINGS
-------

Total SCF time: 0 days 0 hours 0 min 54 sec 

Total time                  ....      54.421 sec
Sum of individual times     ....      53.311 sec  ( 98.0%)

Fock matrix formation       ....      49.827 sec  ( 91.6%)
  Split-RI-J                ....       3.877 sec  (  7.8% of F)
  Chain of spheres X        ....      41.158 sec  ( 82.6% of F)
  XC integration            ....       4.498 sec  (  9.0% of F)
    Basis function eval.    ....       1.200 sec  ( 26.7% of XC)
    Density eval.           ....       1.311 sec  ( 29.1% of XC)
    XC-Functional eval.     ....       0.163 sec  (  3.6% of XC)
    XC-Potential eval.      ....       1.201 sec  ( 26.7% of XC)
Diagonalization             ....       0.622 sec  (  1.1%)
Density matrix formation    ....       0.045 sec  (  0.1%)
Population analysis         ....       0.077 sec  (  0.1%)
Initial guess               ....       0.348 sec  (  0.6%)
Orbital Transformation      ....       0.000 sec  (  0.0%)
Orbital Orthonormalization  ....       0.000 sec  (  0.0%)
DIIS solution               ....       0.343 sec  (  0.6%)
SOSCF solution              ....       0.467 sec  (  0.9%)
Grid generation             ....       1.583 sec  (  2.9%)

Maximum memory used throughout the entire SCF-calculation: 82.9 MB

-------------------------   --------------------
FINAL SINGLE POINT ENERGY      -635.976387556798
-------------------------   --------------------


                            ***************************************
                            *     ORCA property calculations      *
                            ***************************************

                                    ---------------------
                                    Active property flags
                                    ---------------------
   (+) Dipole Moment


------------------------------------------------------------------------------
                       ORCA ELECTRIC PROPERTIES CALCULATION
------------------------------------------------------------------------------

Dipole Moment Calculation                       ... on
Quadrupole Moment Calculation                   ... off
Polarizability Calculation                      ... off
GBWName                                         ... LC_PBE_D2_wb97.gbw
Electron density file                           ... LC_PBE_D2_wb97.scfp
The origin for moment calculation is the CENTER OF MASS  = ( 1.565836, -2.373624 -7.629306)

-------------
DIPOLE MOMENT
-------------
                                X             Y             Z
Electronic contribution:     -1.45934       2.26072     -13.49762
Nuclear contribution   :      2.00823      -0.28769      14.57028
                        -----------------------------------------
Total Dipole Moment    :      0.54889       1.97303       1.07266
                        -----------------------------------------
Magnitude (a.u.)       :      2.31187
Magnitude (Debye)      :      5.87631



--------------------
Rotational spectrum 
--------------------
 
Rotational constants in cm-1:     0.033070     0.023715     0.016943 
Rotational constants in MHz :   991.423248   710.957140   507.940500 

 Dipole components along the rotational axes: 
x,y,z [a.u.] :     0.492228     1.387694    -1.782347 
x,y,z [Debye]:     1.251144     3.527237    -4.530367 

 

Timings for individual modules:

Sum of individual times         ...       56.051 sec (=   0.934 min)
GTO integral calculation        ...        1.161 sec (=   0.019 min)   2.1 %
SCF iterations                  ...       54.890 sec (=   0.915 min)  97.9 %
                             ****ORCA TERMINATED NORMALLY****
TOTAL RUN TIME: 0 days 0 hours 0 minutes 56 seconds 726 msec
