
                                        *****************
                                        * O   R   C   A *
                                        *****************

                                            #,                                       
                                            ###                                      
                                            ####                                     
                                            #####                                    
                                            ######                                   
                                           ########,                                 
                                     ,,################,,,,,                         
                               ,,#################################,,                 
                          ,,##########################################,,             
                       ,#########################################, ''#####,          
                    ,#############################################,,   '####,        
                  ,##################################################,,,,####,       
                ,###########''''           ''''###############################       
              ,#####''   ,,,,##########,,,,          '''####'''          '####       
            ,##' ,,,,###########################,,,                        '##       
           ' ,,###''''                  '''############,,,                           
         ,,##''                                '''############,,,,        ,,,,,,###''
      ,#''                                            '''#######################'''  
     '                                                          ''''####''''         
             ,#######,   #######,   ,#######,      ##                                
            ,#'     '#,  ##    ##  ,#'     '#,    #''#        ######   ,####,        
            ##       ##  ##   ,#'  ##            #'  '#       #        #'  '#        
            ##       ##  #######   ##           ,######,      #####,   #    #        
            '#,     ,#'  ##    ##  '#,     ,#' ,#      #,         ##   #,  ,#        
             '#######'   ##     ##  '#######'  #'      '#     #####' # '####'        



                  #######################################################
                  #                        -***-                        #
                  #          Department of theory and spectroscopy      #
                  #    Directorship and core code : Frank Neese         #
                  #        Max Planck Institute fuer Kohlenforschung    #
                  #                Kaiser Wilhelm Platz 1               #
                  #                 D-45470 Muelheim/Ruhr               #
                  #                      Germany                        #
                  #                                                     #
                  #                  All rights reserved                #
                  #                        -***-                        #
                  #######################################################


                         Program Version 5.0.0 -  RELEASE  -
                                (SVN: $Rev: 19529$)
                ($Date: 2021-06-28 11:36:33 +0200 (Mo, 28 Jun 2021) $)


 With contributions from (in alphabetic order):
   Daniel Aravena         : Magnetic Suceptibility
   Michael Atanasov       : Ab Initio Ligand Field Theory (pilot matlab implementation)
   Alexander A. Auer      : GIAO ZORA, VPT2 properties, NMR spectrum
   Ute Becker             : Parallelization
   Giovanni Bistoni       : ED, misc. LED, open-shell LED, HFLD
   Martin Brehm           : Molecular dynamics
   Dmytro Bykov           : SCF Hessian
   Vijay G. Chilkuri      : MRCI spin determinant printing, contributions to CSF-ICE
   Dipayan Datta          : RHF DLPNO-CCSD density
   Achintya Kumar Dutta   : EOM-CC, STEOM-CC
   Dmitry Ganyushin       : Spin-Orbit,Spin-Spin,Magnetic field MRCI
   Miquel Garcia          : C-PCM Hessian, Gaussian charge scheme
   Yang Guo               : DLPNO-NEVPT2, F12-NEVPT2, CIM, IAO-localization
   Andreas Hansen         : Spin unrestricted coupled pair/coupled cluster methods
   Benjamin Helmich-Paris : MC-RPA, TRAH-SCF, COSX integrals
   Lee Huntington         : MR-EOM, pCC
   Robert Izsak           : Overlap fitted RIJCOSX, COSX-SCS-MP3, EOM
   Marcus Kettner         : VPT2
   Christian Kollmar      : KDIIS, OOCD, Brueckner-CCSD(T), CCSD density, CASPT2, CASPT2-K
   Simone Kossmann        : Meta GGA functionals, TD-DFT gradient, OOMP2, MP2 Hessian
   Martin Krupicka        : Initial AUTO-CI
   Lucas Lang             : DCDCAS
   Marvin Lechner         : AUTO-CI (C++ implementation), FIC-MRCC
   Dagmar Lenk            : GEPOL surface, SMD
   Dimitrios Liakos       : Extrapolation schemes; Compound Job, initial MDCI parallelization
   Dimitrios Manganas     : Further ROCIS development; embedding schemes
   Dimitrios Pantazis     : SARC Basis sets
   Anastasios Papadopoulos: AUTO-CI, single reference methods and gradients
   Taras Petrenko         : DFT Hessian,TD-DFT gradient, ASA, ECA, R-Raman, ABS, FL, XAS/XES, NRVS
   Peter Pinski           : DLPNO-MP2, DLPNO-MP2 Gradient
   Christoph Reimann      : Effective Core Potentials
   Marius Retegan         : Local ZFS, SOC
   Christoph Riplinger    : Optimizer, TS searches, QM/MM, DLPNO-CCSD(T), (RO)-DLPNO pert. Triples
   Tobias Risthaus        : Range-separated hybrids, TD-DFT gradient, RPA, STAB
   Michael Roemelt        : Original ROCIS implementation
   Masaaki Saitow         : Open-shell DLPNO-CCSD energy and density
   Barbara Sandhoefer     : DKH picture change effects
   Avijit Sen             : IP-ROCIS
   Kantharuban Sivalingam : CASSCF convergence, NEVPT2, FIC-MRCI
   Bernardo de Souza      : ESD, SOC TD-DFT
   Georgi Stoychev        : AutoAux, RI-MP2 NMR
   Willem Van den Heuvel  : Paramagnetic NMR
   Boris Wezisla          : Elementary symmetry handling
   Frank Wennmohs         : Technical directorship


 We gratefully acknowledge several colleagues who have allowed us to
 interface, adapt or use parts of their codes:
   Stefan Grimme, W. Hujo, H. Kruse, P. Pracht,  : VdW corrections, initial TS optimization,
                  C. Bannwarth, S. Ehlert          DFT functionals, gCP, sTDA/sTD-DF
   Ed Valeev, F. Pavosevic, A. Kumar             : LibInt (2-el integral package), F12 methods
   Garnet Chan, S. Sharma, J. Yang, R. Olivares  : DMRG
   Ulf Ekstrom                                   : XCFun DFT Library
   Mihaly Kallay                                 : mrcc  (arbitrary order and MRCC methods)
   Jiri Pittner, Ondrej Demel                    : Mk-CCSD
   Frank Weinhold                                : gennbo (NPA and NBO analysis)
   Christopher J. Cramer and Donald G. Truhlar   : smd solvation model
   Lars Goerigk                                  : TD-DFT with DH, B97 family of functionals
   V. Asgeirsson, H. Jonsson                     : NEB implementation
   FAccTs GmbH                                   : IRC, NEB, NEB-TS, DLPNO-Multilevel, CI-OPT
                                                   MM, QMMM, 2- and 3-layer-ONIOM, Crystal-QMMM,
                                                   LR-CPCM, SF, NACMEs, symmetry and pop. for TD-DFT,
                                                   nearIR, NL-DFT gradient (VV10), updates on ESD,
                                                   ML-optimized integration grids
   S Lehtola, MJT Oliveira, MAL Marques          : LibXC Library
   Liviu Ungur et al                             : ANISO software


 Your calculation uses the libint2 library for the computation of 2-el integrals
 For citations please refer to: http://libint.valeyev.net

 Your ORCA version has been built with support for libXC version: 5.1.0
 For citations please refer to: https://tddft.org/programs/libxc/

 This ORCA versions uses:
   CBLAS   interface :  Fast vector & matrix operations
   LAPACKE interface :  Fast linear algebra routines
   SCALAPACK package :  Parallel linear algebra routines
   Shared memory     :  Shared parallel matrices
   BLAS/LAPACK       :  OpenBLAS 0.3.15  USE64BITINT DYNAMIC_ARCH NO_AFFINITY Haswell SINGLE_THREADED
        Core in use  :  Haswell
   Copyright (c) 2011-2014, The OpenBLAS Project




***************************************
The coordinates will be read from file: B.xyz
***************************************


Your calculation utilizes the atom-pairwise dispersion correction
with the zero-damping scheme (D30)
Cite in your paper:
S.Grimme, J.Antony, S.Ehrlich and H.Krieg, J.Chem.Phys., 132, (2010), 154104 
   

XCFun DFT library Copyright 2009-2010 Ulf Ekstrom and contributors.
See http://admol.org/xcfun for more information.
This is free software; see the source code for copying conditions.
There is ABSOLUTELY NO WARRANTY; not even for MERCHANTABILITY or FITNESS FOR A PARTICULAR PURPOSE.
For details see the documentation.
Scientific users of this library should cite U. Ekstrom, L. Visscher, R. Bast, A. J. Thorvaldsen and K. Ruud;
J.Chem.Theor.Comp. 2010, DOI: 10.1021/ct100117s
XCFun Version 0.99 

================================================================================

----- Orbital basis set information -----
Your calculation utilizes the basis: def2-TZVP
   F. Weigend and R. Ahlrichs, Phys. Chem. Chem. Phys. 7, 3297 (2005).

----- AuxJ basis set information -----
Your calculation utilizes the auxiliary basis: def2/J
   F. Weigend, Phys. Chem. Chem. Phys. 8, 1057 (2006).

================================================================================
                                        WARNINGS
                       Please study these warnings very carefully!
================================================================================


INFO   : the flag for use of the SHARK integral package has been found!

================================================================================
                                       INPUT FILE
================================================================================
NAME = B.com
|  1> !wB97X-D3 RIJCOSX def2-TZVP def2/J TightSCF xyzfile                                                                                         
|  2> 
|  3> *xyzfile 0 1 B.xyz
|  4> 
|  5> %MaxCore 64000
|  6> 
|  7> %pal nprocs 18                                                                                                                                                  
|  8> end  
|  9> 
| 10> %scf
| 11>   MaxIter 150
| 12> end
| 13> 
| 14> 
| 15>                          ****END OF INPUT****
================================================================================

                       ****************************
                       * Single Point Calculation *
                       ****************************

---------------------------------
CARTESIAN COORDINATES (ANGSTROEM)
---------------------------------
  C      2.486452   -2.677121   -2.563447
  C     -0.870963    0.248043   -2.662804
  C     -0.477492    0.608191   -4.101052
  H      0.206773    1.458299   -4.118748
  H     -1.368442    0.929419   -4.647855
  C      0.184673   -0.506640   -4.916760
  C      3.037640   -2.366715   -3.923509
  N      2.280360   -2.454408   -4.967692
  N      4.321736   -2.017932   -4.016641
  H      4.879940   -1.911668   -3.173823
  H      4.710148   -1.670882   -4.883561
  H      1.270423   -2.412650   -4.866143
  H      2.581829   -2.055282   -5.846878
  O     -0.158685   -1.701088   -4.657981
  O      1.055938   -0.174410   -5.740373
  C      2.497991   -1.469464   -1.610303
  C      1.582841   -0.321986   -2.042619
  H      2.193083   -1.833912   -0.625420
  H      3.523356   -1.103982   -1.490392
  C      0.100160   -0.673551   -1.915815
  H      1.822311   -0.040361   -3.072834
  H      1.813180    0.557019   -1.433266
  H     -0.063284   -1.679120   -2.301112
  H     -0.168820   -0.691680   -0.853831
  H     -1.001048    1.181040   -2.104071
  H     -1.844645   -0.246592   -2.663281
  H      1.472592   -3.051527   -2.694366
  H      3.083201   -3.490638   -2.141472

----------------------------
CARTESIAN COORDINATES (A.U.)
----------------------------
  NO LB      ZA    FRAG     MASS         X           Y           Z
   0 C     6.0000    0    12.011    4.698713   -5.059026   -4.844214
   1 C     6.0000    0    12.011   -1.645881    0.468734   -5.031970
   2 C     6.0000    0    12.011   -0.902329    1.149314   -7.749864
   3 H     1.0000    0     1.008    0.390744    2.755786   -7.783305
   4 H     1.0000    0     1.008   -2.585980    1.756347   -8.783173
   5 C     6.0000    0    12.011    0.348982   -0.957411   -9.291330
   6 C     6.0000    0    12.011    5.740308   -4.472444   -7.414358
   7 N     7.0000    0    14.007    4.309256   -4.638160   -9.387577
   8 N     7.0000    0    14.007    8.166898   -3.813339   -7.590352
   9 H     1.0000    0     1.008    9.221751   -3.612530   -5.997657
  10 H     1.0000    0     1.008    8.900891   -3.157510   -9.228594
  11 H     1.0000    0     1.008    2.400752   -4.559248   -9.195678
  12 H     1.0000    0     1.008    4.878950   -3.883920  -11.048997
  13 O     8.0000    0    15.999   -0.299872   -3.214590   -8.802309
  14 O     8.0000    0    15.999    1.995434   -0.329587  -10.847733
  15 C     6.0000    0    12.011    4.720518   -2.776884   -3.043032
  16 C     6.0000    0    12.011    2.991136   -0.608465   -3.859991
  17 H     1.0000    0     1.008    4.144326   -3.465591   -1.181872
  18 H     1.0000    0     1.008    6.658177   -2.086223   -2.816433
  19 C     6.0000    0    12.011    0.189274   -1.272828   -3.620365
  20 H     1.0000    0     1.008    3.443670   -0.076270   -5.806816
  21 H     1.0000    0     1.008    3.426413    1.052613   -2.708480
  22 H     1.0000    0     1.008   -0.119590   -3.173077   -4.348471
  23 H     1.0000    0     1.008   -0.319023   -1.307086   -1.613507
  24 H     1.0000    0     1.008   -1.891707    2.231842   -3.976118
  25 H     1.0000    0     1.008   -3.485874   -0.465991   -5.032871
  26 H     1.0000    0     1.008    2.782796   -5.766551   -5.091613
  27 H     1.0000    0     1.008    5.826406   -6.596350   -4.046796

--------------------------------
INTERNAL COORDINATES (ANGSTROEM)
--------------------------------
 C      0   0   0     0.000000000000     0.00000000     0.00000000
 C      1   0   0     4.454064584838     0.00000000     0.00000000
 C      2   1   0     1.533976128106    88.95459771     0.00000000
 H      3   2   1     1.091428365082   111.03171716   267.18333495
 H      3   2   1     1.093605109075   109.19532305   150.78855748
 C      3   2   1     1.531891446481   116.05722258    29.22456704
 C      1   2   3     1.499976287048    96.94160158     3.38330059
 N      7   1   2     1.292857194550   120.20153047   303.68195089
 N      7   1   2     1.333876682499   118.11023474   124.45999682
 H      9   7   1     1.016476835198   119.87469438   356.11519397
 H      9   7   1     1.011364586483   121.28466771   188.91527382
 H      8   7   1     1.015888226098   119.91986722    21.20577831
 H      8   7   1     1.011510284844   120.04373343   166.48528981
 O      6   3   2     1.269474918861   117.34059584    31.12063894
 O      6   3   2     1.244113151722   117.44399281   214.04914813
 C      1   2   3     1.538522864266    60.26212524   116.36906125
 C     16   1   2     1.530066108002   114.15104694   340.47209586
 H     16   1   2     1.093520442632   107.11405723   102.15692623
 H     16   1   2     1.095138864356   109.68305791   216.63029446
 C     17  16   1     1.529059344857   112.58830136    69.60978898
 H     17  16   1     1.094532649112   109.15039882   306.58294366
 H     17  16   1     1.094082501574   108.61687115   191.73619769
 H     20  17  16     1.089190578302   109.17429135   316.14372051
 H     20  17  16     1.095667243895   108.79798208    72.47390166
 H      2   1   3     1.095256859472   129.61268061   247.30838146
 H      2   1   3     1.092117796530   111.99987238   110.70635839
 H      1   2   3     1.088683249565    61.39264096   256.95470119
 H      1   2   3     1.093610044098   155.29380908   188.74897233

---------------------------
INTERNAL COORDINATES (A.U.)
---------------------------
 C      0   0   0     0.000000000000     0.00000000     0.00000000
 C      1   0   0     8.416962248141     0.00000000     0.00000000
 C      2   1   0     2.898794778093    88.95459771     0.00000000
 H      3   2   1     2.062500704798   111.03171716   267.18333495
 H      3   2   1     2.066614154809   109.19532305   150.78855748
 C      3   2   1     2.894855300746   116.05722258    29.22456704
 C      1   2   3     2.834544389897    96.94160158     3.38330059
 N      7   1   2     2.443146027969   120.20153047   303.68195089
 N      7   1   2     2.520661626346   118.11023474   124.45999682
 H      9   7   1     1.920862840000   119.87469438   356.11519397
 H      9   7   1     1.911202090000   121.28466771   188.91527382
 H      8   7   1     1.919750530000   119.91986722    21.20577831
 H      8   7   1     1.911477420000   120.04373343   166.48528981
 O      6   3   2     2.398959930530   117.34059584    31.12063894
 O      6   3   2     2.351033136364   117.44399281   214.04914813
 C      1   2   3     2.907386864238    60.26212524   116.36906125
 C     16   1   2     2.891405910918   114.15104694   340.47209586
 H     16   1   2     2.066454158419   107.11405723   102.15692623
 H     16   1   2     2.069512532246   109.68305791   216.63029446
 C     17  16   1     2.889503404292   112.58830136    69.60978898
 H     17  16   1     2.068366951457   109.15039882   306.58294366
 H     17  16   1     2.067516295890   108.61687115   191.73619769
 H     20  17  16     2.058271900637   109.17429135   316.14372051
 H     20  17  16     2.070511024871   108.79798208    72.47390166
 H      2   1   3     2.069735510701   129.61268061   247.30838146
 H      2   1   3     2.063803541424   111.99987238   110.70635839
 H      1   2   3     2.057313188266    61.39264096   256.95470119
 H      1   2   3     2.066623480650   155.29380908   188.74897233

---------------------
BASIS SET INFORMATION
---------------------
There are 4 groups of distinct atoms

 Group   1 Type C   : 11s6p2d1f contracted to 5s3p2d1f pattern {62111/411/11/1}
 Group   2 Type H   : 5s1p contracted to 3s1p pattern {311/1}
 Group   3 Type N   : 11s6p2d1f contracted to 5s3p2d1f pattern {62111/411/11/1}
 Group   4 Type O   : 11s6p2d1f contracted to 5s3p2d1f pattern {62111/411/11/1}

Atom   0C    basis set group =>   1
Atom   1C    basis set group =>   1
Atom   2C    basis set group =>   1
Atom   3H    basis set group =>   2
Atom   4H    basis set group =>   2
Atom   5C    basis set group =>   1
Atom   6C    basis set group =>   1
Atom   7N    basis set group =>   3
Atom   8N    basis set group =>   3
Atom   9H    basis set group =>   2
Atom  10H    basis set group =>   2
Atom  11H    basis set group =>   2
Atom  12H    basis set group =>   2
Atom  13O    basis set group =>   4
Atom  14O    basis set group =>   4
Atom  15C    basis set group =>   1
Atom  16C    basis set group =>   1
Atom  17H    basis set group =>   2
Atom  18H    basis set group =>   2
Atom  19C    basis set group =>   1
Atom  20H    basis set group =>   2
Atom  21H    basis set group =>   2
Atom  22H    basis set group =>   2
Atom  23H    basis set group =>   2
Atom  24H    basis set group =>   2
Atom  25H    basis set group =>   2
Atom  26H    basis set group =>   2
Atom  27H    basis set group =>   2
---------------------------------
AUXILIARY/J BASIS SET INFORMATION
---------------------------------
There are 4 groups of distinct atoms

 Group   1 Type C   : 12s5p4d2f1g contracted to 6s4p3d1f1g pattern {711111/2111/211/2/1}
 Group   2 Type H   : 5s2p1d contracted to 3s1p1d pattern {311/2/1}
 Group   3 Type N   : 12s5p4d2f1g contracted to 6s4p3d1f1g pattern {711111/2111/211/2/1}
 Group   4 Type O   : 12s5p4d2f1g contracted to 6s4p3d1f1g pattern {711111/2111/211/2/1}

Atom   0C    basis set group =>   1
Atom   1C    basis set group =>   1
Atom   2C    basis set group =>   1
Atom   3H    basis set group =>   2
Atom   4H    basis set group =>   2
Atom   5C    basis set group =>   1
Atom   6C    basis set group =>   1
Atom   7N    basis set group =>   3
Atom   8N    basis set group =>   3
Atom   9H    basis set group =>   2
Atom  10H    basis set group =>   2
Atom  11H    basis set group =>   2
Atom  12H    basis set group =>   2
Atom  13O    basis set group =>   4
Atom  14O    basis set group =>   4
Atom  15C    basis set group =>   1
Atom  16C    basis set group =>   1
Atom  17H    basis set group =>   2
Atom  18H    basis set group =>   2
Atom  19C    basis set group =>   1
Atom  20H    basis set group =>   2
Atom  21H    basis set group =>   2
Atom  22H    basis set group =>   2
Atom  23H    basis set group =>   2
Atom  24H    basis set group =>   2
Atom  25H    basis set group =>   2
Atom  26H    basis set group =>   2
Atom  27H    basis set group =>   2


           ************************************************************
           *        Program running with 18 parallel MPI-processes    *
           *              working on a common directory               *
           ************************************************************
------------------------------------------------------------------------------
                           ORCA GTO INTEGRAL CALCULATION
                           -- RI-GTO INTEGRALS CHOSEN --
------------------------------------------------------------------------------
------------------------------------------------------------------------------
                   ___                                                        
                  /   \      - P O W E R E D   B Y -                         
                 /     \                                                     
                 |  |  |   _    _      __       _____    __    __             
                 |  |  |  | |  | |    /  \     |  _  \  |  |  /  |          
                  \  \/   | |  | |   /    \    | | | |  |  | /  /          
                 / \  \   | |__| |  /  /\  \   | |_| |  |  |/  /          
                |  |  |   |  __  | /  /__\  \  |    /   |      \           
                |  |  |   | |  | | |   __   |  |    \   |  |\   \          
                \     /   | |  | | |  |  |  |  | |\  \  |  | \   \       
                 \___/    |_|  |_| |__|  |__|  |_| \__\ |__|  \__/        
                                                                              
                      - O R C A' S   B I G   F R I E N D -                    
                                      &                                       
                       - I N T E G R A L  F E E D E R -                       
                                                                              
 v1 FN, 2020, v2 2021                                                         
------------------------------------------------------------------------------


Reading SHARK input file B.SHARKINP.tmp ... ok
----------------------
SHARK INTEGRAL PACKAGE
----------------------

Number of atoms                             ...     28
Number of basis functions                   ...    468
Number of shells                            ...    196
Maximum angular momentum                    ...      3
Integral batch strategy                     ... SHARK/LIBINT Hybrid
RI-J (if used) integral strategy            ... SPLIT-RIJ (Revised 2003 algorithm where possible)
Printlevel                                  ...      1
Contraction scheme used                     ... SEGMENTED contraction
Coulomb Range Separation                    ... NOT USED
Exchange Range Separation                   ... Long Range
   Mu parameter                             ...  0.250000
   Scaling (regular/separated)              ...  0.195728  0.804272
Finite Nucleus Model                        ... NOT USED
Auxiliary Coulomb fitting basis             ... AVAILABLE
   # of basis functions in Aux-J            ...    764
   # of shells in Aux-J                     ...    260
   Maximum angular momentum in Aux-J        ...      4
Auxiliary J/K fitting basis                 ... NOT available
Auxiliary Correlation fitting basis         ... NOT available
Auxiliary 'external' fitting basis          ... NOT available
Integral threshold                          ...     2.500000e-11
Primitive cut-off                           ...     2.500000e-12
Primitive pair pre-selection threshold      ...     2.500000e-12

Calculating pre-screening integrals         ... done (  0.2 sec) Dimension = 196
Organizing shell pair data                  ... done (  0.2 sec)
Shell pair information
Total number of shell pairs                 ...     19306
Shell pairs after pre-screening             ...     16798
Total number of primitive shell pairs       ...     56928
Primitive shell pairs kept                  ...     35377
          la=0 lb=0:   4961 shell pairs
          la=1 lb=0:   4938 shell pairs
          la=1 lb=1:   1259 shell pairs
          la=2 lb=0:   2258 shell pairs
          la=2 lb=1:   1132 shell pairs
          la=2 lb=2:    274 shell pairs
          la=3 lb=0:   1085 shell pairs
          la=3 lb=1:    556 shell pairs
          la=3 lb=2:    264 shell pairs
          la=3 lb=3:     71 shell pairs

Calculating one electron integrals          ... done (  0.0 sec)
Calculating RI/J V-Matrix + Cholesky decomp.... done (  0.1 sec)
Calculating Nuclear repulsion               ... done (  0.0 sec) ENN=    784.189905822612 Eh

SHARK setup successfully completed in   0.5 seconds

Maximum memory used throughout the entire GTOINT-calculation: 26.5 MB


           ************************************************************
           *        Program running with 18 parallel MPI-processes    *
           *              working on a common directory               *
           ************************************************************
-------------------------------------------------------------------------------
                                 ORCA SCF
-------------------------------------------------------------------------------

------------
SCF SETTINGS
------------
Hamiltonian:
 Density Functional     Method          .... DFT(GTOs)
 Exchange Functional    Exchange        .... WB97X-D3
 Correlation Functional Correlation     .... WB97X-D3
 Gradients option       PostSCFGGA      .... off
 Hybrid DFT is turned on
   Fraction HF Exchange ScalHFX         ....  0.195728
   Scaling of DF-GGA-X  ScalDFX         ....  0.000000
   Scaling of DF-GGA-C  ScalDFC         ....  1.000000
   Scaling of DF-LDA-C  ScalLDAC        ....  1.000000
   Perturbative correction              ....  0.000000
   Density functional embedding theory  .... OFF
 Long-range corrected/Screened/Range-Separated Hybrid DFT is turned on
   Amount of maximum screened exact exchange              ....  0.804272
   Range separation parameter mu (erf(mu*r12)/r12)        ....  0.250000
 RI-approximation to the Coulomb term is turned on
   Number of AuxJ basis functions       .... 764
   RIJ-COSX (HFX calculated with COS-X)).... on


General Settings:
 Integral files         IntName         .... B
 Hartree-Fock type      HFTyp           .... RHF
 Total Charge           Charge          ....    0
 Multiplicity           Mult            ....    1
 Number of Electrons    NEL             ....   94
 Basis Dimension        Dim             ....  468
 Nuclear Repulsion      ENuc            ....    784.1899058226 Eh

Convergence Acceleration:
 DIIS                   CNVDIIS         .... on
   Start iteration      DIISMaxIt       ....    12
   Startup error        DIISStart       ....  0.200000
   # of expansion vecs  DIISMaxEq       ....     5
   Bias factor          DIISBfac        ....   1.050
   Max. coefficient     DIISMaxC        ....  10.000
 Trust-Rad. Augm. Hess. CNVTRAH         .... auto
   Auto Start mean grad. ratio tolernc. ....  1.125000
   Auto Start start iteration           ....    20
   Auto Start num. interpolation iter.  ....    10
   Max. Number of Micro iterations      ....    16
   Max. Number of Macro iterations      .... Maxiter - #DIIS iter
   Number of Davidson start vectors     ....     2
   Converg. threshold I  (grad. norm)   ....   1.000e-05
   Converg. threshold II (energy diff.) ....   1.000e-08
   Grad. Scal. Fac. for Micro threshold ....   0.100
   Minimum threshold for Micro iter.    ....   0.010
   NR start threshold (gradient norm)   ....   0.001
   Initial trust radius                 ....   0.400
   Minimum AH scaling param. (alpha)    ....   1.000
   Maximum AH scaling param. (alpha)    .... 1000.000
   Orbital update algorithm             .... Taylor
   White noise on init. David. guess    .... on
   Maximum white noise                  ....   0.010
   Quad. conv. algorithm                .... NR
 SOSCF                  CNVSOSCF        .... on
   Start iteration      SOSCFMaxIt      ....   150
   Startup grad/error   SOSCFStart      ....  0.003300
 Level Shifting         CNVShift        .... on
   Level shift para.    LevelShift      ....    0.2500
   Turn off err/grad.   ShiftErr        ....    0.0010
 Zerner damping         CNVZerner       .... off
 Static damping         CNVDamp         .... on
   Fraction old density DampFac         ....    0.7000
   Max. Damping (<1)    DampMax         ....    0.9800
   Min. Damping (>=0)   DampMin         ....    0.0000
   Turn off err/grad.   DampErr         ....    0.1000
 Fernandez-Rico         CNVRico         .... off

SCF Procedure:
 Maximum # iterations   MaxIter         ....   150
 SCF integral mode      SCFMode         .... Direct
   Integral package                     .... SHARK and LIBINT hybrid scheme
 Reset frequency        DirectResetFreq ....    20
 Integral Threshold     Thresh          ....  2.500e-11 Eh
 Primitive CutOff       TCut            ....  2.500e-12 Eh

Convergence Tolerance:
 Convergence Check Mode ConvCheckMode   .... Total+1el-Energy
 Convergence forced     ConvForced      .... 0
 Energy Change          TolE            ....  1.000e-08 Eh
 1-El. energy change                    ....  1.000e-05 Eh
 Orbital Gradient       TolG            ....  1.000e-05
 Orbital Rotation angle TolX            ....  1.000e-05
 DIIS Error             TolErr          ....  5.000e-07


Diagonalization of the overlap matrix:
Smallest eigenvalue                        ... 8.174e-05
Time for diagonalization                   ...    0.052 sec
Threshold for overlap eigenvalues          ... 1.000e-08
Number of eigenvalues below threshold      ... 0
Time for construction of square roots      ...    0.080 sec
Total time needed                          ...    0.135 sec

Time for model grid setup =    0.143 sec

------------------------------
INITIAL GUESS: MODEL POTENTIAL
------------------------------
Loading Hartree-Fock densities                     ... done
Calculating cut-offs                               ... done
Initializing the effective Hamiltonian             ... done
Setting up the integral package (SHARK)            ... done
Starting the Coulomb interaction                   ... done (   0.2 sec)
Reading the grid                                   ... done
Mapping shells                                     ... done
Starting the XC term evaluation                    ... done (   0.1 sec)
  promolecular density results
     # of electrons  =     93.985862271
     EX              =    -75.088238652
     EC              =     -3.142733492
     EX+EC           =    -78.230972144
Transforming the Hamiltonian                       ... done (   0.0 sec)
Diagonalizing the Hamiltonian                      ... done (   0.0 sec)
Back transforming the eigenvectors                 ... done (   0.0 sec)
Now organizing SCF variables                       ... done
                      ------------------
                      INITIAL GUESS DONE (   0.6 sec)
                      ------------------
-------------------
DFT GRID GENERATION
-------------------

General Integration Accuracy     IntAcc      ... 4.388
Radial Grid Type                 RadialGrid  ... OptM3 with GC (2021)
Angular Grid (max. ang.)         AngularGrid ... 4 (Lebedev-302)
Angular grid pruning method      GridPruning ... 4 (adaptive)
Weight generation scheme         WeightScheme... Becke
Basis function cutoff            BFCut       ... 1.0000e-11
Integration weight cutoff        WCut        ... 1.0000e-14
Angular grids for H and He will be reduced by one unit
Partially contracted basis set               ... off
Rotationally invariant grid construction     ... off

Total number of grid points                  ...   122489
Total number of batches                      ...     1925
Average number of points per batch           ...       63
Average number of grid points per atom       ...     4375
Time for grid setup =    0.720 sec

--------------------
COSX GRID GENERATION
--------------------

GRIDX 1
-------
General Integration Accuracy     IntAcc      ... 3.816
Radial Grid Type                 RadialGrid  ... OptM3 with GC (2021)
Angular Grid (max. ang.)         AngularGrid ... 1 (Lebedev-50)
Angular grid pruning method      GridPruning ... 4 (adaptive)
Weight generation scheme         WeightScheme... Becke
Basis function cutoff            BFCut       ... 1.0000e-11
Integration weight cutoff        WCut        ... 1.0000e-14
Angular grids for H and He will be reduced by one unit
Partially contracted basis set               ... on
Rotationally invariant grid construction     ... off

Total number of grid points                  ...    15633
Total number of batches                      ...      263
Average number of points per batch           ...       59
Average number of grid points per atom       ...      558
UseSFitting                                  ... on

GRIDX 2
-------
General Integration Accuracy     IntAcc      ... 4.020
Radial Grid Type                 RadialGrid  ... OptM3 with GC (2021)
Angular Grid (max. ang.)         AngularGrid ... 2 (Lebedev-110)
Angular grid pruning method      GridPruning ... 4 (adaptive)
Weight generation scheme         WeightScheme... Becke
Basis function cutoff            BFCut       ... 1.0000e-11
Integration weight cutoff        WCut        ... 1.0000e-14
Angular grids for H and He will be reduced by one unit
Partially contracted basis set               ... on
Rotationally invariant grid construction     ... off

Total number of grid points                  ...    32939
Total number of batches                      ...      530
Average number of points per batch           ...       62
Average number of grid points per atom       ...     1176
UseSFitting                                  ... on

GRIDX 3
-------
General Integration Accuracy     IntAcc      ... 4.338
Radial Grid Type                 RadialGrid  ... OptM3 with GC (2021)
Angular Grid (max. ang.)         AngularGrid ... 3 (Lebedev-194)
Angular grid pruning method      GridPruning ... 4 (adaptive)
Weight generation scheme         WeightScheme... Becke
Basis function cutoff            BFCut       ... 1.0000e-11
Integration weight cutoff        WCut        ... 1.0000e-14
Angular grids for H and He will be reduced by one unit
Partially contracted basis set               ... on
Rotationally invariant grid construction     ... off

Total number of grid points                  ...    71860
Total number of batches                      ...     1138
Average number of points per batch           ...       63
Average number of grid points per atom       ...     2566
UseSFitting                                  ... on

Time for X-Grid setup             =    0.645 sec

--------------
SCF ITERATIONS
--------------
ITER       Energy         Delta-E        Max-DP      RMS-DP      [F,P]     Damp
               ***  Starting incremental Fock matrix formation  ***
  0   -574.0636385264   0.000000000000 0.09179984  0.00094192  0.2844798 0.7000
  1   -574.2546212858  -0.190982759497 0.10470537  0.00083565  0.1410312 0.7000
                               ***Turning on DIIS***
  2   -574.3460246487  -0.091403362868 0.20455177  0.00167167  0.0571264 0.0000
  3   -574.4926497296  -0.146625080843 0.07494062  0.00052781  0.0754788 0.0000
  4   -574.5169206982  -0.024270968595 0.01893107  0.00013606  0.0075769 0.0000
  5   -574.5174999559  -0.000579257711 0.00935111  0.00005922  0.0058396 0.0000
                      *** Initiating the SOSCF procedure ***
                           *** Shutting down DIIS ***
                      *** Re-Reading the Fockian *** 
                      *** Removing any level shift *** 
ITER      Energy       Delta-E        Grad      Rot      Max-DP    RMS-DP
  6   -574.51760529  -0.0001053336  0.000573  0.000573  0.004322  0.000030
               *** Restarting incremental Fock matrix formation ***
  7   -574.51761274  -0.0000074549  0.000388  0.000853  0.004173  0.000025
  8   -574.51761614  -0.0000033992  0.000104  0.000453  0.002202  0.000016
  9   -574.51761678  -0.0000006333  0.000067  0.000108  0.000918  0.000007
 10   -574.51761705  -0.0000002702  0.000022  0.000028  0.000266  0.000002
 11   -574.51761705  -0.0000000054  0.000014  0.000015  0.000092  0.000001
 12   -574.51761706  -0.0000000112  0.000003  0.000008  0.000015  0.000000
                  ***Gradient check signals convergence***
              ***Rediagonalizing the Fockian in SOSCF/NRSCF***

               *****************************************************
               *                     SUCCESS                       *
               *           SCF CONVERGED AFTER  13 CYCLES          *
               *****************************************************

Old exchange energy                            =    -25.154883123 Eh
New exchange energy                            =    -25.154881659 Eh
Exchange energy change after final integration =      0.000001464 Eh
Total energy after final integration           =   -574.517615610 Eh
Final COS-X integration done in                =     8.947 sec

----------------
TOTAL SCF ENERGY
----------------

Total Energy       :         -574.51761561 Eh          -15633.41911 eV

Components:
Nuclear Repulsion  :          784.18990582 Eh           21338.89219 eV
Electronic Energy  :        -1358.70752143 Eh          -36972.31129 eV
One Electron Energy:        -2337.81477797 Eh          -63615.17424 eV
Two Electron Energy:          979.10725654 Eh           26642.86295 eV
Max COSX asymmetry :            0.00000194 Eh               0.00005 eV

Virial components:
Potential Energy   :        -1146.53818148 Eh          -31198.89004 eV
Kinetic Energy     :          572.02056587 Eh           15565.47093 eV
Virial Ratio       :            2.00436531


DFT components:
N(Alpha)           :       46.999859481659 electrons
N(Beta)            :       46.999859481659 electrons
N(Total)           :       93.999718963317 electrons
E(XC)              :      -55.334199771823 Eh       
DFET-embed. en.    :        0.000000000000 Eh       

---------------
SCF CONVERGENCE
---------------

  Last Energy change         ...   -1.0670e-08  Tolerance :   1.0000e-08
  Last MAX-Density change    ...    1.7764e-15  Tolerance :   1.0000e-07
  Last RMS-Density change    ...    1.4631e-17  Tolerance :   5.0000e-09
  Last Orbital Gradient      ...    1.5920e-06  Tolerance :   1.0000e-05
  Last Orbital Rotation      ...    1.7532e-06  Tolerance :   1.0000e-05

             **** THE GBW FILE WAS UPDATED (B.gbw) ****
             **** DENSITY B.scfp WAS UPDATED ****
             **** ENERGY FILE WAS UPDATED (B.en.tmp) ****
             **** THE GBW FILE WAS UPDATED (B.gbw) ****
             **** DENSITY B.scfp WAS UPDATED ****
----------------
ORBITAL ENERGIES
----------------

  NO   OCC          E(Eh)            E(eV) 
   0   2.0000     -19.136670      -520.7353 
   1   2.0000     -19.129256      -520.5335 
   2   2.0000     -14.504394      -394.6846 
   3   2.0000     -14.467254      -393.6740 
   4   2.0000     -10.427945      -283.7588 
   5   2.0000     -10.322767      -280.8968 
   6   2.0000     -10.320776      -280.8426 
   7   2.0000     -10.302567      -280.3471 
   8   2.0000     -10.271390      -279.4987 
   9   2.0000     -10.252754      -278.9916 
  10   2.0000     -10.247960      -278.8612 
  11   2.0000     -10.234991      -278.5083 
  12   2.0000      -1.151176       -31.3251 
  13   2.0000      -1.111891       -30.2561 
  14   2.0000      -1.049864       -28.5683 
  15   2.0000      -1.014734       -27.6123 
  16   2.0000      -0.949449       -25.8358 
  17   2.0000      -0.894259       -24.3340 
  18   2.0000      -0.848345       -23.0846 
  19   2.0000      -0.790941       -21.5226 
  20   2.0000      -0.769713       -20.9450 
  21   2.0000      -0.725507       -19.7421 
  22   2.0000      -0.711151       -19.3514 
  23   2.0000      -0.684776       -18.6337 
  24   2.0000      -0.663458       -18.0536 
  25   2.0000      -0.625486       -17.0203 
  26   2.0000      -0.602947       -16.4070 
  27   2.0000      -0.581497       -15.8233 
  28   2.0000      -0.559665       -15.2293 
  29   2.0000      -0.553169       -15.0525 
  30   2.0000      -0.546197       -14.8628 
  31   2.0000      -0.521973       -14.2036 
  32   2.0000      -0.510006       -13.8780 
  33   2.0000      -0.506092       -13.7715 
  34   2.0000      -0.488718       -13.2987 
  35   2.0000      -0.476536       -12.9672 
  36   2.0000      -0.464387       -12.6366 
  37   2.0000      -0.451882       -12.2963 
  38   2.0000      -0.445453       -12.1214 
  39   2.0000      -0.428856       -11.6698 
  40   2.0000      -0.415547       -11.3076 
  41   2.0000      -0.406414       -11.0591 
  42   2.0000      -0.396925       -10.8009 
  43   2.0000      -0.387482       -10.5439 
  44   2.0000      -0.315652        -8.5893 
  45   2.0000      -0.303528        -8.2594 
  46   2.0000      -0.292856        -7.9690 
  47   0.0000       0.039124         1.0646 
  48   0.0000       0.068042         1.8515 
  49   0.0000       0.109485         2.9792 
  50   0.0000       0.128144         3.4870 
  51   0.0000       0.135142         3.6774 
  52   0.0000       0.149418         4.0659 
  53   0.0000       0.149980         4.0812 
  54   0.0000       0.160052         4.3552 
  55   0.0000       0.168659         4.5894 
  56   0.0000       0.176827         4.8117 
  57   0.0000       0.190548         5.1851 
  58   0.0000       0.193007         5.2520 
  59   0.0000       0.199677         5.4335 
  60   0.0000       0.204457         5.5635 
  61   0.0000       0.221359         6.0235 
  62   0.0000       0.227512         6.1909 
  63   0.0000       0.233996         6.3674 
  64   0.0000       0.245483         6.6799 
  65   0.0000       0.253174         6.8892 
  66   0.0000       0.261113         7.1053 
  67   0.0000       0.265737         7.2311 
  68   0.0000       0.282394         7.6843 
  69   0.0000       0.292381         7.9561 
  70   0.0000       0.295721         8.0470 
  71   0.0000       0.305705         8.3187 
  72   0.0000       0.311813         8.4849 
  73   0.0000       0.321293         8.7428 
  74   0.0000       0.323593         8.8054 
  75   0.0000       0.329580         8.9683 
  76   0.0000       0.340765         9.2727 
  77   0.0000       0.345636         9.4052 
  78   0.0000       0.350486         9.5372 
  79   0.0000       0.364919         9.9299 
  80   0.0000       0.371531        10.1099 
  81   0.0000       0.390651        10.6301 
  82   0.0000       0.396437        10.7876 
  83   0.0000       0.403863        10.9897 
  84   0.0000       0.414175        11.2703 
  85   0.0000       0.428285        11.6542 
  86   0.0000       0.444092        12.0844 
  87   0.0000       0.445943        12.1347 
  88   0.0000       0.455463        12.3938 
  89   0.0000       0.459824        12.5124 
  90   0.0000       0.465317        12.6619 
  91   0.0000       0.475543        12.9402 
  92   0.0000       0.477386        12.9903 
  93   0.0000       0.483741        13.1633 
  94   0.0000       0.498562        13.5666 
  95   0.0000       0.504088        13.7169 
  96   0.0000       0.512989        13.9591 
  97   0.0000       0.514931        14.0120 
  98   0.0000       0.521814        14.1993 
  99   0.0000       0.525904        14.3106 
 100   0.0000       0.529693        14.4137 
 101   0.0000       0.533505        14.5174 
 102   0.0000       0.536828        14.6078 
 103   0.0000       0.542277        14.7561 
 104   0.0000       0.545611        14.8468 
 105   0.0000       0.548187        14.9169 
 106   0.0000       0.559243        15.2178 
 107   0.0000       0.563079        15.3222 
 108   0.0000       0.566146        15.4056 
 109   0.0000       0.573758        15.6128 
 110   0.0000       0.580961        15.8087 
 111   0.0000       0.585834        15.9413 
 112   0.0000       0.599263        16.3068 
 113   0.0000       0.607217        16.5232 
 114   0.0000       0.615943        16.7607 
 115   0.0000       0.622452        16.9378 
 116   0.0000       0.628726        17.1085 
 117   0.0000       0.633899        17.2493 
 118   0.0000       0.644235        17.5305 
 119   0.0000       0.663963        18.0673 
 120   0.0000       0.668918        18.2022 
 121   0.0000       0.675673        18.3860 
 122   0.0000       0.692622        18.8472 
 123   0.0000       0.705045        19.1852 
 124   0.0000       0.711249        19.3541 
 125   0.0000       0.717759        19.5312 
 126   0.0000       0.743917        20.2430 
 127   0.0000       0.750977        20.4351 
 128   0.0000       0.763130        20.7658 
 129   0.0000       0.788815        21.4647 
 130   0.0000       0.796945        21.6860 
 131   0.0000       0.802232        21.8298 
 132   0.0000       0.811796        22.0901 
 133   0.0000       0.833009        22.6673 
 134   0.0000       0.847829        23.0706 
 135   0.0000       0.854469        23.2513 
 136   0.0000       0.866777        23.5862 
 137   0.0000       0.882086        24.0028 
 138   0.0000       0.901413        24.5287 
 139   0.0000       0.909956        24.7612 
 140   0.0000       0.927002        25.2250 
 141   0.0000       0.943782        25.6816 
 142   0.0000       0.956498        26.0276 
 143   0.0000       0.965015        26.2594 
 144   0.0000       0.975341        26.5404 
 145   0.0000       0.996522        27.1167 
 146   0.0000       1.009331        27.4653 
 147   0.0000       1.026563        27.9342 
 148   0.0000       1.026992        27.9459 
 149   0.0000       1.043159        28.3858 
 150   0.0000       1.063225        28.9318 
 151   0.0000       1.079679        29.3796 
 152   0.0000       1.090995        29.6875 
 153   0.0000       1.108418        30.1616 
 154   0.0000       1.114348        30.3229 
 155   0.0000       1.128240        30.7010 
 156   0.0000       1.142582        31.0912 
 157   0.0000       1.149655        31.2837 
 158   0.0000       1.157841        31.5065 
 159   0.0000       1.173115        31.9221 
 160   0.0000       1.192787        32.4574 
 161   0.0000       1.204761        32.7832 
 162   0.0000       1.222142        33.2562 
 163   0.0000       1.231501        33.5108 
 164   0.0000       1.242725        33.8163 
 165   0.0000       1.248511        33.9737 
 166   0.0000       1.265761        34.4431 
 167   0.0000       1.277728        34.7687 
 168   0.0000       1.290374        35.1129 
 169   0.0000       1.306065        35.5398 
 170   0.0000       1.326775        36.1034 
 171   0.0000       1.344049        36.5734 
 172   0.0000       1.352310        36.7982 
 173   0.0000       1.368607        37.2417 
 174   0.0000       1.383011        37.6336 
 175   0.0000       1.386455        37.7274 
 176   0.0000       1.413081        38.4519 
 177   0.0000       1.416531        38.5458 
 178   0.0000       1.423784        38.7431 
 179   0.0000       1.450313        39.4650 
 180   0.0000       1.458916        39.6991 
 181   0.0000       1.480685        40.2915 
 182   0.0000       1.502760        40.8922 
 183   0.0000       1.513234        41.1772 
 184   0.0000       1.542835        41.9827 
 185   0.0000       1.556349        42.3504 
 186   0.0000       1.568332        42.6765 
 187   0.0000       1.589439        43.2508 
 188   0.0000       1.603478        43.6329 
 189   0.0000       1.605192        43.6795 
 190   0.0000       1.618916        44.0529 
 191   0.0000       1.638511        44.5862 
 192   0.0000       1.640531        44.6411 
 193   0.0000       1.666111        45.3372 
 194   0.0000       1.671559        45.4854 
 195   0.0000       1.679790        45.7094 
 196   0.0000       1.685862        45.8746 
 197   0.0000       1.703593        46.3571 
 198   0.0000       1.707606        46.4663 
 199   0.0000       1.718470        46.7619 
 200   0.0000       1.735573        47.2273 
 201   0.0000       1.749729        47.6126 
 202   0.0000       1.751226        47.6533 
 203   0.0000       1.753343        47.7109 
 204   0.0000       1.760571        47.9076 
 205   0.0000       1.778458        48.3943 
 206   0.0000       1.795579        48.8602 
 207   0.0000       1.811546        49.2947 
 208   0.0000       1.818281        49.4779 
 209   0.0000       1.840259        50.0760 
 210   0.0000       1.856963        50.5305 
 211   0.0000       1.866628        50.7935 
 212   0.0000       1.874138        50.9979 
 213   0.0000       1.885344        51.3028 
 214   0.0000       1.902580        51.7718 
 215   0.0000       1.909915        51.9714 
 216   0.0000       1.924435        52.3665 
 217   0.0000       1.937447        52.7206 
 218   0.0000       1.949593        53.0511 
 219   0.0000       1.956455        53.2379 
 220   0.0000       1.964731        53.4630 
 221   0.0000       1.980535        53.8931 
 222   0.0000       2.001734        54.4700 
 223   0.0000       2.010466        54.7076 
 224   0.0000       2.021983        55.0210 
 225   0.0000       2.057606        55.9903 
 226   0.0000       2.059268        56.0355 
 227   0.0000       2.081866        56.6504 
 228   0.0000       2.088789        56.8388 
 229   0.0000       2.101424        57.1827 
 230   0.0000       2.111597        57.4595 
 231   0.0000       2.114728        57.5447 
 232   0.0000       2.130637        57.9776 
 233   0.0000       2.137697        58.1697 
 234   0.0000       2.153732        58.6060 
 235   0.0000       2.167581        58.9829 
 236   0.0000       2.185659        59.4748 
 237   0.0000       2.209484        60.1231 
 238   0.0000       2.228983        60.6537 
 239   0.0000       2.236832        60.8673 
 240   0.0000       2.246123        61.1201 
 241   0.0000       2.258458        61.4558 
 242   0.0000       2.276158        61.9374 
 243   0.0000       2.288617        62.2764 
 244   0.0000       2.334464        63.5240 
 245   0.0000       2.346181        63.8428 
 246   0.0000       2.350701        63.9658 
 247   0.0000       2.363748        64.3209 
 248   0.0000       2.374060        64.6015 
 249   0.0000       2.394988        65.1709 
 250   0.0000       2.400145        65.3113 
 251   0.0000       2.412326        65.6427 
 252   0.0000       2.435900        66.2842 
 253   0.0000       2.450136        66.6716 
 254   0.0000       2.460988        66.9669 
 255   0.0000       2.491306        67.7919 
 256   0.0000       2.503392        68.1208 
 257   0.0000       2.512433        68.3668 
 258   0.0000       2.527473        68.7761 
 259   0.0000       2.542032        69.1722 
 260   0.0000       2.558103        69.6095 
 261   0.0000       2.576694        70.1154 
 262   0.0000       2.586818        70.3909 
 263   0.0000       2.594989        70.6132 
 264   0.0000       2.606843        70.9358 
 265   0.0000       2.616848        71.2081 
 266   0.0000       2.643150        71.9238 
 267   0.0000       2.657353        72.3103 
 268   0.0000       2.676968        72.8440 
 269   0.0000       2.682261        72.9880 
 270   0.0000       2.699423        73.4550 
 271   0.0000       2.701544        73.5128 
 272   0.0000       2.713152        73.8286 
 273   0.0000       2.715608        73.8954 
 274   0.0000       2.724564        74.1391 
 275   0.0000       2.735038        74.4242 
 276   0.0000       2.746552        74.7375 
 277   0.0000       2.762865        75.1814 
 278   0.0000       2.774202        75.4899 
 279   0.0000       2.783666        75.7474 
 280   0.0000       2.788601        75.8817 
 281   0.0000       2.798713        76.1568 
 282   0.0000       2.805147        76.3319 
 283   0.0000       2.817612        76.6711 
 284   0.0000       2.834668        77.1352 
 285   0.0000       2.848797        77.5197 
 286   0.0000       2.856750        77.7361 
 287   0.0000       2.864340        77.9427 
 288   0.0000       2.879217        78.3475 
 289   0.0000       2.891075        78.6701 
 290   0.0000       2.904047        79.0231 
 291   0.0000       2.920865        79.4808 
 292   0.0000       2.929827        79.7247 
 293   0.0000       2.952122        80.3313 
 294   0.0000       2.964868        80.6782 
 295   0.0000       2.986635        81.2705 
 296   0.0000       3.000666        81.6523 
 297   0.0000       3.009628        81.8961 
 298   0.0000       3.027098        82.3715 
 299   0.0000       3.038225        82.6743 
 300   0.0000       3.043515        82.8183 
 301   0.0000       3.062948        83.3471 
 302   0.0000       3.074722        83.6674 
 303   0.0000       3.096806        84.2684 
 304   0.0000       3.119523        84.8865 
 305   0.0000       3.121559        84.9419 
 306   0.0000       3.134659        85.2984 
 307   0.0000       3.153612        85.8141 
 308   0.0000       3.174222        86.3750 
 309   0.0000       3.178460        86.4903 
 310   0.0000       3.194689        86.9319 
 311   0.0000       3.205679        87.2310 
 312   0.0000       3.225285        87.7645 
 313   0.0000       3.236385        88.0665 
 314   0.0000       3.246747        88.3485 
 315   0.0000       3.260486        88.7223 
 316   0.0000       3.270656        88.9991 
 317   0.0000       3.284737        89.3822 
 318   0.0000       3.302934        89.8774 
 319   0.0000       3.308506        90.0290 
 320   0.0000       3.317778        90.2813 
 321   0.0000       3.326522        90.5193 
 322   0.0000       3.331418        90.6525 
 323   0.0000       3.346875        91.0731 
 324   0.0000       3.353603        91.2562 
 325   0.0000       3.375257        91.8454 
 326   0.0000       3.377276        91.9003 
 327   0.0000       3.384591        92.0994 
 328   0.0000       3.408393        92.7471 
 329   0.0000       3.412476        92.8582 
 330   0.0000       3.426210        93.2319 
 331   0.0000       3.435072        93.4731 
 332   0.0000       3.454644        94.0057 
 333   0.0000       3.475184        94.5646 
 334   0.0000       3.479839        94.6912 
 335   0.0000       3.508033        95.4584 
 336   0.0000       3.513482        95.6067 
 337   0.0000       3.524083        95.8952 
 338   0.0000       3.527915        95.9994 
 339   0.0000       3.534170        96.1697 
 340   0.0000       3.542700        96.4018 
 341   0.0000       3.564827        97.0039 
 342   0.0000       3.568391        97.1009 
 343   0.0000       3.581105        97.4468 
 344   0.0000       3.600709        97.9803 
 345   0.0000       3.601892        98.0125 
 346   0.0000       3.619237        98.4844 
 347   0.0000       3.632740        98.8519 
 348   0.0000       3.637467        98.9805 
 349   0.0000       3.654605        99.4469 
 350   0.0000       3.667361        99.7940 
 351   0.0000       3.686974       100.3277 
 352   0.0000       3.700602       100.6985 
 353   0.0000       3.723895       101.3323 
 354   0.0000       3.747931       101.9864 
 355   0.0000       3.753898       102.1488 
 356   0.0000       3.766495       102.4915 
 357   0.0000       3.768236       102.5389 
 358   0.0000       3.781059       102.8878 
 359   0.0000       3.800051       103.4046 
 360   0.0000       3.828720       104.1848 
 361   0.0000       3.847831       104.7048 
 362   0.0000       3.861659       105.0811 
 363   0.0000       3.880292       105.5881 
 364   0.0000       3.903045       106.2073 
 365   0.0000       3.923113       106.7533 
 366   0.0000       3.939949       107.2115 
 367   0.0000       3.969388       108.0125 
 368   0.0000       3.983208       108.3886 
 369   0.0000       4.026114       109.5561 
 370   0.0000       4.039283       109.9145 
 371   0.0000       4.045732       110.0900 
 372   0.0000       4.054920       110.3400 
 373   0.0000       4.078411       110.9792 
 374   0.0000       4.104090       111.6780 
 375   0.0000       4.109927       111.8368 
 376   0.0000       4.141679       112.7008 
 377   0.0000       4.144923       112.7891 
 378   0.0000       4.189619       114.0053 
 379   0.0000       4.193304       114.1056 
 380   0.0000       4.224746       114.9612 
 381   0.0000       4.234344       115.2224 
 382   0.0000       4.260183       115.9255 
 383   0.0000       4.311781       117.3295 
 384   0.0000       4.321847       117.6034 
 385   0.0000       4.345630       118.2506 
 386   0.0000       4.355000       118.5056 
 387   0.0000       4.410161       120.0066 
 388   0.0000       4.431180       120.5785 
 389   0.0000       4.442209       120.8787 
 390   0.0000       4.478640       121.8700 
 391   0.0000       4.516247       122.8933 
 392   0.0000       4.524843       123.1272 
 393   0.0000       4.544872       123.6722 
 394   0.0000       4.571606       124.3997 
 395   0.0000       4.621659       125.7617 
 396   0.0000       4.638724       126.2261 
 397   0.0000       4.680341       127.3585 
 398   0.0000       4.687235       127.5462 
 399   0.0000       4.703445       127.9872 
 400   0.0000       4.722156       128.4964 
 401   0.0000       4.739029       128.9555 
 402   0.0000       4.766812       129.7116 
 403   0.0000       4.783165       130.1565 
 404   0.0000       4.841059       131.7319 
 405   0.0000       4.852414       132.0409 
 406   0.0000       4.867973       132.4643 
 407   0.0000       4.872468       132.5866 
 408   0.0000       4.894717       133.1920 
 409   0.0000       4.926269       134.0506 
 410   0.0000       4.932124       134.2099 
 411   0.0000       4.954268       134.8125 
 412   0.0000       4.976261       135.4110 
 413   0.0000       5.021225       136.6345 
 414   0.0000       5.025429       136.7489 
 415   0.0000       5.029661       136.8640 
 416   0.0000       5.094741       138.6349 
 417   0.0000       5.128035       139.5409 
 418   0.0000       5.140050       139.8679 
 419   0.0000       5.173748       140.7849 
 420   0.0000       5.186895       141.1426 
 421   0.0000       5.233401       142.4081 
 422   0.0000       5.283615       143.7745 
 423   0.0000       5.327267       144.9623 
 424   0.0000       5.356714       145.7636 
 425   0.0000       5.363414       145.9459 
 426   0.0000       5.377186       146.3207 
 427   0.0000       5.400958       146.9675 
 428   0.0000       5.440693       148.0488 
 429   0.0000       5.448573       148.2632 
 430   0.0000       5.498629       149.6253 
 431   0.0000       5.556339       151.1957 
 432   0.0000       5.618688       152.8923 
 433   0.0000       5.641418       153.5108 
 434   0.0000       5.709607       155.3663 
 435   0.0000       5.728666       155.8849 
 436   0.0000       5.791874       157.6049 
 437   0.0000       5.888631       160.2378 
 438   0.0000       5.976127       162.6187 
 439   0.0000       6.091158       165.7488 
 440   0.0000       6.161208       167.6550 
 441   0.0000       6.232994       169.6084 
 442   0.0000       6.237267       169.7247 
 443   0.0000       6.332817       172.3247 
 444   0.0000       6.565685       178.6614 
 445   0.0000       6.590353       179.3326 
 446   0.0000       6.661587       181.2710 
 447   0.0000       6.678318       181.7263 
 448   0.0000       6.843918       186.2325 
 449   0.0000       6.923233       188.3908 
 450   0.0000       6.987560       190.1412 
 451   0.0000       7.068124       192.3334 
 452   0.0000       7.141966       194.3428 
 453   0.0000       7.318201       199.1384 
 454   0.0000       7.332429       199.5255 
 455   0.0000       7.386097       200.9859 
 456   0.0000      22.573767       614.2634 
 457   0.0000      22.612154       615.3080 
 458   0.0000      22.626031       615.6856 
 459   0.0000      22.641069       616.0948 
 460   0.0000      22.655119       616.4771 
 461   0.0000      22.720312       618.2511 
 462   0.0000      23.268116       633.1576 
 463   0.0000      23.633164       643.0911 
 464   0.0000      32.023630       871.4073 
 465   0.0000      32.262412       877.9049 
 466   0.0000      44.049186      1198.6393 
 467   0.0000      44.186336      1202.3713 

                    ********************************
                    * MULLIKEN POPULATION ANALYSIS *
                    ********************************

-----------------------
MULLIKEN ATOMIC CHARGES
-----------------------
   0 C :   -0.260333
   1 C :   -0.169941
   2 C :   -0.211780
   3 H :    0.108969
   4 H :    0.108123
   5 C :    0.293446
   6 C :    0.302056
   7 N :   -0.303234
   8 N :   -0.442894
   9 H :    0.277398
  10 H :    0.275820
  11 H :    0.289761
  12 H :    0.263024
  13 O :   -0.577020
  14 O :   -0.528384
  15 C :   -0.193301
  16 C :   -0.237815
  17 H :    0.121087
  18 H :    0.101532
  19 C :   -0.182371
  20 H :    0.143773
  21 H :    0.101566
  22 H :    0.114136
  23 H :    0.092601
  24 H :    0.088267
  25 H :    0.096572
  26 H :    0.174672
  27 H :    0.154271
Sum of atomic charges:   -0.0000000

--------------------------------
MULLIKEN REDUCED ORBITAL CHARGES
--------------------------------
  0 C s       :     3.224157  s :     3.224157
      pz      :     0.867871  p :     2.947502
      px      :     1.085370
      py      :     0.994261
      dz2     :     0.027834  d :     0.083747
      dxz     :     0.014087
      dyz     :     0.013537
      dx2y2   :     0.008421
      dxy     :     0.019869
      f0      :     0.000938  f :     0.004926
      f+1     :     0.000566
      f-1     :     0.001189
      f+2     :     0.000584
      f-2     :     0.000804
      f+3     :     0.000474
      f-3     :     0.000372
  1 C s       :     3.187226  s :     3.187226
      pz      :     0.927735  p :     2.884161
      px      :     0.995039
      py      :     0.961387
      dz2     :     0.024769  d :     0.093299
      dxz     :     0.017326
      dyz     :     0.021942
      dx2y2   :     0.016630
      dxy     :     0.012631
      f0      :     0.000969  f :     0.005255
      f+1     :     0.001131
      f-1     :     0.000900
      f+2     :     0.000605
      f-2     :     0.000557
      f+3     :     0.000389
      f-3     :     0.000704
  2 C s       :     3.172419  s :     3.172419
      pz      :     0.927563  p :     2.955035
      px      :     1.030051
      py      :     0.997421
      dz2     :     0.018749  d :     0.079253
      dxz     :     0.018250
      dyz     :     0.020550
      dx2y2   :     0.007575
      dxy     :     0.014129
      f0      :     0.001022  f :     0.005073
      f+1     :     0.000754
      f-1     :     0.001097
      f+2     :     0.000560
      f-2     :     0.000639
      f+3     :     0.000488
      f-3     :     0.000513
  3 H s       :     0.869297  s :     0.869297
      pz      :     0.004075  p :     0.021734
      px      :     0.007704
      py      :     0.009955
  4 H s       :     0.869746  s :     0.869746
      pz      :     0.006766  p :     0.022131
      px      :     0.009895
      py      :     0.005471
  5 C s       :     3.037189  s :     3.037189
      pz      :     0.821929  p :     2.374972
      px      :     0.756850
      py      :     0.796193
      dz2     :     0.050587  d :     0.268939
      dxz     :     0.020412
      dyz     :     0.074978
      dx2y2   :     0.048307
      dxy     :     0.074655
      f0      :     0.002871  f :     0.025454
      f+1     :     0.003099
      f-1     :     0.002848
      f+2     :     0.004133
      f-2     :     0.003980
      f+3     :     0.004147
      f-3     :     0.004375
  6 C s       :     3.094143  s :     3.094143
      pz      :     0.897809  p :     2.376225
      px      :     0.764226
      py      :     0.714190
      dz2     :     0.044360  d :     0.209481
      dxz     :     0.045499
      dyz     :     0.043307
      dx2y2   :     0.030311
      dxy     :     0.046004
      f0      :     0.003789  f :     0.018096
      f+1     :     0.002074
      f-1     :     0.002166
      f+2     :     0.002696
      f-2     :     0.002549
      f+3     :     0.002437
      f-3     :     0.002385
  7 N s       :     3.456999  s :     3.456999
      pz      :     1.117228  p :     3.804243
      px      :     1.243045
      py      :     1.443970
      dz2     :     0.011896  d :     0.038672
      dxz     :     0.006914
      dyz     :     0.008209
      dx2y2   :     0.006924
      dxy     :     0.004729
      f0      :     0.000576  f :     0.003320
      f+1     :     0.000498
      f-1     :     0.000665
      f+2     :     0.000348
      f-2     :     0.000389
      f+3     :     0.000557
      f-3     :     0.000287
  8 N s       :     3.446503  s :     3.446503
      pz      :     1.179035  p :     3.957683
      px      :     1.172619
      py      :     1.606029
      dz2     :     0.005114  d :     0.035109
      dxz     :     0.014829
      dyz     :     0.002872
      dx2y2   :     0.005966
      dxy     :     0.006329
      f0      :     0.000368  f :     0.003600
      f+1     :     0.000612
      f-1     :     0.000271
      f+2     :     0.000547
      f-2     :     0.000295
      f+3     :     0.000760
      f-3     :     0.000746
  9 H s       :     0.686080  s :     0.686080
      pz      :     0.015002  p :     0.036523
      px      :     0.010429
      py      :     0.011093
 10 H s       :     0.688196  s :     0.688196
      pz      :     0.015384  p :     0.035983
      px      :     0.008090
      py      :     0.012509
 11 H s       :     0.652188  s :     0.652188
      pz      :     0.006053  p :     0.058052
      px      :     0.041276
      py      :     0.010723
 12 H s       :     0.700564  s :     0.700564
      pz      :     0.018031  p :     0.036412
      px      :     0.006346
      py      :     0.012035
 13 O s       :     3.837603  s :     3.837603
      pz      :     1.693098  p :     4.710752
      px      :     1.658401
      py      :     1.359254
      dz2     :     0.003529  d :     0.027118
      dxz     :     0.001413
      dyz     :     0.006299
      dx2y2   :     0.007913
      dxy     :     0.007963
      f0      :     0.000194  f :     0.001548
      f+1     :     0.000068
      f-1     :     0.000275
      f+2     :     0.000220
      f-2     :     0.000119
      f+3     :     0.000334
      f-3     :     0.000337
 14 O s       :     3.813323  s :     3.813323
      pz      :     1.460077  p :     4.685702
      px      :     1.432560
      py      :     1.793065
      dz2     :     0.007058  d :     0.027656
      dxz     :     0.007554
      dyz     :     0.004070
      dx2y2   :     0.004812
      dxy     :     0.004161
      f0      :     0.000212  f :     0.001704
      f+1     :     0.000376
      f-1     :     0.000137
      f+2     :     0.000323
      f-2     :     0.000308
      f+3     :     0.000192
      f-3     :     0.000156
 15 C s       :     3.191009  s :     3.191009
      pz      :     0.993263  p :     2.902310
      px      :     1.001965
      py      :     0.907082
      dz2     :     0.020267  d :     0.094788
      dxz     :     0.006840
      dyz     :     0.023877
      dx2y2   :     0.026361
      dxy     :     0.017443
      f0      :     0.000433  f :     0.005194
      f+1     :     0.000319
      f-1     :     0.001286
      f+2     :     0.000453
      f-2     :     0.000990
      f+3     :     0.000704
      f-3     :     0.001010
 16 C s       :     3.227751  s :     3.227751
      pz      :     1.053564  p :     2.914799
      px      :     0.918990
      py      :     0.942245
      dz2     :     0.013033  d :     0.090061
      dxz     :     0.018503
      dyz     :     0.013832
      dx2y2   :     0.022973
      dxy     :     0.021721
      f0      :     0.000750  f :     0.005205
      f+1     :     0.000426
      f-1     :     0.000515
      f+2     :     0.000675
      f-2     :     0.000419
      f+3     :     0.001169
      f-3     :     0.001251
 17 H s       :     0.857097  s :     0.857097
      pz      :     0.011989  p :     0.021816
      px      :     0.004890
      py      :     0.004937
 18 H s       :     0.876449  s :     0.876449
      pz      :     0.004555  p :     0.022018
      px      :     0.012102
      py      :     0.005362
 19 C s       :     3.180990  s :     3.180990
      pz      :     0.991374  p :     2.902847
      px      :     0.888681
      py      :     1.022791
      dz2     :     0.021334  d :     0.093373
      dxz     :     0.017271
      dyz     :     0.008010
      dx2y2   :     0.028626
      dxy     :     0.018132
      f0      :     0.000834  f :     0.005162
      f+1     :     0.000674
      f-1     :     0.000387
      f+2     :     0.000788
      f-2     :     0.000368
      f+3     :     0.001014
      f-3     :     0.001098
 20 H s       :     0.833022  s :     0.833022
      pz      :     0.013447  p :     0.023205
      px      :     0.004630
      py      :     0.005128
 21 H s       :     0.876746  s :     0.876746
      pz      :     0.006709  p :     0.021687
      px      :     0.004549
      py      :     0.010429
 22 H s       :     0.862027  s :     0.862027
      pz      :     0.006540  p :     0.023837
      px      :     0.004598
      py      :     0.012699
 23 H s       :     0.886017  s :     0.886017
      pz      :     0.012401  p :     0.021383
      px      :     0.004638
      py      :     0.004344
 24 H s       :     0.890284  s :     0.890284
      pz      :     0.006579  p :     0.021449
      px      :     0.004474
      py      :     0.010396
 25 H s       :     0.881615  s :     0.881615
      pz      :     0.004254  p :     0.021813
      px      :     0.011683
      py      :     0.005876
 26 H s       :     0.802011  s :     0.802011
      pz      :     0.003830  p :     0.023318
      px      :     0.013875
      py      :     0.005613
 27 H s       :     0.824041  s :     0.824041
      pz      :     0.005531  p :     0.021688
      px      :     0.006363
      py      :     0.009794


                     *******************************
                     * LOEWDIN POPULATION ANALYSIS *
                     *******************************

----------------------
LOEWDIN ATOMIC CHARGES
----------------------
   0 C :   -0.205287
   1 C :   -0.264368
   2 C :   -0.250383
   3 H :    0.137948
   4 H :    0.144362
   5 C :   -0.650554
   6 C :   -0.311304
   7 N :    0.147531
   8 N :    0.051002
   9 H :    0.190381
  10 H :    0.186383
  11 H :    0.163044
  12 H :    0.188587
  13 O :   -0.089390
  14 O :   -0.066903
  15 C :   -0.255075
  16 C :   -0.257125
  17 H :    0.145038
  18 H :    0.128458
  19 C :   -0.270903
  20 H :    0.148130
  21 H :    0.136056
  22 H :    0.138374
  23 H :    0.129838
  24 H :    0.130196
  25 H :    0.138661
  26 H :    0.161987
  27 H :    0.155316

-------------------------------
LOEWDIN REDUCED ORBITAL CHARGES
-------------------------------
  0 C s       :     2.765478  s :     2.765478
      pz      :     0.982097  p :     3.040806
      px      :     1.034041
      py      :     1.024668
      dz2     :     0.103062  d :     0.362171
      dxz     :     0.060478
      dyz     :     0.076948
      dx2y2   :     0.047180
      dxy     :     0.074503
      f0      :     0.007086  f :     0.036831
      f+1     :     0.005920
      f-1     :     0.007245
      f+2     :     0.003921
      f-2     :     0.006046
      f+3     :     0.003550
      f-3     :     0.003063
  1 C s       :     2.774177  s :     2.774177
      pz      :     1.016702  p :     3.057725
      px      :     1.019304
      py      :     1.021718
      dz2     :     0.093868  d :     0.394518
      dxz     :     0.068766
      dyz     :     0.097743
      dx2y2   :     0.072597
      dxy     :     0.061544
      f0      :     0.006198  f :     0.037949
      f+1     :     0.008134
      f-1     :     0.005393
      f+2     :     0.006342
      f-2     :     0.004026
      f+3     :     0.002816
      f-3     :     0.005039
  2 C s       :     2.782490  s :     2.782490
      pz      :     1.010192  p :     3.073273
      px      :     1.036887
      py      :     1.026194
      dz2     :     0.086868  d :     0.358921
      dxz     :     0.081468
      dyz     :     0.078833
      dx2y2   :     0.036955
      dxy     :     0.074797
      f0      :     0.006480  f :     0.035699
      f+1     :     0.004741
      f-1     :     0.007049
      f+2     :     0.006293
      f-2     :     0.004223
      f+3     :     0.003660
      f-3     :     0.003253
  3 H s       :     0.802993  s :     0.802993
      pz      :     0.012173  p :     0.059059
      px      :     0.021736
      py      :     0.025149
  4 H s       :     0.796000  s :     0.796000
      pz      :     0.017894  p :     0.059638
      px      :     0.026490
      py      :     0.015254
  5 C s       :     2.768992  s :     2.768992
      pz      :     0.859440  p :     2.700654
      px      :     0.861133
      py      :     0.980080
      dz2     :     0.165618  d :     1.017660
      dxz     :     0.124737
      dyz     :     0.259013
      dx2y2   :     0.218525
      dxy     :     0.249767
      f0      :     0.020022  f :     0.163249
      f+1     :     0.016464
      f-1     :     0.018949
      f+2     :     0.025090
      f-2     :     0.024767
      f+3     :     0.028006
      f-3     :     0.029950
  6 C s       :     2.729940  s :     2.729940
      pz      :     1.022161  p :     2.697201
      px      :     0.942391
      py      :     0.732649
      dz2     :     0.173554  d :     0.776704
      dxz     :     0.197487
      dyz     :     0.121271
      dx2y2   :     0.123289
      dxy     :     0.161103
      f0      :     0.024210  f :     0.107459
      f+1     :     0.014797
      f-1     :     0.011757
      f+2     :     0.017722
      f-2     :     0.015659
      f+3     :     0.012248
      f-3     :     0.011066
  7 N s       :     2.979055  s :     2.979055
      pz      :     1.178883  p :     3.715086
      px      :     1.206495
      py      :     1.329707
      dz2     :     0.052778  d :     0.146255
      dxz     :     0.038623
      dyz     :     0.019739
      dx2y2   :     0.024796
      dxy     :     0.010320
      f0      :     0.002450  f :     0.012073
      f+1     :     0.002763
      f-1     :     0.001480
      f+2     :     0.001731
      f-2     :     0.001818
      f+3     :     0.001442
      f-3     :     0.000388
  8 N s       :     2.969951  s :     2.969951
      pz      :     1.149298  p :     3.829489
      px      :     1.213768
      py      :     1.466423
      dz2     :     0.020942  d :     0.139019
      dxz     :     0.065004
      dyz     :     0.010466
      dx2y2   :     0.022853
      dxy     :     0.019755
      f0      :     0.001830  f :     0.010539
      f+1     :     0.001469
      f-1     :     0.000581
      f+2     :     0.001566
      f-2     :     0.000865
      f+3     :     0.002091
      f-3     :     0.002136
  9 H s       :     0.703245  s :     0.703245
      pz      :     0.047537  p :     0.106374
      px      :     0.027880
      py      :     0.030957
 10 H s       :     0.706224  s :     0.706224
      pz      :     0.049435  p :     0.107393
      px      :     0.022492
      py      :     0.035466
 11 H s       :     0.664706  s :     0.664706
      pz      :     0.017960  p :     0.172251
      px      :     0.125330
      py      :     0.028961
 12 H s       :     0.704573  s :     0.704573
      pz      :     0.049339  p :     0.106840
      px      :     0.022708
      py      :     0.034793
 13 O s       :     3.416259  s :     3.416259
      pz      :     1.581755  p :     4.605394
      px      :     1.548087
      py      :     1.475552
      dz2     :     0.008871  d :     0.062659
      dxz     :     0.002650
      dyz     :     0.013411
      dx2y2   :     0.019910
      dxy     :     0.017817
      f0      :     0.000507  f :     0.005077
      f+1     :     0.000152
      f-1     :     0.000882
      f+2     :     0.000610
      f-2     :     0.000462
      f+3     :     0.001070
      f-3     :     0.001394
 14 O s       :     3.417666  s :     3.417666
      pz      :     1.469221  p :     4.581682
      px      :     1.457694
      py      :     1.654766
      dz2     :     0.010576  d :     0.062153
      dxz     :     0.020852
      dyz     :     0.010184
      dx2y2   :     0.009578
      dxy     :     0.010962
      f0      :     0.000487  f :     0.005402
      f+1     :     0.001137
      f-1     :     0.000355
      f+2     :     0.001156
      f-2     :     0.001246
      f+3     :     0.000513
      f-3     :     0.000508
 15 C s       :     2.774154  s :     2.774154
      pz      :     1.009003  p :     3.044105
      px      :     1.021134
      py      :     1.013967
      dz2     :     0.090017  d :     0.399027
      dxz     :     0.035582
      dyz     :     0.093059
      dx2y2   :     0.100571
      dxy     :     0.079798
      f0      :     0.003383  f :     0.037789
      f+1     :     0.004199
      f-1     :     0.007208
      f+2     :     0.004100
      f-2     :     0.006723
      f+3     :     0.004949
      f-3     :     0.007228
 16 C s       :     2.769137  s :     2.769137
      pz      :     1.027581  p :     3.055060
      px      :     1.019191
      py      :     1.008288
      dz2     :     0.064887  d :     0.394323
      dxz     :     0.067609
      dyz     :     0.069120
      dx2y2   :     0.097655
      dxy     :     0.095052
      f0      :     0.004780  f :     0.038605
      f+1     :     0.004072
      f-1     :     0.002779
      f+2     :     0.006585
      f-2     :     0.004959
      f+3     :     0.007120
      f-3     :     0.008309
 17 H s       :     0.796191  s :     0.796191
      pz      :     0.029207  p :     0.058771
      px      :     0.014862
      py      :     0.014702
 18 H s       :     0.813288  s :     0.813288
      pz      :     0.013391  p :     0.058253
      px      :     0.029666
      py      :     0.015196
 19 C s       :     2.770785  s :     2.770785
      pz      :     1.020042  p :     3.063110
      px      :     1.003500
      py      :     1.039568
      dz2     :     0.093089  d :     0.398783
      dxz     :     0.074419
      dyz     :     0.037657
      dx2y2   :     0.115870
      dxy     :     0.077748
      f0      :     0.005106  f :     0.038224
      f+1     :     0.005081
      f-1     :     0.002629
      f+2     :     0.007158
      f-2     :     0.004655
      f+3     :     0.006098
      f-3     :     0.007497
 20 H s       :     0.790578  s :     0.790578
      pz      :     0.033598  p :     0.061292
      px      :     0.013448
      py      :     0.014247
 21 H s       :     0.805375  s :     0.805375
      pz      :     0.019772  p :     0.058569
      px      :     0.013584
      py      :     0.025213
 22 H s       :     0.798404  s :     0.798404
      pz      :     0.018565  p :     0.063222
      px      :     0.013402
      py      :     0.031255
 23 H s       :     0.812134  s :     0.812134
      pz      :     0.030633  p :     0.058027
      px      :     0.013639
      py      :     0.013756
 24 H s       :     0.811781  s :     0.811781
      pz      :     0.017572  p :     0.058023
      px      :     0.013497
      py      :     0.026954
 25 H s       :     0.802730  s :     0.802730
      pz      :     0.012750  p :     0.058608
      px      :     0.028252
      py      :     0.017606
 26 H s       :     0.776145  s :     0.776145
      pz      :     0.011681  p :     0.061868
      px      :     0.035025
      py      :     0.015162
 27 H s       :     0.785151  s :     0.785151
      pz      :     0.015345  p :     0.059533
      px      :     0.019603
      py      :     0.024585


                      *****************************
                      * MAYER POPULATION ANALYSIS *
                      *****************************

  NA   - Mulliken gross atomic population
  ZA   - Total nuclear charge
  QA   - Mulliken gross atomic charge
  VA   - Mayer's total valence
  BVA  - Mayer's bonded valence
  FA   - Mayer's free valence

  ATOM       NA         ZA         QA         VA         BVA        FA
  0 C      6.2603     6.0000    -0.2603     3.8853     3.8853     0.0000
  1 C      6.1699     6.0000    -0.1699     3.9350     3.9350    -0.0000
  2 C      6.2118     6.0000    -0.2118     3.7659     3.7659    -0.0000
  3 H      0.8910     1.0000     0.1090     0.9929     0.9929     0.0000
  4 H      0.8919     1.0000     0.1081     0.9782     0.9782    -0.0000
  5 C      5.7066     6.0000     0.2934     4.3898     4.3898    -0.0000
  6 C      5.6979     6.0000     0.3021     4.0084     4.0084     0.0000
  7 N      7.3032     7.0000    -0.3032     3.3065     3.3065     0.0000
  8 N      7.4429     7.0000    -0.4429     3.1945     3.1945    -0.0000
  9 H      0.7226     1.0000     0.2774     0.9345     0.9345    -0.0000
 10 H      0.7242     1.0000     0.2758     0.9360     0.9360    -0.0000
 11 H      0.7102     1.0000     0.2898     1.0226     1.0226     0.0000
 12 H      0.7370     1.0000     0.2630     0.9663     0.9663     0.0000
 13 O      8.5770     8.0000    -0.5770     1.8658     1.8658    -0.0000
 14 O      8.5284     8.0000    -0.5284     1.9253     1.9253    -0.0000
 15 C      6.1933     6.0000    -0.1933     3.8684     3.8684    -0.0000
 16 C      6.2378     6.0000    -0.2378     3.8418     3.8418    -0.0000
 17 H      0.8789     1.0000     0.1211     0.9773     0.9773    -0.0000
 18 H      0.8985     1.0000     0.1015     0.9687     0.9687    -0.0000
 19 C      6.1824     6.0000    -0.1824     3.8210     3.8210    -0.0000
 20 H      0.8562     1.0000     0.1438     0.9895     0.9895    -0.0000
 21 H      0.8984     1.0000     0.1016     0.9685     0.9685    -0.0000
 22 H      0.8859     1.0000     0.1141     1.0027     1.0027     0.0000
 23 H      0.9074     1.0000     0.0926     0.9642     0.9642     0.0000
 24 H      0.9117     1.0000     0.0883     0.9690     0.9690     0.0000
 25 H      0.9034     1.0000     0.0966     0.9784     0.9784     0.0000
 26 H      0.8253     1.0000     0.1747     0.9782     0.9782     0.0000
 27 H      0.8457     1.0000     0.1543     0.9652     0.9652     0.0000

  Mayer bond orders larger than 0.100000
B(  0-C ,  6-C ) :   0.9572 B(  0-C , 15-C ) :   0.9482 B(  0-C , 26-H ) :   0.9772 
B(  0-C , 27-H ) :   0.9613 B(  1-C ,  2-C ) :   0.9631 B(  1-C , 19-C ) :   0.9882 
B(  1-C , 24-H ) :   0.9762 B(  1-C , 25-H ) :   0.9702 B(  2-C ,  3-H ) :   0.9782 
B(  2-C ,  4-H ) :   0.9544 B(  2-C ,  5-C ) :   0.9547 B(  5-C , 13-O ) :   1.5995 
B(  5-C , 14-O ) :   1.8115 B(  6-C ,  7-N ) :   1.6205 B(  6-C ,  8-N ) :   1.3049 
B(  7-N , 11-H ) :   0.7415 B(  7-N , 12-H ) :   0.8921 B(  8-N ,  9-H ) :   0.9010 
B(  8-N , 10-H ) :   0.9005 B( 11-H , 13-O ) :   0.2365 B( 15-C , 16-C ) :   0.9508 
B( 15-C , 17-H ) :   0.9671 B( 15-C , 18-H ) :   0.9855 B( 16-C , 19-C ) :   0.9318 
B( 16-C , 20-H ) :   0.9771 B( 16-C , 21-H ) :   0.9630 B( 19-C , 22-H ) :   0.9820 
B( 19-C , 23-H ) :   0.9619 

-------
TIMINGS
-------

Total SCF time: 0 days 0 hours 1 min 1 sec 

Total time                  ....      61.069 sec
Sum of individual times     ....      60.283 sec  ( 98.7%)

Fock matrix formation       ....      57.053 sec  ( 93.4%)
  Split-RI-J                ....       4.029 sec  (  7.1% of F)
  Chain of spheres X        ....      48.889 sec  ( 85.7% of F)
  XC integration            ....       3.881 sec  (  6.8% of F)
    Basis function eval.    ....       0.992 sec  ( 25.6% of XC)
    Density eval.           ....       1.047 sec  ( 27.0% of XC)
    XC-Functional eval.     ....       0.157 sec  (  4.1% of XC)
    XC-Potential eval.      ....       1.005 sec  ( 25.9% of XC)
Diagonalization             ....       0.498 sec  (  0.8%)
Density matrix formation    ....       0.042 sec  (  0.1%)
Population analysis         ....       0.065 sec  (  0.1%)
Initial guess               ....       0.428 sec  (  0.7%)
Orbital Transformation      ....       0.000 sec  (  0.0%)
Orbital Orthonormalization  ....       0.000 sec  (  0.0%)
DIIS solution               ....       0.294 sec  (  0.5%)
SOSCF solution              ....       0.395 sec  (  0.6%)
Grid generation             ....       1.508 sec  (  2.5%)

Maximum memory used throughout the entire SCF-calculation: 102.0 MB


-------------------------------------------------------------------------------
                          DFT DISPERSION CORRECTION                            
                                                                               
                              DFTD3 V3.1  Rev 1                                
                              USING zero damping                               
-------------------------------------------------------------------------------
The omegaB97X-D3 functional is recognized. Fit by Chai et al.
Active option DFTDOPT                   ...         3   

molecular C6(AA) [au] = 6187.788991 


            DFT-D V3
 parameters
 s6 scaling factor         :     1.0000 
 rs6 scaling factor        :     1.2810 
 s8 scaling factor         :     1.0000 
 rs8 scaling factor        :     1.0940 
 Damping factor alpha6     :    14.0000 
 Damping factor alpha8     :    16.0000 
 ad hoc parameters k1-k3   :    16.0000     1.3333    -4.0000 

 Edisp/kcal,au: -8.589555244274  -0.013688326126 
 E6   /kcal   :  -3.752710368 
 E8   /kcal   :  -4.836844876 
 % E8         :  56.310772078 

-------------------------   ----------------
Dispersion correction           -0.013688326
-------------------------   ----------------


-------------------------   --------------------
FINAL SINGLE POINT ENERGY      -574.531303936595
-------------------------   --------------------


                            ***************************************
                            *     ORCA property calculations      *
                            ***************************************

                                    ---------------------
                                    Active property flags
                                    ---------------------
   (+) Dipole Moment


------------------------------------------------------------------------------
                       ORCA ELECTRIC PROPERTIES CALCULATION
------------------------------------------------------------------------------

Dipole Moment Calculation                       ... on
Quadrupole Moment Calculation                   ... off
Polarizability Calculation                      ... off
GBWName                                         ... B.gbw
Electron density file                           ... B.scfp
The origin for moment calculation is the CENTER OF MASS  = ( 2.553412, -2.137730 -6.853215)

-------------
DIPOLE MOMENT
-------------
                                X             Y             Z
Electronic contribution:      1.77367      -2.93299      -8.81612
Nuclear contribution   :      1.39386       1.90489      10.36520
                        -----------------------------------------
Total Dipole Moment    :      3.16753      -1.02809       1.54908
                        -----------------------------------------
Magnitude (a.u.)       :      3.67286
Magnitude (Debye)      :      9.33566



--------------------
Rotational spectrum 
--------------------
 
Rotational constants in cm-1:     0.041165     0.025922     0.019001 
Rotational constants in MHz :  1234.086888   777.109255   569.639629 

 Dipole components along the rotational axes: 
x,y,z [a.u.] :     3.305848    -1.458307     0.659228 
x,y,z [Debye]:     8.402797    -3.706722     1.675624 

 

Timings for individual modules:

Sum of individual times         ...       62.446 sec (=   1.041 min)
GTO integral calculation        ...        0.948 sec (=   0.016 min)   1.5 %
SCF iterations                  ...       61.498 sec (=   1.025 min)  98.5 %
                             ****ORCA TERMINATED NORMALLY****
TOTAL RUN TIME: 0 days 0 hours 1 minutes 3 seconds 151 msec
