
                                        *****************
                                        * O   R   C   A *
                                        *****************

                                            #,                                       
                                            ###                                      
                                            ####                                     
                                            #####                                    
                                            ######                                   
                                           ########,                                 
                                     ,,################,,,,,                         
                               ,,#################################,,                 
                          ,,##########################################,,             
                       ,#########################################, ''#####,          
                    ,#############################################,,   '####,        
                  ,##################################################,,,,####,       
                ,###########''''           ''''###############################       
              ,#####''   ,,,,##########,,,,          '''####'''          '####       
            ,##' ,,,,###########################,,,                        '##       
           ' ,,###''''                  '''############,,,                           
         ,,##''                                '''############,,,,        ,,,,,,###''
      ,#''                                            '''#######################'''  
     '                                                          ''''####''''         
             ,#######,   #######,   ,#######,      ##                                
            ,#'     '#,  ##    ##  ,#'     '#,    #''#        ######   ,####,        
            ##       ##  ##   ,#'  ##            #'  '#       #        #'  '#        
            ##       ##  #######   ##           ,######,      #####,   #    #        
            '#,     ,#'  ##    ##  '#,     ,#' ,#      #,         ##   #,  ,#        
             '#######'   ##     ##  '#######'  #'      '#     #####' # '####'        



                  #######################################################
                  #                        -***-                        #
                  #          Department of theory and spectroscopy      #
                  #    Directorship and core code : Frank Neese         #
                  #        Max Planck Institute fuer Kohlenforschung    #
                  #                Kaiser Wilhelm Platz 1               #
                  #                 D-45470 Muelheim/Ruhr               #
                  #                      Germany                        #
                  #                                                     #
                  #                  All rights reserved                #
                  #                        -***-                        #
                  #######################################################


                         Program Version 5.0.0 -  RELEASE  -
                                (SVN: $Rev: 19529$)
                ($Date: 2021-06-28 11:36:33 +0200 (Mo, 28 Jun 2021) $)


 With contributions from (in alphabetic order):
   Daniel Aravena         : Magnetic Suceptibility
   Michael Atanasov       : Ab Initio Ligand Field Theory (pilot matlab implementation)
   Alexander A. Auer      : GIAO ZORA, VPT2 properties, NMR spectrum
   Ute Becker             : Parallelization
   Giovanni Bistoni       : ED, misc. LED, open-shell LED, HFLD
   Martin Brehm           : Molecular dynamics
   Dmytro Bykov           : SCF Hessian
   Vijay G. Chilkuri      : MRCI spin determinant printing, contributions to CSF-ICE
   Dipayan Datta          : RHF DLPNO-CCSD density
   Achintya Kumar Dutta   : EOM-CC, STEOM-CC
   Dmitry Ganyushin       : Spin-Orbit,Spin-Spin,Magnetic field MRCI
   Miquel Garcia          : C-PCM Hessian, Gaussian charge scheme
   Yang Guo               : DLPNO-NEVPT2, F12-NEVPT2, CIM, IAO-localization
   Andreas Hansen         : Spin unrestricted coupled pair/coupled cluster methods
   Benjamin Helmich-Paris : MC-RPA, TRAH-SCF, COSX integrals
   Lee Huntington         : MR-EOM, pCC
   Robert Izsak           : Overlap fitted RIJCOSX, COSX-SCS-MP3, EOM
   Marcus Kettner         : VPT2
   Christian Kollmar      : KDIIS, OOCD, Brueckner-CCSD(T), CCSD density, CASPT2, CASPT2-K
   Simone Kossmann        : Meta GGA functionals, TD-DFT gradient, OOMP2, MP2 Hessian
   Martin Krupicka        : Initial AUTO-CI
   Lucas Lang             : DCDCAS
   Marvin Lechner         : AUTO-CI (C++ implementation), FIC-MRCC
   Dagmar Lenk            : GEPOL surface, SMD
   Dimitrios Liakos       : Extrapolation schemes; Compound Job, initial MDCI parallelization
   Dimitrios Manganas     : Further ROCIS development; embedding schemes
   Dimitrios Pantazis     : SARC Basis sets
   Anastasios Papadopoulos: AUTO-CI, single reference methods and gradients
   Taras Petrenko         : DFT Hessian,TD-DFT gradient, ASA, ECA, R-Raman, ABS, FL, XAS/XES, NRVS
   Peter Pinski           : DLPNO-MP2, DLPNO-MP2 Gradient
   Christoph Reimann      : Effective Core Potentials
   Marius Retegan         : Local ZFS, SOC
   Christoph Riplinger    : Optimizer, TS searches, QM/MM, DLPNO-CCSD(T), (RO)-DLPNO pert. Triples
   Tobias Risthaus        : Range-separated hybrids, TD-DFT gradient, RPA, STAB
   Michael Roemelt        : Original ROCIS implementation
   Masaaki Saitow         : Open-shell DLPNO-CCSD energy and density
   Barbara Sandhoefer     : DKH picture change effects
   Avijit Sen             : IP-ROCIS
   Kantharuban Sivalingam : CASSCF convergence, NEVPT2, FIC-MRCI
   Bernardo de Souza      : ESD, SOC TD-DFT
   Georgi Stoychev        : AutoAux, RI-MP2 NMR
   Willem Van den Heuvel  : Paramagnetic NMR
   Boris Wezisla          : Elementary symmetry handling
   Frank Wennmohs         : Technical directorship


 We gratefully acknowledge several colleagues who have allowed us to
 interface, adapt or use parts of their codes:
   Stefan Grimme, W. Hujo, H. Kruse, P. Pracht,  : VdW corrections, initial TS optimization,
                  C. Bannwarth, S. Ehlert          DFT functionals, gCP, sTDA/sTD-DF
   Ed Valeev, F. Pavosevic, A. Kumar             : LibInt (2-el integral package), F12 methods
   Garnet Chan, S. Sharma, J. Yang, R. Olivares  : DMRG
   Ulf Ekstrom                                   : XCFun DFT Library
   Mihaly Kallay                                 : mrcc  (arbitrary order and MRCC methods)
   Jiri Pittner, Ondrej Demel                    : Mk-CCSD
   Frank Weinhold                                : gennbo (NPA and NBO analysis)
   Christopher J. Cramer and Donald G. Truhlar   : smd solvation model
   Lars Goerigk                                  : TD-DFT with DH, B97 family of functionals
   V. Asgeirsson, H. Jonsson                     : NEB implementation
   FAccTs GmbH                                   : IRC, NEB, NEB-TS, DLPNO-Multilevel, CI-OPT
                                                   MM, QMMM, 2- and 3-layer-ONIOM, Crystal-QMMM,
                                                   LR-CPCM, SF, NACMEs, symmetry and pop. for TD-DFT,
                                                   nearIR, NL-DFT gradient (VV10), updates on ESD,
                                                   ML-optimized integration grids
   S Lehtola, MJT Oliveira, MAL Marques          : LibXC Library
   Liviu Ungur et al                             : ANISO software


 Your calculation uses the libint2 library for the computation of 2-el integrals
 For citations please refer to: http://libint.valeyev.net

 Your ORCA version has been built with support for libXC version: 5.1.0
 For citations please refer to: https://tddft.org/programs/libxc/

 This ORCA versions uses:
   CBLAS   interface :  Fast vector & matrix operations
   LAPACKE interface :  Fast linear algebra routines
   SCALAPACK package :  Parallel linear algebra routines
   Shared memory     :  Shared parallel matrices
   BLAS/LAPACK       :  OpenBLAS 0.3.15  USE64BITINT DYNAMIC_ARCH NO_AFFINITY Haswell SINGLE_THREADED
        Core in use  :  Haswell
   Copyright (c) 2011-2014, The OpenBLAS Project


XCFun DFT library Copyright 2009-2010 Ulf Ekstrom and contributors.
See http://admol.org/xcfun for more information.
This is free software; see the source code for copying conditions.
There is ABSOLUTELY NO WARRANTY; not even for MERCHANTABILITY or FITNESS FOR A PARTICULAR PURPOSE.
For details see the documentation.
Scientific users of this library should cite U. Ekstrom, L. Visscher, R. Bast, A. J. Thorvaldsen and K. Ruud;
J.Chem.Theor.Comp. 2010, DOI: 10.1021/ct100117s
XCFun Version 0.99 

================================================================================

----- Orbital basis set information -----
Your calculation utilizes the basis: def2-SVPD
   F. Weigend and R. Ahlrichs, Phys. Chem. Chem. Phys. 7, 3297 (2005).
   D. Rappoport and F. Furche, J. Chem. Phys. 133 134105 (2010).

----- AuxJ basis set information -----
Your calculation utilizes the auxiliary basis: def2/J
   F. Weigend, Phys. Chem. Chem. Phys. 8, 1057 (2006).

================================================================================
                                        WARNINGS
                       Please study these warnings very carefully!
================================================================================


INFO   : the flag for use of the SHARK integral package has been found!

================================================================================
                                       INPUT FILE
================================================================================
NAME = SVPD_CAMB3LYP_C2_wt_dlpno_pos.com
|  1> !CAM-B3LYP RIJCOSX def2-SVPD def2/J TightSCF
|  2> *xyz 0 1
|  3> C          3.38093        2.08304       -3.35013
|  4> N          4.53592        1.18245       -3.42852
|  5> C          2.49556        1.81615       -2.13636
|  6> C          4.67196        0.12227       -4.22060
|  7> C          5.86602       -0.50785       -4.22428
|  8> N          3.69888       -0.31284       -4.98699
|  9> H          2.73141       -0.05009       -4.84900
| 10> H          3.89005       -1.05517       -5.64373
| 11> H          5.25193        1.30346       -2.72101
| 12> H          6.69516       -0.06232       -3.85160
| 13> H          5.97538       -1.39688       -4.69141
| 14> H          2.80646        1.98651       -4.26848
| 15> H          3.77871        3.09828       -3.30738
| 16> H          2.11090        0.81901       -2.18783
| 17> H          1.68276        2.51198       -2.12786
| 18> H          3.07216        1.93031       -1.24227
| 19> *
| 20> 
| 21> %MaxCore 64000
| 22> 
| 23> %pal nprocs 4
| 24> end  
| 25> 
| 26> %scf
| 27>   MaxIter 150
| 28> end
| 29> 
| 30> 
| 31>                          ****END OF INPUT****
================================================================================

                       ****************************
                       * Single Point Calculation *
                       ****************************

---------------------------------
CARTESIAN COORDINATES (ANGSTROEM)
---------------------------------
  C      3.380930    2.083040   -3.350130
  N      4.535920    1.182450   -3.428520
  C      2.495560    1.816150   -2.136360
  C      4.671960    0.122270   -4.220600
  C      5.866020   -0.507850   -4.224280
  N      3.698880   -0.312840   -4.986990
  H      2.731410   -0.050090   -4.849000
  H      3.890050   -1.055170   -5.643730
  H      5.251930    1.303460   -2.721010
  H      6.695160   -0.062320   -3.851600
  H      5.975380   -1.396880   -4.691410
  H      2.806460    1.986510   -4.268480
  H      3.778710    3.098280   -3.307380
  H      2.110900    0.819010   -2.187830
  H      1.682760    2.511980   -2.127860
  H      3.072160    1.930310   -1.242270

----------------------------
CARTESIAN COORDINATES (A.U.)
----------------------------
  NO LB      ZA    FRAG     MASS         X           Y           Z
   0 C     6.0000    0    12.011    6.389032    3.936375   -6.330828
   1 N     7.0000    0    14.007    8.571647    2.234507   -6.478964
   2 C     6.0000    0    12.011    4.715925    3.432026   -4.037135
   3 C     6.0000    0    12.011    8.828725    0.231057   -7.975778
   4 C     6.0000    0    12.011   11.085171   -0.959697   -7.982732
   5 N     7.0000    0    14.007    6.989870   -0.591182   -9.424045
   6 H     1.0000    0     1.008    5.161617   -0.094656   -9.163282
   7 H     1.0000    0     1.008    7.351129   -1.993982  -10.665104
   8 H     1.0000    0     1.008    9.924709    2.463182   -5.141964
   9 H     1.0000    0     1.008   12.652019   -0.117768   -7.278469
  10 H     1.0000    0     1.008   11.291832   -2.639721   -8.865480
  11 H     1.0000    0     1.008    5.303441    3.753960   -8.066258
  12 H     1.0000    0     1.008    7.140727    5.854901   -6.250042
  13 H     1.0000    0     1.008    3.989023    1.547705   -4.134400
  14 H     1.0000    0     1.008    3.179956    4.746954   -4.021073
  15 H     1.0000    0     1.008    5.805541    3.647757   -2.347550

--------------------------------
INTERNAL COORDINATES (ANGSTROEM)
--------------------------------
 C      0   0   0     0.000000000000     0.00000000     0.00000000
 N      1   0   0     1.466700119418     0.00000000     0.00000000
 C      1   2   0     1.525892500113   113.08111731     0.00000000
 C      2   1   3     1.330368084554   126.98938656   102.39062418
 C      4   2   1     1.350127416357   117.64459308   174.24709975
 N      4   2   1     1.312843871372   122.40398904   354.61462441
 H      6   4   2     1.011966898421   122.88508084   342.67073608
 H      6   4   2     1.009409344815   118.89240317   173.11235798
 H      2   1   3     1.013846211365   116.45877876   291.29629415
 H      5   4   2     1.012353941515   121.19466995   343.47510404
 H      5   4   2     1.010219969809   120.51230720   170.23250373
 H      1   2   3     1.087520365005   108.44174395   237.12574124
 H      1   2   3     1.091223509873   106.63701105   121.10186677
 H      3   1   2     1.070000306589   109.47067085   299.14133701
 H      3   1   2     1.069997887334   109.47128745   179.14208237
 H      3   1   2     1.069998595186   109.47169847    59.14222448

---------------------------
INTERNAL COORDINATES (A.U.)
---------------------------
 C      0   0   0     0.000000000000     0.00000000     0.00000000
 N      1   0   0     2.771661546289     0.00000000     0.00000000
 C      1   2   0     2.883518935017   113.08111731     0.00000000
 C      2   1   3     2.514031337117   126.98938656   102.39062418
 C      4   2   1     2.551371062814   117.64459308   174.24709975
 N      4   2   1     2.480915373491   122.40398904   354.61462441
 H      6   4   2     1.912340294610   122.88508084   342.67073608
 H      6   4   2     1.907507218721   118.89240317   173.11235798
 H      2   1   3     1.915891681394   116.45877876   291.29629415
 H      5   4   2     1.913071700058   121.19466995   343.47510404
 H      5   4   2     1.909039077956   120.51230720   170.23250373
 H      1   2   3     2.055115654921   108.44174395   237.12574124
 H      1   2   3     2.062113584557   106.63701105   121.10186677
 H      3   1   2     2.022007542664   109.47067085   299.14133701
 H      3   1   2     2.022002970936   109.47128745   179.14208237
 H      3   1   2     2.022004308582   109.47169847    59.14222448

---------------------
BASIS SET INFORMATION
---------------------
There are 3 groups of distinct atoms

 Group   1 Type C   : 8s4p2d contracted to 4s2p2d pattern {5111/31/11}
 Group   2 Type N   : 8s4p2d contracted to 4s2p2d pattern {5111/31/11}
 Group   3 Type H   : 4s2p contracted to 2s2p pattern {31/11}

Atom   0C    basis set group =>   1
Atom   1N    basis set group =>   2
Atom   2C    basis set group =>   1
Atom   3C    basis set group =>   1
Atom   4C    basis set group =>   1
Atom   5N    basis set group =>   2
Atom   6H    basis set group =>   3
Atom   7H    basis set group =>   3
Atom   8H    basis set group =>   3
Atom   9H    basis set group =>   3
Atom  10H    basis set group =>   3
Atom  11H    basis set group =>   3
Atom  12H    basis set group =>   3
Atom  13H    basis set group =>   3
Atom  14H    basis set group =>   3
Atom  15H    basis set group =>   3
---------------------------------
AUXILIARY/J BASIS SET INFORMATION
---------------------------------
There are 3 groups of distinct atoms

 Group   1 Type C   : 12s5p4d2f1g contracted to 6s4p3d1f1g pattern {711111/2111/211/2/1}
 Group   2 Type N   : 12s5p4d2f1g contracted to 6s4p3d1f1g pattern {711111/2111/211/2/1}
 Group   3 Type H   : 5s2p1d contracted to 3s1p1d pattern {311/2/1}

Atom   0C    basis set group =>   1
Atom   1N    basis set group =>   2
Atom   2C    basis set group =>   1
Atom   3C    basis set group =>   1
Atom   4C    basis set group =>   1
Atom   5N    basis set group =>   2
Atom   6H    basis set group =>   3
Atom   7H    basis set group =>   3
Atom   8H    basis set group =>   3
Atom   9H    basis set group =>   3
Atom  10H    basis set group =>   3
Atom  11H    basis set group =>   3
Atom  12H    basis set group =>   3
Atom  13H    basis set group =>   3
Atom  14H    basis set group =>   3
Atom  15H    basis set group =>   3


           ************************************************************
           *        Program running with 4 parallel MPI-processes     *
           *              working on a common directory               *
           ************************************************************
------------------------------------------------------------------------------
                           ORCA GTO INTEGRAL CALCULATION
                           -- RI-GTO INTEGRALS CHOSEN --
------------------------------------------------------------------------------
------------------------------------------------------------------------------
                   ___                                                        
                  /   \      - P O W E R E D   B Y -                         
                 /     \                                                     
                 |  |  |   _    _      __       _____    __    __             
                 |  |  |  | |  | |    /  \     |  _  \  |  |  /  |          
                  \  \/   | |  | |   /    \    | | | |  |  | /  /          
                 / \  \   | |__| |  /  /\  \   | |_| |  |  |/  /          
                |  |  |   |  __  | /  /__\  \  |    /   |      \           
                |  |  |   | |  | | |   __   |  |    \   |  |\   \          
                \     /   | |  | | |  |  |  |  | |\  \  |  | \   \       
                 \___/    |_|  |_| |__|  |__|  |_| \__\ |__|  \__/        
                                                                              
                      - O R C A' S   B I G   F R I E N D -                    
                                      &                                       
                       - I N T E G R A L  F E E D E R -                       
                                                                              
 v1 FN, 2020, v2 2021                                                         
------------------------------------------------------------------------------


Reading SHARK input file SVPD_CAMB3LYP_C2_wt_dlpno_pos.SHARKINP.tmp ... ok
----------------------
SHARK INTEGRAL PACKAGE
----------------------

Number of atoms                             ...     16
Number of basis functions                   ...    200
Number of shells                            ...     88
Maximum angular momentum                    ...      2
Integral batch strategy                     ... SHARK/LIBINT Hybrid
RI-J (if used) integral strategy            ... SPLIT-RIJ (Revised 2003 algorithm where possible)
Printlevel                                  ...      1
Contraction scheme used                     ... SEGMENTED contraction
Coulomb Range Separation                    ... NOT USED
Exchange Range Separation                   ... Long Range
   Mu parameter                             ...  0.330000
   Scaling (regular/separated)              ...  0.190000  0.460000
Finite Nucleus Model                        ... NOT USED
Auxiliary Coulomb fitting basis             ... AVAILABLE
   # of basis functions in Aux-J            ...    404
   # of shells in Aux-J                     ...    140
   Maximum angular momentum in Aux-J        ...      4
Auxiliary J/K fitting basis                 ... NOT available
Auxiliary Correlation fitting basis         ... NOT available
Auxiliary 'external' fitting basis          ... NOT available
Integral threshold                          ...     2.500000e-11
Primitive cut-off                           ...     2.500000e-12
Primitive pair pre-selection threshold      ...     2.500000e-12

Calculating pre-screening integrals         ... done (  0.0 sec) Dimension = 88
Organizing shell pair data                  ... done (  0.0 sec)
Shell pair information
Total number of shell pairs                 ...      3916
Shell pairs after pre-screening             ...      3832
Total number of primitive shell pairs       ...     10548
Primitive shell pairs kept                  ...      8563
          la=0 lb=0:    965 shell pairs
          la=1 lb=0:   1376 shell pairs
          la=1 lb=1:    515 shell pairs
          la=2 lb=0:    520 shell pairs
          la=2 lb=1:    378 shell pairs
          la=2 lb=2:     78 shell pairs

Calculating one electron integrals          ... done (  0.0 sec)
Calculating RI/J V-Matrix + Cholesky decomp.... done (  0.0 sec)
Calculating Nuclear repulsion               ... done (  0.0 sec) ENN=    247.879445799199 Eh

SHARK setup successfully completed in   0.2 seconds

Maximum memory used throughout the entire GTOINT-calculation: 8.9 MB


           ************************************************************
           *        Program running with 4 parallel MPI-processes     *
           *              working on a common directory               *
           ************************************************************
-------------------------------------------------------------------------------
                                 ORCA SCF
-------------------------------------------------------------------------------

------------
SCF SETTINGS
------------
Hamiltonian:
 Density Functional     Method          .... DFT(GTOs)
 Exchange Functional    Exchange        .... WB88
 Correlation Functional Correlation     .... LYP
 LDA part of GGA corr.  LDAOpt          .... VWN-5
 Gradients option       PostSCFGGA      .... off
 Hybrid DFT is turned on
   Fraction HF Exchange ScalHFX         ....  0.190000
   Scaling of DF-GGA-X  ScalDFX         ....  0.350000
   Scaling of DF-GGA-C  ScalDFC         ....  0.810000
   Scaling of DF-LDA-C  ScalLDAC        ....  1.000000
   Perturbative correction              ....  0.000000
   Density functional embedding theory  .... OFF
 Long-range corrected/Screened/Range-Separated Hybrid DFT is turned on
   Amount of maximum screened exact exchange              ....  0.460000
   Range separation parameter mu (erf(mu*r12)/r12)        ....  0.330000
 RI-approximation to the Coulomb term is turned on
   Number of AuxJ basis functions       .... 404
   RIJ-COSX (HFX calculated with COS-X)).... on


General Settings:
 Integral files         IntName         .... SVPD_CAMB3LYP_C2_wt_dlpno_pos
 Hartree-Fock type      HFTyp           .... RHF
 Total Charge           Charge          ....    0
 Multiplicity           Mult            ....    1
 Number of Electrons    NEL             ....   48
 Basis Dimension        Dim             ....  200
 Nuclear Repulsion      ENuc            ....    247.8794457992 Eh

Convergence Acceleration:
 DIIS                   CNVDIIS         .... on
   Start iteration      DIISMaxIt       ....    12
   Startup error        DIISStart       ....  0.200000
   # of expansion vecs  DIISMaxEq       ....     5
   Bias factor          DIISBfac        ....   1.050
   Max. coefficient     DIISMaxC        ....  10.000
 Trust-Rad. Augm. Hess. CNVTRAH         .... auto
   Auto Start mean grad. ratio tolernc. ....  1.125000
   Auto Start start iteration           ....    20
   Auto Start num. interpolation iter.  ....    10
   Max. Number of Micro iterations      ....    16
   Max. Number of Macro iterations      .... Maxiter - #DIIS iter
   Number of Davidson start vectors     ....     2
   Converg. threshold I  (grad. norm)   ....   1.000e-05
   Converg. threshold II (energy diff.) ....   1.000e-08
   Grad. Scal. Fac. for Micro threshold ....   0.100
   Minimum threshold for Micro iter.    ....   0.010
   NR start threshold (gradient norm)   ....   0.001
   Initial trust radius                 ....   0.400
   Minimum AH scaling param. (alpha)    ....   1.000
   Maximum AH scaling param. (alpha)    .... 1000.000
   Orbital update algorithm             .... Taylor
   White noise on init. David. guess    .... on
   Maximum white noise                  ....   0.010
   Quad. conv. algorithm                .... NR
 SOSCF                  CNVSOSCF        .... on
   Start iteration      SOSCFMaxIt      ....   150
   Startup grad/error   SOSCFStart      ....  0.003300
 Level Shifting         CNVShift        .... on
   Level shift para.    LevelShift      ....    0.2500
   Turn off err/grad.   ShiftErr        ....    0.0010
 Zerner damping         CNVZerner       .... off
 Static damping         CNVDamp         .... on
   Fraction old density DampFac         ....    0.7000
   Max. Damping (<1)    DampMax         ....    0.9800
   Min. Damping (>=0)   DampMin         ....    0.0000
   Turn off err/grad.   DampErr         ....    0.1000
 Fernandez-Rico         CNVRico         .... off

SCF Procedure:
 Maximum # iterations   MaxIter         ....   150
 SCF integral mode      SCFMode         .... Direct
   Integral package                     .... SHARK and LIBINT hybrid scheme
 Reset frequency        DirectResetFreq ....    20
 Integral Threshold     Thresh          ....  2.500e-11 Eh
 Primitive CutOff       TCut            ....  2.500e-12 Eh

Convergence Tolerance:
 Convergence Check Mode ConvCheckMode   .... Total+1el-Energy
 Convergence forced     ConvForced      .... 0
 Energy Change          TolE            ....  1.000e-08 Eh
 1-El. energy change                    ....  1.000e-05 Eh
 Orbital Gradient       TolG            ....  1.000e-05
 Orbital Rotation angle TolX            ....  1.000e-05
 DIIS Error             TolErr          ....  5.000e-07


Diagonalization of the overlap matrix:
Smallest eigenvalue                        ... 6.319e-05
Time for diagonalization                   ...    0.012 sec
Threshold for overlap eigenvalues          ... 1.000e-08
Number of eigenvalues below threshold      ... 0
Time for construction of square roots      ...    0.007 sec
Total time needed                          ...    0.019 sec

Time for model grid setup =    0.092 sec

------------------------------
INITIAL GUESS: MODEL POTENTIAL
------------------------------
Loading Hartree-Fock densities                     ... done
Calculating cut-offs                               ... done
Initializing the effective Hamiltonian             ... done
Setting up the integral package (SHARK)            ... done
Starting the Coulomb interaction                   ... done (   0.0 sec)
Reading the grid                                   ... done
Mapping shells                                     ... done
Starting the XC term evaluation                    ... done (   0.1 sec)
  promolecular density results
     # of electrons  =     47.996097722
     EX              =    -36.575930754
     EC              =     -1.574578898
     EX+EC           =    -38.150509652
Transforming the Hamiltonian                       ... done (   0.0 sec)
Diagonalizing the Hamiltonian                      ... done (   0.0 sec)
Back transforming the eigenvectors                 ... done (   0.0 sec)
Now organizing SCF variables                       ... done
                      ------------------
                      INITIAL GUESS DONE (   0.2 sec)
                      ------------------
-------------------
DFT GRID GENERATION
-------------------

General Integration Accuracy     IntAcc      ... 4.388
Radial Grid Type                 RadialGrid  ... OptM3 with GC (2021)
Angular Grid (max. ang.)         AngularGrid ... 4 (Lebedev-302)
Angular grid pruning method      GridPruning ... 4 (adaptive)
Weight generation scheme         WeightScheme... Becke
Basis function cutoff            BFCut       ... 1.0000e-11
Integration weight cutoff        WCut        ... 1.0000e-14
Angular grids for H and He will be reduced by one unit
Partially contracted basis set               ... off
Rotationally invariant grid construction     ... off

Total number of grid points                  ...    70380
Total number of batches                      ...     1109
Average number of points per batch           ...       63
Average number of grid points per atom       ...     4399
Time for grid setup =    0.432 sec

--------------------
COSX GRID GENERATION
--------------------

GRIDX 1
-------
General Integration Accuracy     IntAcc      ... 3.816
Radial Grid Type                 RadialGrid  ... OptM3 with GC (2021)
Angular Grid (max. ang.)         AngularGrid ... 1 (Lebedev-50)
Angular grid pruning method      GridPruning ... 4 (adaptive)
Weight generation scheme         WeightScheme... Becke
Basis function cutoff            BFCut       ... 1.0000e-11
Integration weight cutoff        WCut        ... 1.0000e-14
Angular grids for H and He will be reduced by one unit
Partially contracted basis set               ... on
Rotationally invariant grid construction     ... off

Total number of grid points                  ...     8793
Total number of batches                      ...      148
Average number of points per batch           ...       59
Average number of grid points per atom       ...      550
UseSFitting                                  ... on

GRIDX 2
-------
General Integration Accuracy     IntAcc      ... 4.020
Radial Grid Type                 RadialGrid  ... OptM3 with GC (2021)
Angular Grid (max. ang.)         AngularGrid ... 2 (Lebedev-110)
Angular grid pruning method      GridPruning ... 4 (adaptive)
Weight generation scheme         WeightScheme... Becke
Basis function cutoff            BFCut       ... 1.0000e-11
Integration weight cutoff        WCut        ... 1.0000e-14
Angular grids for H and He will be reduced by one unit
Partially contracted basis set               ... on
Rotationally invariant grid construction     ... off

Total number of grid points                  ...    19306
Total number of batches                      ...      310
Average number of points per batch           ...       62
Average number of grid points per atom       ...     1207
UseSFitting                                  ... on

GRIDX 3
-------
General Integration Accuracy     IntAcc      ... 4.338
Radial Grid Type                 RadialGrid  ... OptM3 with GC (2021)
Angular Grid (max. ang.)         AngularGrid ... 3 (Lebedev-194)
Angular grid pruning method      GridPruning ... 4 (adaptive)
Weight generation scheme         WeightScheme... Becke
Basis function cutoff            BFCut       ... 1.0000e-11
Integration weight cutoff        WCut        ... 1.0000e-14
Angular grids for H and He will be reduced by one unit
Partially contracted basis set               ... on
Rotationally invariant grid construction     ... off

Total number of grid points                  ...    44178
Total number of batches                      ...      699
Average number of points per batch           ...       63
Average number of grid points per atom       ...     2761
UseSFitting                                  ... on

Time for X-Grid setup             =    0.380 sec

--------------
SCF ITERATIONS
--------------
ITER       Energy         Delta-E        Max-DP      RMS-DP      [F,P]     Damp
               ***  Starting incremental Fock matrix formation  ***
  0   -267.3236951212   0.000000000000 0.10104019  0.00272193  0.2341306 0.7000
  1   -267.4349987144  -0.111303593252 0.07481518  0.00218697  0.1340948 0.7000
                               ***Turning on DIIS***
  2   -267.4886315817  -0.053632867324 0.17396020  0.00475033  0.0617834 0.0000
  3   -267.5672881415  -0.078656559776 0.05571478  0.00137728  0.0641817 0.0000
  4   -267.5843213305  -0.017033189034 0.01298654  0.00036632  0.0109357 0.0000
  5   -267.5848263093  -0.000504978774 0.00531887  0.00013984  0.0033889 0.0000
                      *** Initiating the SOSCF procedure ***
                           *** Shutting down DIIS ***
                      *** Re-Reading the Fockian *** 
                      *** Removing any level shift *** 
ITER      Energy       Delta-E        Grad      Rot      Max-DP    RMS-DP
  6   -267.58487369  -0.0000473818  0.000396  0.000396  0.004302  0.000106
               *** Restarting incremental Fock matrix formation ***
  7   -267.58479003   0.0000836643  0.000208  0.000627  0.001185  0.000043
  8   -267.58479067  -0.0000006446  0.000071  0.000187  0.000901  0.000023
  9   -267.58479097  -0.0000003003  0.000013  0.000018  0.000318  0.000012
 10   -267.58479099  -0.0000000200  0.000005  0.000011  0.000075  0.000003
 11   -267.58479099   0.0000000011  0.000003  0.000007  0.000065  0.000001
                  ***Gradient check signals convergence***
              ***Rediagonalizing the Fockian in SOSCF/NRSCF***

               *****************************************************
               *                     SUCCESS                       *
               *           SCF CONVERGED AFTER  12 CYCLES          *
               *****************************************************

Old exchange energy                            =    -10.883900110 Eh
New exchange energy                            =    -10.883883252 Eh
Exchange energy change after final integration =      0.000016859 Eh
Total energy after final integration           =   -267.584774135 Eh
Final COS-X integration done in                =     5.420 sec

----------------
TOTAL SCF ENERGY
----------------

Total Energy       :         -267.58477414 Eh           -7281.35188 eV

Components:
Nuclear Repulsion  :          247.87944580 Eh            6745.14264 eV
Electronic Energy  :         -515.46421993 Eh          -14026.49452 eV
One Electron Energy:         -850.95444251 Eh          -23155.64759 eV
Two Electron Energy:          335.49022258 Eh            9129.15307 eV
Max COSX asymmetry :            0.00000311 Eh               0.00008 eV

Virial components:
Potential Energy   :         -532.67042239 Eh          -14494.69909 eV
Kinetic Energy     :          265.08564826 Eh            7213.34721 eV
Virial Ratio       :            2.00942762


DFT components:
N(Alpha)           :       23.999930964925 electrons
N(Beta)            :       23.999930964925 electrons
N(Total)           :       47.999861929851 electrons
E(XC)              :      -28.347301622630 Eh       
DFET-embed. en.    :        0.000000000000 Eh       

---------------
SCF CONVERGENCE
---------------

  Last Energy change         ...   -3.2338e-09  Tolerance :   1.0000e-08
  Last MAX-Density change    ...    3.1086e-15  Tolerance :   1.0000e-07
  Last RMS-Density change    ...    4.0335e-17  Tolerance :   5.0000e-09
  Last Orbital Gradient      ...    6.5174e-07  Tolerance :   1.0000e-05
  Last Orbital Rotation      ...    1.0116e-06  Tolerance :   1.0000e-05

             **** THE GBW FILE WAS UPDATED (SVPD_CAMB3LYP_C2_wt_dlpno_pos.gbw) ****
             **** DENSITY SVPD_CAMB3LYP_C2_wt_dlpno_pos.scfp WAS UPDATED ****
             **** ENERGY FILE WAS UPDATED (SVPD_CAMB3LYP_C2_wt_dlpno_pos.en.tmp) ****
             **** THE GBW FILE WAS UPDATED (SVPD_CAMB3LYP_C2_wt_dlpno_pos.gbw) ****
             **** DENSITY SVPD_CAMB3LYP_C2_wt_dlpno_pos.scfp WAS UPDATED ****
----------------
ORBITAL ENERGIES
----------------

  NO   OCC          E(Eh)            E(eV) 
   0   2.0000     -14.408388      -392.0722 
   1   2.0000     -14.403431      -391.9373 
   2   2.0000     -10.308253      -280.5018 
   3   2.0000     -10.298925      -280.2480 
   4   2.0000     -10.252543      -278.9859 
   5   2.0000     -10.165763      -276.6245 
   6   2.0000      -1.044259       -28.4157 
   7   2.0000      -0.961258       -26.1572 
   8   2.0000      -0.847615       -23.0648 
   9   2.0000      -0.771063       -20.9817 
  10   2.0000      -0.700273       -19.0554 
  11   2.0000      -0.676212       -18.4007 
  12   2.0000      -0.616791       -16.7837 
  13   2.0000      -0.569117       -15.4865 
  14   2.0000      -0.551402       -15.0044 
  15   2.0000      -0.516061       -14.0427 
  16   2.0000      -0.498699       -13.5703 
  17   2.0000      -0.471116       -12.8197 
  18   2.0000      -0.456553       -12.4234 
  19   2.0000      -0.435250       -11.8437 
  20   2.0000      -0.429645       -11.6912 
  21   2.0000      -0.420093       -11.4313 
  22   2.0000      -0.318894        -8.6776 
  23   2.0000      -0.215019        -5.8510 
  24   0.0000       0.041056         1.1172 
  25   0.0000       0.072467         1.9719 
  26   0.0000       0.076887         2.0922 
  27   0.0000       0.082516         2.2454 
  28   0.0000       0.109517         2.9801 
  29   0.0000       0.117114         3.1868 
  30   0.0000       0.121908         3.3173 
  31   0.0000       0.127303         3.4641 
  32   0.0000       0.140046         3.8109 
  33   0.0000       0.154716         4.2100 
  34   0.0000       0.165231         4.4962 
  35   0.0000       0.174686         4.7534 
  36   0.0000       0.180979         4.9247 
  37   0.0000       0.194457         5.2914 
  38   0.0000       0.203561         5.5392 
  39   0.0000       0.213441         5.8080 
  40   0.0000       0.219263         5.9665 
  41   0.0000       0.229774         6.2525 
  42   0.0000       0.235743         6.4149 
  43   0.0000       0.253289         6.8923 
  44   0.0000       0.265485         7.2242 
  45   0.0000       0.275760         7.5038 
  46   0.0000       0.281813         7.6685 
  47   0.0000       0.293295         7.9810 
  48   0.0000       0.299977         8.1628 
  49   0.0000       0.315817         8.5938 
  50   0.0000       0.322829         8.7846 
  51   0.0000       0.336234         9.1494 
  52   0.0000       0.345743         9.4081 
  53   0.0000       0.348973         9.4960 
  54   0.0000       0.351718         9.5707 
  55   0.0000       0.363420         9.8892 
  56   0.0000       0.373284        10.1576 
  57   0.0000       0.379183        10.3181 
  58   0.0000       0.385087        10.4788 
  59   0.0000       0.391463        10.6523 
  60   0.0000       0.400399        10.8954 
  61   0.0000       0.408600        11.1186 
  62   0.0000       0.413224        11.2444 
  63   0.0000       0.417962        11.3733 
  64   0.0000       0.424860        11.5610 
  65   0.0000       0.435658        11.8548 
  66   0.0000       0.437616        11.9081 
  67   0.0000       0.442547        12.0423 
  68   0.0000       0.452037        12.3006 
  69   0.0000       0.462928        12.5969 
  70   0.0000       0.468097        12.7376 
  71   0.0000       0.476764        12.9734 
  72   0.0000       0.486754        13.2452 
  73   0.0000       0.490329        13.3425 
  74   0.0000       0.502874        13.6839 
  75   0.0000       0.513978        13.9860 
  76   0.0000       0.518643        14.1130 
  77   0.0000       0.523645        14.2491 
  78   0.0000       0.535465        14.5708 
  79   0.0000       0.538530        14.6541 
  80   0.0000       0.546742        14.8776 
  81   0.0000       0.547717        14.9041 
  82   0.0000       0.561383        15.2760 
  83   0.0000       0.568366        15.4660 
  84   0.0000       0.578540        15.7429 
  85   0.0000       0.586683        15.9645 
  86   0.0000       0.595819        16.2131 
  87   0.0000       0.602242        16.3879 
  88   0.0000       0.623769        16.9736 
  89   0.0000       0.635146        17.2832 
  90   0.0000       0.647232        17.6121 
  91   0.0000       0.657461        17.8904 
  92   0.0000       0.666730        18.1426 
  93   0.0000       0.683086        18.5877 
  94   0.0000       0.695428        18.9236 
  95   0.0000       0.695972        18.9384 
  96   0.0000       0.722720        19.6662 
  97   0.0000       0.725706        19.7475 
  98   0.0000       0.754920        20.5424 
  99   0.0000       0.763910        20.7871 
 100   0.0000       0.780635        21.2421 
 101   0.0000       0.782474        21.2922 
 102   0.0000       0.825190        22.4546 
 103   0.0000       0.835326        22.7304 
 104   0.0000       0.841902        22.9093 
 105   0.0000       0.861050        23.4304 
 106   0.0000       0.912592        24.8329 
 107   0.0000       0.955758        26.0075 
 108   0.0000       0.977103        26.5883 
 109   0.0000       0.985191        26.8084 
 110   0.0000       0.998940        27.1826 
 111   0.0000       1.017222        27.6800 
 112   0.0000       1.039340        28.2819 
 113   0.0000       1.055537        28.7226 
 114   0.0000       1.070813        29.1383 
 115   0.0000       1.073299        29.2060 
 116   0.0000       1.098003        29.8782 
 117   0.0000       1.134631        30.8749 
 118   0.0000       1.135191        30.8901 
 119   0.0000       1.158784        31.5321 
 120   0.0000       1.186156        32.2769 
 121   0.0000       1.194974        32.5169 
 122   0.0000       1.213190        33.0126 
 123   0.0000       1.221870        33.2488 
 124   0.0000       1.255555        34.1654 
 125   0.0000       1.269403        34.5422 
 126   0.0000       1.294585        35.2274 
 127   0.0000       1.315538        35.7976 
 128   0.0000       1.332919        36.2706 
 129   0.0000       1.359879        37.0042 
 130   0.0000       1.384088        37.6629 
 131   0.0000       1.450719        39.4761 
 132   0.0000       1.469432        39.9853 
 133   0.0000       1.512397        41.1544 
 134   0.0000       1.622850        44.1600 
 135   0.0000       1.630486        44.3678 
 136   0.0000       1.640683        44.6453 
 137   0.0000       1.642746        44.7014 
 138   0.0000       1.672658        45.5153 
 139   0.0000       1.730763        47.0965 
 140   0.0000       1.738765        47.3142 
 141   0.0000       1.768263        48.1169 
 142   0.0000       1.795556        48.8596 
 143   0.0000       1.830403        49.8078 
 144   0.0000       1.849374        50.3240 
 145   0.0000       1.860708        50.6324 
 146   0.0000       1.877143        51.0797 
 147   0.0000       1.915950        52.1356 
 148   0.0000       1.943582        52.8875 
 149   0.0000       1.965729        53.4902 
 150   0.0000       1.974982        53.7420 
 151   0.0000       1.998005        54.3685 
 152   0.0000       2.020513        54.9810 
 153   0.0000       2.033792        55.3423 
 154   0.0000       2.061046        56.0839 
 155   0.0000       2.073008        56.4094 
 156   0.0000       2.088977        56.8440 
 157   0.0000       2.096720        57.0547 
 158   0.0000       2.124844        57.8200 
 159   0.0000       2.148159        58.4544 
 160   0.0000       2.159675        58.7677 
 161   0.0000       2.181299        59.3562 
 162   0.0000       2.206861        60.0517 
 163   0.0000       2.215726        60.2930 
 164   0.0000       2.228339        60.6362 
 165   0.0000       2.270504        61.7836 
 166   0.0000       2.291693        62.3601 
 167   0.0000       2.300587        62.6022 
 168   0.0000       2.361742        64.2663 
 169   0.0000       2.414999        65.7155 
 170   0.0000       2.449076        66.6427 
 171   0.0000       2.475129        67.3517 
 172   0.0000       2.516253        68.4707 
 173   0.0000       2.524325        68.6904 
 174   0.0000       2.541753        69.1646 
 175   0.0000       2.578356        70.1606 
 176   0.0000       2.626951        71.4830 
 177   0.0000       2.649640        72.1004 
 178   0.0000       2.671113        72.6847 
 179   0.0000       2.685391        73.0732 
 180   0.0000       2.737085        74.4799 
 181   0.0000       2.742532        74.6281 
 182   0.0000       2.792602        75.9906 
 183   0.0000       2.807816        76.4046 
 184   0.0000       2.885426        78.5164 
 185   0.0000       2.907817        79.1257 
 186   0.0000       2.976898        81.0055 
 187   0.0000       3.072916        83.6183 
 188   0.0000       3.112550        84.6968 
 189   0.0000       3.150328        85.7248 
 190   0.0000       3.186718        86.7150 
 191   0.0000       3.239506        88.1514 
 192   0.0000       3.270200        88.9867 
 193   0.0000       3.319824        90.3370 
 194   0.0000       3.332468        90.6811 
 195   0.0000       3.392355        92.3107 
 196   0.0000       3.419381        93.0461 
 197   0.0000       3.503021        95.3221 
 198   0.0000       3.748839       102.0111 
 199   0.0000       3.843250       104.5802 

                    ********************************
                    * MULLIKEN POPULATION ANALYSIS *
                    ********************************

-----------------------
MULLIKEN ATOMIC CHARGES
-----------------------
   0 C :    0.472577
   1 N :   -0.258953
   2 C :    0.857815
   3 C :    0.671493
   4 C :    0.579566
   5 N :    0.215099
   6 H :   -0.210784
   7 H :   -0.133447
   8 H :   -0.319321
   9 H :   -0.489740
  10 H :   -0.466942
  11 H :   -0.226261
  12 H :   -0.331072
  13 H :   -0.161808
  14 H :   -0.060632
  15 H :   -0.137591
Sum of atomic charges:   -0.0000000

--------------------------------
MULLIKEN REDUCED ORBITAL CHARGES
--------------------------------
  0 C s       :     2.697910  s :     2.697910
      pz      :     0.900038  p :     2.568586
      px      :     0.813096
      py      :     0.855451
      dz2     :     0.096415  d :     0.260927
      dxz     :     0.042347
      dyz     :     0.052056
      dx2y2   :     0.003883
      dxy     :     0.066227
  1 N s       :     3.342032  s :     3.342032
      pz      :     1.275974  p :     3.730914
      px      :     1.207333
      py      :     1.247607
      dz2     :     0.035489  d :     0.186007
      dxz     :     0.024936
      dyz     :     0.020308
      dx2y2   :     0.061269
      dxy     :     0.044005
  2 C s       :     2.357345  s :     2.357345
      pz      :     0.971195  p :     2.702291
      px      :     0.868481
      py      :     0.862615
      dz2     :     0.036253  d :     0.082549
      dxz     :    -0.003639
      dyz     :     0.022927
      dx2y2   :    -0.007424
      dxy     :     0.034434
  3 C s       :     2.746654  s :     2.746654
      pz      :     0.849509  p :     2.227045
      px      :     0.567136
      py      :     0.810401
      dz2     :     0.015398  d :     0.354807
      dxz     :     0.131672
      dyz     :     0.058577
      dx2y2   :     0.119303
      dxy     :     0.029857
  4 C s       :     2.858231  s :     2.858231
      pz      :     0.966533  p :     2.533540
      px      :     0.831423
      py      :     0.735584
      dz2     :     0.008836  d :     0.028662
      dxz     :    -0.005947
      dyz     :    -0.007722
      dx2y2   :     0.033016
      dxy     :     0.000479
  5 N s       :     3.182791  s :     3.182791
      pz      :     1.298624  p :     3.609315
      px      :     0.981012
      py      :     1.329678
      dz2     :     0.010363  d :    -0.007205
      dxz     :     0.007320
      dyz     :    -0.017280
      dx2y2   :    -0.010175
      dxy     :     0.002566
  6 H s       :     1.154008  s :     1.154008
      pz      :     0.005717  p :     0.056776
      px      :     0.016189
      py      :     0.034870
  7 H s       :     1.109591  s :     1.109591
      pz      :     0.031750  p :     0.023857
      px      :    -0.034302
      py      :     0.026408
  8 H s       :     1.298262  s :     1.298262
      pz      :     0.011190  p :     0.021059
      px      :     0.011818
      py      :    -0.001949
  9 H s       :     1.434307  s :     1.434307
      pz      :     0.052194  p :     0.055432
      px      :     0.025056
      py      :    -0.021817
 10 H s       :     1.411646  s :     1.411646
      pz      :     0.062543  p :     0.055296
      px      :    -0.016932
      py      :     0.009685
 11 H s       :     1.185312  s :     1.185312
      pz      :     0.041400  p :     0.040949
      px      :    -0.003792
      py      :     0.003342
 12 H s       :     1.300272  s :     1.300272
      pz      :    -0.044961  p :     0.030800
      px      :     0.033131
      py      :     0.042630
 13 H s       :     1.086872  s :     1.086872
      pz      :     0.003603  p :     0.074937
      px      :    -0.003139
      py      :     0.074473
 14 H s       :     1.043113  s :     1.043113
      pz      :    -0.011197  p :     0.017519
      px      :     0.008721
      py      :     0.019995
 15 H s       :     1.090615  s :     1.090615
      pz      :     0.035209  p :     0.046976
      px      :     0.044636
      py      :    -0.032870


                     *******************************
                     * LOEWDIN POPULATION ANALYSIS *
                     *******************************

----------------------
LOEWDIN ATOMIC CHARGES
----------------------
   0 C :    0.013181
   1 N :   -0.011502
   2 C :    0.129467
   3 C :   -0.239060
   4 C :    0.139538
   5 N :    0.195503
   6 H :   -0.013123
   7 H :    0.010813
   8 H :    0.035471
   9 H :   -0.109469
  10 H :   -0.113423
  11 H :    0.006378
  12 H :    0.015925
  13 H :   -0.020789
  14 H :   -0.019374
  15 H :   -0.019539

-------------------------------
LOEWDIN REDUCED ORBITAL CHARGES
-------------------------------
  0 C s       :     2.672499  s :     2.672499
      pz      :     0.906360  p :     2.613025
      px      :     0.839456
      py      :     0.867209
      dz2     :     0.152474  d :     0.701295
      dxz     :     0.173407
      dyz     :     0.084291
      dx2y2   :     0.153073
      dxy     :     0.138050
  1 N s       :     2.903728  s :     2.903728
      pz      :     1.204578  p :     3.510744
      px      :     1.123873
      py      :     1.182293
      dz2     :     0.089961  d :     0.597029
      dxz     :     0.125685
      dyz     :     0.096960
      dx2y2   :     0.150707
      dxy     :     0.133717
  2 C s       :     2.715499  s :     2.715499
      pz      :     0.915698  p :     2.770399
      px      :     0.919806
      py      :     0.934895
      dz2     :     0.125021  d :     0.384634
      dxz     :     0.084914
      dyz     :     0.044037
      dx2y2   :     0.039108
      dxy     :     0.091554
  3 C s       :     2.631084  s :     2.631084
      pz      :     0.779957  p :     2.509576
      px      :     0.914589
      py      :     0.815029
      dz2     :     0.187964  d :     1.098400
      dxz     :     0.259316
      dyz     :     0.168452
      dx2y2   :     0.245095
      dxy     :     0.237573
  4 C s       :     2.731734  s :     2.731734
      pz      :     0.956837  p :     2.810352
      px      :     0.915778
      py      :     0.937738
      dz2     :     0.026209  d :     0.318376
      dxz     :     0.063693
      dyz     :     0.040675
      dx2y2   :     0.101359
      dxy     :     0.086440
  5 N s       :     2.917187  s :     2.917187
      pz      :     1.230893  p :     3.530989
      px      :     1.070488
      py      :     1.229608
      dz2     :     0.069644  d :     0.356320
      dxz     :     0.071590
      dyz     :     0.056896
      dx2y2   :     0.099717
      dxy     :     0.058473
  6 H s       :     0.656084  s :     0.656084
      pz      :     0.099863  p :     0.357038
      px      :     0.136961
      py      :     0.120214
  7 H s       :     0.650390  s :     0.650390
      pz      :     0.121908  p :     0.338798
      px      :     0.080006
      py      :     0.136884
  8 H s       :     0.642352  s :     0.642352
      pz      :     0.117868  p :     0.322176
      px      :     0.120631
      py      :     0.083677
  9 H s       :     0.774396  s :     0.774396
      pz      :     0.131001  p :     0.335073
      px      :     0.103313
      py      :     0.100759
 10 H s       :     0.775538  s :     0.775538
      pz      :     0.136005  p :     0.337885
      px      :     0.074680
      py      :     0.127200
 11 H s       :     0.729601  s :     0.729601
      pz      :     0.107948  p :     0.264021
      px      :     0.072718
      py      :     0.083356
 12 H s       :     0.742614  s :     0.742614
      pz      :     0.063028  p :     0.241461
      px      :     0.067705
      py      :     0.110728
 13 H s       :     0.743523  s :     0.743523
      pz      :     0.071895  p :     0.277265
      px      :     0.078121
      py      :     0.127249
 14 H s       :     0.743683  s :     0.743683
      pz      :     0.069195  p :     0.275691
      px      :     0.105388
      py      :     0.101108
 15 H s       :     0.744200  s :     0.744200
      pz      :     0.106966  p :     0.275339
      px      :     0.092861
      py      :     0.075513


                      *****************************
                      * MAYER POPULATION ANALYSIS *
                      *****************************

  NA   - Mulliken gross atomic population
  ZA   - Total nuclear charge
  QA   - Mulliken gross atomic charge
  VA   - Mayer's total valence
  BVA  - Mayer's bonded valence
  FA   - Mayer's free valence

  ATOM       NA         ZA         QA         VA         BVA        FA
  0 C      5.5274     6.0000     0.4726     4.3386     4.3386    -0.0000
  1 N      7.2590     7.0000    -0.2590     4.0599     4.0599    -0.0000
  2 C      5.1422     6.0000     0.8578     3.6802     3.6802    -0.0000
  3 C      5.3285     6.0000     0.6715     3.1908     3.1908    -0.0000
  4 C      5.4204     6.0000     0.5796     3.3534     3.3534     0.0000
  5 N      6.7849     7.0000     0.2151     3.9207     3.9207    -0.0000
  6 H      1.2108     1.0000    -0.2108     0.9771     0.9771     0.0000
  7 H      1.1334     1.0000    -0.1334     0.8661     0.8661    -0.0000
  8 H      1.3193     1.0000    -0.3193     0.8374     0.8374    -0.0000
  9 H      1.4897     1.0000    -0.4897     0.9582     0.9582     0.0000
 10 H      1.4669     1.0000    -0.4669     0.9377     0.9377    -0.0000
 11 H      1.2263     1.0000    -0.2263     1.0198     1.0198     0.0000
 12 H      1.3311     1.0000    -0.3311     1.0002     1.0002     0.0000
 13 H      1.1618     1.0000    -0.1618     1.1468     1.1468    -0.0000
 14 H      1.0606     1.0000    -0.0606     1.0310     1.0310     0.0000
 15 H      1.1376     1.0000    -0.1376     1.0262     1.0262    -0.0000

  Mayer bond orders larger than 0.100000
B(  0-C ,  1-N ) :   0.9333 B(  0-C ,  2-C ) :   1.2244 B(  0-C ,  8-H ) :  -0.2225 
B(  0-C , 11-H ) :   0.8521 B(  0-C , 12-H ) :   0.8604 B(  0-C , 13-H ) :   0.2275 
B(  0-C , 14-H ) :   0.1988 B(  0-C , 15-H ) :   0.2470 B(  1-N ,  3-C ) :   1.0433 
B(  1-N ,  4-C ) :   0.2262 B(  1-N ,  5-N ) :   0.1750 B(  1-N ,  8-H ) :   1.2855 
B(  1-N , 11-H ) :   0.1731 B(  1-N , 12-H ) :   0.1687 B(  2-C , 13-H ) :   0.7922 
B(  2-C , 14-H ) :   0.7529 B(  2-C , 15-H ) :   0.7584 B(  3-C ,  4-C ) :   1.3864 
B(  3-C ,  5-N ) :   1.0562 B(  3-C ,  6-H ) :  -0.1140 B(  3-C ,  8-H ) :  -0.2426 
B(  3-C , 10-H ) :   0.2063 B(  4-C ,  5-N ) :   0.1982 B(  4-C ,  9-H ) :   0.8364 
B(  4-C , 10-H ) :   0.6927 B(  5-N ,  6-H ) :   1.1963 B(  5-N ,  7-H ) :   1.2078 
B(  6-H ,  7-H ) :  -0.1908 

-------
TIMINGS
-------

Total SCF time: 0 days 0 hours 0 min 34 sec 

Total time                  ....      34.690 sec
Sum of individual times     ....      34.502 sec  ( 99.5%)

Fock matrix formation       ....      33.281 sec  ( 95.9%)
  Split-RI-J                ....       1.256 sec  (  3.8% of F)
  Chain of spheres X        ....      27.772 sec  ( 83.4% of F)
  XC integration            ....       4.208 sec  ( 12.6% of F)
    Basis function eval.    ....       1.313 sec  ( 31.2% of XC)
    Density eval.           ....       0.969 sec  ( 23.0% of XC)
    XC-Functional eval.     ....       0.618 sec  ( 14.7% of XC)
    XC-Potential eval.      ....       1.165 sec  ( 27.7% of XC)
Diagonalization             ....       0.064 sec  (  0.2%)
Density matrix formation    ....       0.005 sec  (  0.0%)
Population analysis         ....       0.008 sec  (  0.0%)
Initial guess               ....       0.157 sec  (  0.5%)
Orbital Transformation      ....       0.000 sec  (  0.0%)
Orbital Orthonormalization  ....       0.000 sec  (  0.0%)
DIIS solution               ....       0.045 sec  (  0.1%)
SOSCF solution              ....       0.039 sec  (  0.1%)
Grid generation             ....       0.904 sec  (  2.6%)

Maximum memory used throughout the entire SCF-calculation: 55.0 MB

-------------------------   --------------------
FINAL SINGLE POINT ENERGY      -267.584774135209
-------------------------   --------------------


                            ***************************************
                            *     ORCA property calculations      *
                            ***************************************

                                    ---------------------
                                    Active property flags
                                    ---------------------
   (+) Dipole Moment


------------------------------------------------------------------------------
                       ORCA ELECTRIC PROPERTIES CALCULATION
------------------------------------------------------------------------------

Dipole Moment Calculation                       ... on
Quadrupole Moment Calculation                   ... off
Polarizability Calculation                      ... off
GBWName                                         ... SVPD_CAMB3LYP_C2_wt_dlpno_pos.gbw
Electron density file                           ... SVPD_CAMB3LYP_C2_wt_dlpno_pos.scfp
The origin for moment calculation is the CENTER OF MASS  = ( 7.695930,  1.393971 -7.028510)

-------------
DIPOLE MOMENT
-------------
                                X             Y             Z
Electronic contribution:      1.49727      -1.09801      -2.04243
Nuclear contribution   :     -2.56090       1.59955       2.15496
                        -----------------------------------------
Total Dipole Moment    :     -1.06363       0.50154       0.11253
                        -----------------------------------------
Magnitude (a.u.)       :      1.18132
Magnitude (Debye)      :      3.00268



--------------------
Rotational spectrum 
--------------------
 
Rotational constants in cm-1:     0.249834     0.071381     0.061833 
Rotational constants in MHz :  7489.842787  2139.945635  1853.706310 

 Dipole components along the rotational axes: 
x,y,z [a.u.] :    -0.998037     0.623976     0.100462 
x,y,z [Debye]:    -2.536808     1.586020     0.255353 

 

Timings for individual modules:

Sum of individual times         ...       35.273 sec (=   0.588 min)
GTO integral calculation        ...        0.375 sec (=   0.006 min)   1.1 %
SCF iterations                  ...       34.898 sec (=   0.582 min)  98.9 %
                             ****ORCA TERMINATED NORMALLY****
TOTAL RUN TIME: 0 days 0 hours 0 minutes 35 seconds 616 msec
