
                                        *****************
                                        * O   R   C   A *
                                        *****************

                                            #,                                       
                                            ###                                      
                                            ####                                     
                                            #####                                    
                                            ######                                   
                                           ########,                                 
                                     ,,################,,,,,                         
                               ,,#################################,,                 
                          ,,##########################################,,             
                       ,#########################################, ''#####,          
                    ,#############################################,,   '####,        
                  ,##################################################,,,,####,       
                ,###########''''           ''''###############################       
              ,#####''   ,,,,##########,,,,          '''####'''          '####       
            ,##' ,,,,###########################,,,                        '##       
           ' ,,###''''                  '''############,,,                           
         ,,##''                                '''############,,,,        ,,,,,,###''
      ,#''                                            '''#######################'''  
     '                                                          ''''####''''         
             ,#######,   #######,   ,#######,      ##                                
            ,#'     '#,  ##    ##  ,#'     '#,    #''#        ######   ,####,        
            ##       ##  ##   ,#'  ##            #'  '#       #        #'  '#        
            ##       ##  #######   ##           ,######,      #####,   #    #        
            '#,     ,#'  ##    ##  '#,     ,#' ,#      #,         ##   #,  ,#        
             '#######'   ##     ##  '#######'  #'      '#     #####' # '####'        



                  #######################################################
                  #                        -***-                        #
                  #          Department of theory and spectroscopy      #
                  #    Directorship and core code : Frank Neese         #
                  #        Max Planck Institute fuer Kohlenforschung    #
                  #                Kaiser Wilhelm Platz 1               #
                  #                 D-45470 Muelheim/Ruhr               #
                  #                      Germany                        #
                  #                                                     #
                  #                  All rights reserved                #
                  #                        -***-                        #
                  #######################################################


                         Program Version 5.0.0 -  RELEASE  -
                                (SVN: $Rev: 19529$)
                ($Date: 2021-06-28 11:36:33 +0200 (Mo, 28 Jun 2021) $)


 With contributions from (in alphabetic order):
   Daniel Aravena         : Magnetic Suceptibility
   Michael Atanasov       : Ab Initio Ligand Field Theory (pilot matlab implementation)
   Alexander A. Auer      : GIAO ZORA, VPT2 properties, NMR spectrum
   Ute Becker             : Parallelization
   Giovanni Bistoni       : ED, misc. LED, open-shell LED, HFLD
   Martin Brehm           : Molecular dynamics
   Dmytro Bykov           : SCF Hessian
   Vijay G. Chilkuri      : MRCI spin determinant printing, contributions to CSF-ICE
   Dipayan Datta          : RHF DLPNO-CCSD density
   Achintya Kumar Dutta   : EOM-CC, STEOM-CC
   Dmitry Ganyushin       : Spin-Orbit,Spin-Spin,Magnetic field MRCI
   Miquel Garcia          : C-PCM Hessian, Gaussian charge scheme
   Yang Guo               : DLPNO-NEVPT2, F12-NEVPT2, CIM, IAO-localization
   Andreas Hansen         : Spin unrestricted coupled pair/coupled cluster methods
   Benjamin Helmich-Paris : MC-RPA, TRAH-SCF, COSX integrals
   Lee Huntington         : MR-EOM, pCC
   Robert Izsak           : Overlap fitted RIJCOSX, COSX-SCS-MP3, EOM
   Marcus Kettner         : VPT2
   Christian Kollmar      : KDIIS, OOCD, Brueckner-CCSD(T), CCSD density, CASPT2, CASPT2-K
   Simone Kossmann        : Meta GGA functionals, TD-DFT gradient, OOMP2, MP2 Hessian
   Martin Krupicka        : Initial AUTO-CI
   Lucas Lang             : DCDCAS
   Marvin Lechner         : AUTO-CI (C++ implementation), FIC-MRCC
   Dagmar Lenk            : GEPOL surface, SMD
   Dimitrios Liakos       : Extrapolation schemes; Compound Job, initial MDCI parallelization
   Dimitrios Manganas     : Further ROCIS development; embedding schemes
   Dimitrios Pantazis     : SARC Basis sets
   Anastasios Papadopoulos: AUTO-CI, single reference methods and gradients
   Taras Petrenko         : DFT Hessian,TD-DFT gradient, ASA, ECA, R-Raman, ABS, FL, XAS/XES, NRVS
   Peter Pinski           : DLPNO-MP2, DLPNO-MP2 Gradient
   Christoph Reimann      : Effective Core Potentials
   Marius Retegan         : Local ZFS, SOC
   Christoph Riplinger    : Optimizer, TS searches, QM/MM, DLPNO-CCSD(T), (RO)-DLPNO pert. Triples
   Tobias Risthaus        : Range-separated hybrids, TD-DFT gradient, RPA, STAB
   Michael Roemelt        : Original ROCIS implementation
   Masaaki Saitow         : Open-shell DLPNO-CCSD energy and density
   Barbara Sandhoefer     : DKH picture change effects
   Avijit Sen             : IP-ROCIS
   Kantharuban Sivalingam : CASSCF convergence, NEVPT2, FIC-MRCI
   Bernardo de Souza      : ESD, SOC TD-DFT
   Georgi Stoychev        : AutoAux, RI-MP2 NMR
   Willem Van den Heuvel  : Paramagnetic NMR
   Boris Wezisla          : Elementary symmetry handling
   Frank Wennmohs         : Technical directorship


 We gratefully acknowledge several colleagues who have allowed us to
 interface, adapt or use parts of their codes:
   Stefan Grimme, W. Hujo, H. Kruse, P. Pracht,  : VdW corrections, initial TS optimization,
                  C. Bannwarth, S. Ehlert          DFT functionals, gCP, sTDA/sTD-DF
   Ed Valeev, F. Pavosevic, A. Kumar             : LibInt (2-el integral package), F12 methods
   Garnet Chan, S. Sharma, J. Yang, R. Olivares  : DMRG
   Ulf Ekstrom                                   : XCFun DFT Library
   Mihaly Kallay                                 : mrcc  (arbitrary order and MRCC methods)
   Jiri Pittner, Ondrej Demel                    : Mk-CCSD
   Frank Weinhold                                : gennbo (NPA and NBO analysis)
   Christopher J. Cramer and Donald G. Truhlar   : smd solvation model
   Lars Goerigk                                  : TD-DFT with DH, B97 family of functionals
   V. Asgeirsson, H. Jonsson                     : NEB implementation
   FAccTs GmbH                                   : IRC, NEB, NEB-TS, DLPNO-Multilevel, CI-OPT
                                                   MM, QMMM, 2- and 3-layer-ONIOM, Crystal-QMMM,
                                                   LR-CPCM, SF, NACMEs, symmetry and pop. for TD-DFT,
                                                   nearIR, NL-DFT gradient (VV10), updates on ESD,
                                                   ML-optimized integration grids
   S Lehtola, MJT Oliveira, MAL Marques          : LibXC Library
   Liviu Ungur et al                             : ANISO software


 Your calculation uses the libint2 library for the computation of 2-el integrals
 For citations please refer to: http://libint.valeyev.net

 Your ORCA version has been built with support for libXC version: 5.1.0
 For citations please refer to: https://tddft.org/programs/libxc/

 This ORCA versions uses:
   CBLAS   interface :  Fast vector & matrix operations
   LAPACKE interface :  Fast linear algebra routines
   SCALAPACK package :  Parallel linear algebra routines
   Shared memory     :  Shared parallel matrices
   BLAS/LAPACK       :  OpenBLAS 0.3.15  USE64BITINT DYNAMIC_ARCH NO_AFFINITY Haswell SINGLE_THREADED
        Core in use  :  Haswell
   Copyright (c) 2011-2014, The OpenBLAS Project


Your calculation utilizes the atom-pairwise dispersion correction
with the Becke-Johnson damping scheme (D3BJ)
Cite in your paper:
S.Grimme, S.Ehrlich, L.Goerigk, J Comput Chem, (2011), 32, 1456–1465 
S.Grimme, J.Antony, S.Ehrlich and H.Krieg, J.Chem.Phys., 132, (2010), 154104 
   

================================================================================

----- Orbital basis set information -----
Your calculation utilizes the basis: def2-SVPD
   F. Weigend and R. Ahlrichs, Phys. Chem. Chem. Phys. 7, 3297 (2005).
   D. Rappoport and F. Furche, J. Chem. Phys. 133 134105 (2010).

----- AuxJ basis set information -----
Your calculation utilizes the auxiliary basis: def2/J
   F. Weigend, Phys. Chem. Chem. Phys. 8, 1057 (2006).

================================================================================
                                        WARNINGS
                       Please study these warnings very carefully!
================================================================================


INFO   : the flag for use of the SHARK integral package has been found!

================================================================================
                                       INPUT FILE
================================================================================
NAME = SVPD_PBE0_A_wt_dlpno_pos.com
|  1> !PBE0 D3BJ RIJCOSX def2-SVPD def2/J TightSCF
|  2> *xyz 1 1 
|  3> C          1.63556       -1.67040       -5.29211
|  4> C          0.33848       -1.50091       -4.50540
|  5> N          2.48451       -0.50741       -5.14039
|  6> H          1.39834       -1.82924       -6.35259
|  7> H          2.15586       -2.56540       -4.93209
|  8> C          3.45115       -0.14953       -5.95259
|  9> N          3.92267        1.08956       -5.85071
| 10> N          3.96616       -1.00618       -6.86788
| 11> H          3.52139       -1.90647       -6.99527
| 12> H          4.44482       -0.62347       -7.67035
| 13> H          2.25200        0.24080       -4.49879
| 14> H          3.46428        1.64078       -5.13639
| 15> H          4.83447        1.31375       -6.22465
| 16> H         -0.17658       -0.62881       -4.85045
| 17> H          0.56384       -1.39374       -3.46490
| 18> H         -0.28102       -2.36136       -4.64938
| 19> *
| 20> 
| 21> %MaxCore 64000
| 22> 
| 23> %pal nprocs 4
| 24> end  
| 25> 
| 26> %scf
| 27>   MaxIter 150
| 28> end
| 29> 
| 30> 
| 31>                          ****END OF INPUT****
================================================================================

                       ****************************
                       * Single Point Calculation *
                       ****************************

---------------------------------
CARTESIAN COORDINATES (ANGSTROEM)
---------------------------------
  C      1.635560   -1.670400   -5.292110
  C      0.338480   -1.500910   -4.505400
  N      2.484510   -0.507410   -5.140390
  H      1.398340   -1.829240   -6.352590
  H      2.155860   -2.565400   -4.932090
  C      3.451150   -0.149530   -5.952590
  N      3.922670    1.089560   -5.850710
  N      3.966160   -1.006180   -6.867880
  H      3.521390   -1.906470   -6.995270
  H      4.444820   -0.623470   -7.670350
  H      2.252000    0.240800   -4.498790
  H      3.464280    1.640780   -5.136390
  H      4.834470    1.313750   -6.224650
  H     -0.176580   -0.628810   -4.850450
  H      0.563840   -1.393740   -3.464900
  H     -0.281020   -2.361360   -4.649380

----------------------------
CARTESIAN COORDINATES (A.U.)
----------------------------
  NO LB      ZA    FRAG     MASS         X           Y           Z
   0 C     6.0000    0    12.011    3.090760   -3.156599  -10.000639
   1 C     6.0000    0    12.011    0.639635   -2.836309   -8.513972
   2 N     7.0000    0    14.007    4.695043   -0.958866   -9.713929
   3 H     1.0000    0     1.008    2.642480   -3.456763  -12.004655
   4 H     1.0000    0     1.008    4.073985   -4.847903   -9.320299
   5 C     6.0000    0    12.011    6.521728   -0.282571  -11.248765
   6 N     7.0000    0    14.007    7.412772    2.058970  -11.056240
   7 N     7.0000    0    14.007    7.494956   -1.901405  -12.978412
   8 H     1.0000    0     1.008    6.654463   -3.602706  -13.219145
   9 H     1.0000    0     1.008    8.399493   -1.178188  -14.494861
  10 H     1.0000    0     1.008    4.255663    0.455046   -8.501481
  11 H     1.0000    0     1.008    6.546540    3.100625   -9.706370
  12 H     1.0000    0     1.008    9.135824    2.482628  -11.762884
  13 H     1.0000    0     1.008   -0.333688   -1.188279   -9.166022
  14 H     1.0000    0     1.008    1.065503   -2.633787   -6.547712
  15 H     1.0000    0     1.008   -0.531051   -4.462324   -8.786055

--------------------------------
INTERNAL COORDINATES (ANGSTROEM)
--------------------------------
 C      0   0   0     0.000000000000     0.00000000     0.00000000
 C      1   0   0     1.526452099019     0.00000000     0.00000000
 N      1   2   0     1.447853860374   110.79630082     0.00000000
 H      1   2   3     1.098235541403   109.27983290   238.48612086
 H      1   2   3     1.096061809571   108.95036832   121.23137438
 C      3   1   2     1.312303251539   125.88108164   201.13093006
 N      6   3   1     1.329682169881   117.89912014   164.56341170
 N      6   3   1     1.355300817789   121.70242568   344.31618449
 H      8   6   3     1.012210773061   118.69888469     7.01850578
 H      8   6   3     1.009722952398   118.50845680   158.08561097
 H      3   1   2     1.012684385285   121.68431269     6.65893231
 H      7   6   3     1.012036532394   113.64189798   359.66429587
 H      7   6   3     1.010678742084   119.88613512   160.18204289
 H      2   1   3     1.070002203783   109.47108166    58.76861412
 H      2   1   3     1.070005975918   109.47079003   298.76901239
 H      2   1   3     1.069992847126   109.47129286   178.76902232

---------------------------
INTERNAL COORDINATES (A.U.)
---------------------------
 C      0   0   0     0.000000000000     0.00000000     0.00000000
 C      1   0   0     2.884576423695     0.00000000     0.00000000
 N      1   2   0     2.736047278048   110.79630082     0.00000000
 H      1   2   3     2.075364403790   109.27983290   238.48612086
 H      1   2   3     2.071256645939   108.95036832   121.23137438
 C      3   1   2     2.479893750063   125.88108164   201.13093006
 N      6   3   1     2.512735146234   117.89912014   164.56341170
 N      6   3   1     2.561147374701   121.70242568   344.31618449
 H      8   6   3     1.912801150889   118.69888469     7.01850578
 H      8   6   3     1.908099851167   118.50845680   158.08561097
 H      3   1   2     1.913696148287   121.68431269     6.65893231
 H      7   6   3     1.912471883748   113.64189798   359.66429587
 H      7   6   3     1.909906031914   119.88613512   160.18204289
 H      2   1   3     2.022011127842   109.47108166    58.76861412
 H      2   1   3     2.022018256144   109.47079003   298.76901239
 H      2   1   3     2.021993446322   109.47129286   178.76902232

---------------------
BASIS SET INFORMATION
---------------------
There are 3 groups of distinct atoms

 Group   1 Type C   : 8s4p2d contracted to 4s2p2d pattern {5111/31/11}
 Group   2 Type N   : 8s4p2d contracted to 4s2p2d pattern {5111/31/11}
 Group   3 Type H   : 4s2p contracted to 2s2p pattern {31/11}

Atom   0C    basis set group =>   1
Atom   1C    basis set group =>   1
Atom   2N    basis set group =>   2
Atom   3H    basis set group =>   3
Atom   4H    basis set group =>   3
Atom   5C    basis set group =>   1
Atom   6N    basis set group =>   2
Atom   7N    basis set group =>   2
Atom   8H    basis set group =>   3
Atom   9H    basis set group =>   3
Atom  10H    basis set group =>   3
Atom  11H    basis set group =>   3
Atom  12H    basis set group =>   3
Atom  13H    basis set group =>   3
Atom  14H    basis set group =>   3
Atom  15H    basis set group =>   3
---------------------------------
AUXILIARY/J BASIS SET INFORMATION
---------------------------------
There are 3 groups of distinct atoms

 Group   1 Type C   : 12s5p4d2f1g contracted to 6s4p3d1f1g pattern {711111/2111/211/2/1}
 Group   2 Type N   : 12s5p4d2f1g contracted to 6s4p3d1f1g pattern {711111/2111/211/2/1}
 Group   3 Type H   : 5s2p1d contracted to 3s1p1d pattern {311/2/1}

Atom   0C    basis set group =>   1
Atom   1C    basis set group =>   1
Atom   2N    basis set group =>   2
Atom   3H    basis set group =>   3
Atom   4H    basis set group =>   3
Atom   5C    basis set group =>   1
Atom   6N    basis set group =>   2
Atom   7N    basis set group =>   2
Atom   8H    basis set group =>   3
Atom   9H    basis set group =>   3
Atom  10H    basis set group =>   3
Atom  11H    basis set group =>   3
Atom  12H    basis set group =>   3
Atom  13H    basis set group =>   3
Atom  14H    basis set group =>   3
Atom  15H    basis set group =>   3


           ************************************************************
           *        Program running with 4 parallel MPI-processes     *
           *              working on a common directory               *
           ************************************************************
------------------------------------------------------------------------------
                           ORCA GTO INTEGRAL CALCULATION
                           -- RI-GTO INTEGRALS CHOSEN --
------------------------------------------------------------------------------
------------------------------------------------------------------------------
                   ___                                                        
                  /   \      - P O W E R E D   B Y -                         
                 /     \                                                     
                 |  |  |   _    _      __       _____    __    __             
                 |  |  |  | |  | |    /  \     |  _  \  |  |  /  |          
                  \  \/   | |  | |   /    \    | | | |  |  | /  /          
                 / \  \   | |__| |  /  /\  \   | |_| |  |  |/  /          
                |  |  |   |  __  | /  /__\  \  |    /   |      \           
                |  |  |   | |  | | |   __   |  |    \   |  |\   \          
                \     /   | |  | | |  |  |  |  | |\  \  |  | \   \       
                 \___/    |_|  |_| |__|  |__|  |_| \__\ |__|  \__/        
                                                                              
                      - O R C A' S   B I G   F R I E N D -                    
                                      &                                       
                       - I N T E G R A L  F E E D E R -                       
                                                                              
 v1 FN, 2020, v2 2021                                                         
------------------------------------------------------------------------------


Reading SHARK input file SVPD_PBE0_A_wt_dlpno_pos.SHARKINP.tmp ... ok
----------------------
SHARK INTEGRAL PACKAGE
----------------------

Number of atoms                             ...     16
Number of basis functions                   ...    200
Number of shells                            ...     88
Maximum angular momentum                    ...      2
Integral batch strategy                     ... SHARK/LIBINT Hybrid
RI-J (if used) integral strategy            ... SPLIT-RIJ (Revised 2003 algorithm where possible)
Printlevel                                  ...      1
Contraction scheme used                     ... SEGMENTED contraction
Coulomb Range Separation                    ... NOT USED
Exchange Range Separation                   ... NOT USED
Finite Nucleus Model                        ... NOT USED
Auxiliary Coulomb fitting basis             ... AVAILABLE
   # of basis functions in Aux-J            ...    404
   # of shells in Aux-J                     ...    140
   Maximum angular momentum in Aux-J        ...      4
Auxiliary J/K fitting basis                 ... NOT available
Auxiliary Correlation fitting basis         ... NOT available
Auxiliary 'external' fitting basis          ... NOT available
Integral threshold                          ...     2.500000e-11
Primitive cut-off                           ...     2.500000e-12
Primitive pair pre-selection threshold      ...     2.500000e-12

Calculating pre-screening integrals         ... done (  0.0 sec) Dimension = 88
Organizing shell pair data                  ... done (  0.0 sec)
Shell pair information
Total number of shell pairs                 ...      3916
Shell pairs after pre-screening             ...      3808
Total number of primitive shell pairs       ...     10548
Primitive shell pairs kept                  ...      8512
          la=0 lb=0:    960 shell pairs
          la=1 lb=0:   1366 shell pairs
          la=1 lb=1:    511 shell pairs
          la=2 lb=0:    518 shell pairs
          la=2 lb=1:    376 shell pairs
          la=2 lb=2:     77 shell pairs

Calculating one electron integrals          ... done (  0.0 sec)
Calculating RI/J V-Matrix + Cholesky decomp.... done (  0.0 sec)
Calculating Nuclear repulsion               ... done (  0.0 sec) ENN=    256.632033677137 Eh

SHARK setup successfully completed in   0.2 seconds

Maximum memory used throughout the entire GTOINT-calculation: 8.9 MB


           ************************************************************
           *        Program running with 4 parallel MPI-processes     *
           *              working on a common directory               *
           ************************************************************
-------------------------------------------------------------------------------
                                 ORCA SCF
-------------------------------------------------------------------------------

------------
SCF SETTINGS
------------
Hamiltonian:
 Density Functional     Method          .... DFT(GTOs)
 Exchange Functional    Exchange        .... PBE
   PBE kappa parameter   XKappa         ....  0.804000
   PBE mue parameter    XMuePBE         ....  0.219520
 Correlation Functional Correlation     .... PBE
   PBE beta parameter  CBetaPBE         ....  0.066725
 LDA part of GGA corr.  LDAOpt          .... PW91-LDA
 Gradients option       PostSCFGGA      .... off
 Hybrid DFT is turned on
   Fraction HF Exchange ScalHFX         ....  0.250000
   Scaling of DF-GGA-X  ScalDFX         ....  0.750000
   Scaling of DF-GGA-C  ScalDFC         ....  1.000000
   Scaling of DF-LDA-C  ScalLDAC        ....  1.000000
   Perturbative correction              ....  0.000000
   Density functional embedding theory  .... OFF
   NL short-range parameter             ....  6.900000
 RI-approximation to the Coulomb term is turned on
   Number of AuxJ basis functions       .... 404
   RIJ-COSX (HFX calculated with COS-X)).... on


General Settings:
 Integral files         IntName         .... SVPD_PBE0_A_wt_dlpno_pos
 Hartree-Fock type      HFTyp           .... RHF
 Total Charge           Charge          ....    1
 Multiplicity           Mult            ....    1
 Number of Electrons    NEL             ....   48
 Basis Dimension        Dim             ....  200
 Nuclear Repulsion      ENuc            ....    256.6320336771 Eh

Convergence Acceleration:
 DIIS                   CNVDIIS         .... on
   Start iteration      DIISMaxIt       ....    12
   Startup error        DIISStart       ....  0.200000
   # of expansion vecs  DIISMaxEq       ....     5
   Bias factor          DIISBfac        ....   1.050
   Max. coefficient     DIISMaxC        ....  10.000
 Trust-Rad. Augm. Hess. CNVTRAH         .... auto
   Auto Start mean grad. ratio tolernc. ....  1.125000
   Auto Start start iteration           ....    20
   Auto Start num. interpolation iter.  ....    10
   Max. Number of Micro iterations      ....    16
   Max. Number of Macro iterations      .... Maxiter - #DIIS iter
   Number of Davidson start vectors     ....     2
   Converg. threshold I  (grad. norm)   ....   1.000e-05
   Converg. threshold II (energy diff.) ....   1.000e-08
   Grad. Scal. Fac. for Micro threshold ....   0.100
   Minimum threshold for Micro iter.    ....   0.010
   NR start threshold (gradient norm)   ....   0.001
   Initial trust radius                 ....   0.400
   Minimum AH scaling param. (alpha)    ....   1.000
   Maximum AH scaling param. (alpha)    .... 1000.000
   Orbital update algorithm             .... Taylor
   White noise on init. David. guess    .... on
   Maximum white noise                  ....   0.010
   Quad. conv. algorithm                .... NR
 SOSCF                  CNVSOSCF        .... on
   Start iteration      SOSCFMaxIt      ....   150
   Startup grad/error   SOSCFStart      ....  0.003300
 Level Shifting         CNVShift        .... on
   Level shift para.    LevelShift      ....    0.2500
   Turn off err/grad.   ShiftErr        ....    0.0010
 Zerner damping         CNVZerner       .... off
 Static damping         CNVDamp         .... on
   Fraction old density DampFac         ....    0.7000
   Max. Damping (<1)    DampMax         ....    0.9800
   Min. Damping (>=0)   DampMin         ....    0.0000
   Turn off err/grad.   DampErr         ....    0.1000
 Fernandez-Rico         CNVRico         .... off

SCF Procedure:
 Maximum # iterations   MaxIter         ....   150
 SCF integral mode      SCFMode         .... Direct
   Integral package                     .... SHARK and LIBINT hybrid scheme
 Reset frequency        DirectResetFreq ....    20
 Integral Threshold     Thresh          ....  2.500e-11 Eh
 Primitive CutOff       TCut            ....  2.500e-12 Eh

Convergence Tolerance:
 Convergence Check Mode ConvCheckMode   .... Total+1el-Energy
 Convergence forced     ConvForced      .... 0
 Energy Change          TolE            ....  1.000e-08 Eh
 1-El. energy change                    ....  1.000e-05 Eh
 Orbital Gradient       TolG            ....  1.000e-05
 Orbital Rotation angle TolX            ....  1.000e-05
 DIIS Error             TolErr          ....  5.000e-07


Diagonalization of the overlap matrix:
Smallest eigenvalue                        ... 7.259e-05
Time for diagonalization                   ...    0.011 sec
Threshold for overlap eigenvalues          ... 1.000e-08
Number of eigenvalues below threshold      ... 0
Time for construction of square roots      ...    0.007 sec
Total time needed                          ...    0.020 sec

Time for model grid setup =    0.099 sec

------------------------------
INITIAL GUESS: MODEL POTENTIAL
------------------------------
Loading Hartree-Fock densities                     ... done
Calculating cut-offs                               ... done
Initializing the effective Hamiltonian             ... done
Setting up the integral package (SHARK)            ... done
Starting the Coulomb interaction                   ... done (   0.1 sec)
Reading the grid                                   ... done
Mapping shells                                     ... done
Starting the XC term evaluation                    ... done (   0.1 sec)
  promolecular density results
     # of electrons  =     48.994476652
     EX              =    -38.011207359
     EC              =     -1.618869234
     EX+EC           =    -39.630076593
Transforming the Hamiltonian                       ... done (   0.0 sec)
Diagonalizing the Hamiltonian                      ... done (   0.0 sec)
Back transforming the eigenvectors                 ... done (   0.0 sec)
Now organizing SCF variables                       ... done
                      ------------------
                      INITIAL GUESS DONE (   0.3 sec)
                      ------------------
-------------------
DFT GRID GENERATION
-------------------

General Integration Accuracy     IntAcc      ... 4.388
Radial Grid Type                 RadialGrid  ... OptM3 with GC (2021)
Angular Grid (max. ang.)         AngularGrid ... 4 (Lebedev-302)
Angular grid pruning method      GridPruning ... 4 (adaptive)
Weight generation scheme         WeightScheme... Becke
Basis function cutoff            BFCut       ... 1.0000e-11
Integration weight cutoff        WCut        ... 1.0000e-14
Angular grids for H and He will be reduced by one unit
Partially contracted basis set               ... off
Rotationally invariant grid construction     ... off

Total number of grid points                  ...    70417
Total number of batches                      ...     1108
Average number of points per batch           ...       63
Average number of grid points per atom       ...     4401
Time for grid setup =    0.447 sec

--------------------
COSX GRID GENERATION
--------------------

GRIDX 1
-------
General Integration Accuracy     IntAcc      ... 3.816
Radial Grid Type                 RadialGrid  ... OptM3 with GC (2021)
Angular Grid (max. ang.)         AngularGrid ... 1 (Lebedev-50)
Angular grid pruning method      GridPruning ... 4 (adaptive)
Weight generation scheme         WeightScheme... Becke
Basis function cutoff            BFCut       ... 1.0000e-11
Integration weight cutoff        WCut        ... 1.0000e-14
Angular grids for H and He will be reduced by one unit
Partially contracted basis set               ... on
Rotationally invariant grid construction     ... off

Total number of grid points                  ...     8804
Total number of batches                      ...      149
Average number of points per batch           ...       59
Average number of grid points per atom       ...      550
UseSFitting                                  ... on

GRIDX 2
-------
General Integration Accuracy     IntAcc      ... 4.020
Radial Grid Type                 RadialGrid  ... OptM3 with GC (2021)
Angular Grid (max. ang.)         AngularGrid ... 2 (Lebedev-110)
Angular grid pruning method      GridPruning ... 4 (adaptive)
Weight generation scheme         WeightScheme... Becke
Basis function cutoff            BFCut       ... 1.0000e-11
Integration weight cutoff        WCut        ... 1.0000e-14
Angular grids for H and He will be reduced by one unit
Partially contracted basis set               ... on
Rotationally invariant grid construction     ... off

Total number of grid points                  ...    19360
Total number of batches                      ...      310
Average number of points per batch           ...       62
Average number of grid points per atom       ...     1210
UseSFitting                                  ... on

GRIDX 3
-------
General Integration Accuracy     IntAcc      ... 4.338
Radial Grid Type                 RadialGrid  ... OptM3 with GC (2021)
Angular Grid (max. ang.)         AngularGrid ... 3 (Lebedev-194)
Angular grid pruning method      GridPruning ... 4 (adaptive)
Weight generation scheme         WeightScheme... Becke
Basis function cutoff            BFCut       ... 1.0000e-11
Integration weight cutoff        WCut        ... 1.0000e-14
Angular grids for H and He will be reduced by one unit
Partially contracted basis set               ... on
Rotationally invariant grid construction     ... off

Total number of grid points                  ...    44257
Total number of batches                      ...      701
Average number of points per batch           ...       63
Average number of grid points per atom       ...     2766
UseSFitting                                  ... on

Time for X-Grid setup             =    0.431 sec

--------------
SCF ITERATIONS
--------------
ITER       Energy         Delta-E        Max-DP      RMS-DP      [F,P]     Damp
               ***  Starting incremental Fock matrix formation  ***
  0   -283.7050725542   0.000000000000 0.14531681  0.00266555  0.1841837 0.7000
  1   -283.7855862272  -0.080513673069 0.09409719  0.00167799  0.0927543 0.7000
                               ***Turning on DIIS***
  2   -283.8187463827  -0.033160155493 0.18652464  0.00302305  0.0353195 0.0000
  3   -283.8674511734  -0.048704790660 0.05175671  0.00099021  0.0462383 0.0000
  4   -283.8796021440  -0.012150970587 0.00940525  0.00021248  0.0097112 0.0000
                      *** Initiating the SOSCF procedure ***
                           *** Shutting down DIIS ***
                      *** Re-Reading the Fockian *** 
                      *** Removing any level shift *** 
ITER      Energy       Delta-E        Grad      Rot      Max-DP    RMS-DP
  5   -283.88003333  -0.0004311867  0.001136  0.001136  0.006152  0.000099
               *** Restarting incremental Fock matrix formation ***
  6   -283.88007497  -0.0000416436  0.000285  0.000508  0.002811  0.000062
  7   -283.88007675  -0.0000017717  0.000207  0.000205  0.000893  0.000017
  8   -283.88007907  -0.0000023254  0.000038  0.000106  0.000327  0.000006
  9   -283.88007906   0.0000000124  0.000049  0.000059  0.000107  0.000002
 10   -283.88007910  -0.0000000438  0.000003  0.000007  0.000017  0.000001
 11   -283.88007910   0.0000000032  0.000003  0.000004  0.000020  0.000000
                  ***Gradient check signals convergence***
              ***Rediagonalizing the Fockian in SOSCF/NRSCF***

               *****************************************************
               *                     SUCCESS                       *
               *           SCF CONVERGED AFTER  12 CYCLES          *
               *****************************************************

Old exchange energy                            =     -9.673447255 Eh
New exchange energy                            =     -9.673460030 Eh
Exchange energy change after final integration =     -0.000012775 Eh
Total energy after final integration           =   -283.880091870 Eh
Final COS-X integration done in                =     2.859 sec

----------------
TOTAL SCF ENERGY
----------------

Total Energy       :         -283.88009187 Eh           -7724.77002 eV

Components:
Nuclear Repulsion  :          256.63203368 Eh            6983.31266 eV
Electronic Energy  :         -540.51212555 Eh          -14708.08268 eV
One Electron Energy:         -881.47028165 Eh          -23986.02579 eV
Two Electron Energy:          340.95815610 Eh            9277.94311 eV
Max COSX asymmetry :            0.00000883 Eh               0.00024 eV

Virial components:
Potential Energy   :         -564.81704327 Eh          -15369.45312 eV
Kinetic Energy     :          280.93695140 Eh            7644.68310 eV
Virial Ratio       :            2.01047616


DFT components:
N(Alpha)           :       24.000047824651 electrons
N(Beta)            :       24.000047824651 electrons
N(Total)           :       48.000095649301 electrons
E(X)               :      -28.920513723833 Eh       
E(C)               :       -1.600795356657 Eh       
E(XC)              :      -30.521309080489 Eh       
DFET-embed. en.    :        0.000000000000 Eh       

---------------
SCF CONVERGENCE
---------------

  Last Energy change         ...    5.0767e-09  Tolerance :   1.0000e-08
  Last MAX-Density change    ...    4.4409e-15  Tolerance :   1.0000e-07
  Last RMS-Density change    ...    5.1793e-17  Tolerance :   5.0000e-09
  Last Orbital Gradient      ...    7.0193e-07  Tolerance :   1.0000e-05
  Last Orbital Rotation      ...    1.1532e-06  Tolerance :   1.0000e-05

             **** THE GBW FILE WAS UPDATED (SVPD_PBE0_A_wt_dlpno_pos.gbw) ****
             **** DENSITY SVPD_PBE0_A_wt_dlpno_pos.scfp WAS UPDATED ****
             **** ENERGY FILE WAS UPDATED (SVPD_PBE0_A_wt_dlpno_pos.en.tmp) ****
             **** THE GBW FILE WAS UPDATED (SVPD_PBE0_A_wt_dlpno_pos.gbw) ****
             **** DENSITY SVPD_PBE0_A_wt_dlpno_pos.scfp WAS UPDATED ****
----------------
ORBITAL ENERGIES
----------------

  NO   OCC          E(Eh)            E(eV) 
   0   2.0000     -14.626060      -397.9953 
   1   2.0000     -14.620271      -397.8378 
   2   2.0000     -14.618449      -397.7882 
   3   2.0000     -10.566008      -287.5157 
   4   2.0000     -10.443993      -284.1955 
   5   2.0000     -10.372832      -282.2591 
   6   2.0000      -1.240687       -33.7608 
   7   2.0000      -1.125750       -30.6332 
   8   2.0000      -1.111346       -30.2413 
   9   2.0000      -0.954639       -25.9771 
  10   2.0000      -0.848625       -23.0922 
  11   2.0000      -0.831598       -22.6289 
  12   2.0000      -0.795210       -21.6388 
  13   2.0000      -0.762724       -20.7548 
  14   2.0000      -0.707361       -19.2483 
  15   2.0000      -0.701261       -19.0823 
  16   2.0000      -0.678652       -18.4671 
  17   2.0000      -0.658737       -17.9251 
  18   2.0000      -0.617850       -16.8126 
  19   2.0000      -0.561813       -15.2877 
  20   2.0000      -0.544790       -14.8245 
  21   2.0000      -0.534515       -14.5449 
  22   2.0000      -0.492424       -13.3995 
  23   2.0000      -0.467254       -12.7146 
  24   0.0000      -0.167489        -4.5576 
  25   0.0000      -0.147579        -4.0158 
  26   0.0000      -0.117088        -3.1861 
  27   0.0000      -0.100381        -2.7315 
  28   0.0000      -0.083482        -2.2716 
  29   0.0000      -0.073388        -1.9970 
  30   0.0000      -0.055981        -1.5233 
  31   0.0000      -0.049466        -1.3460 
  32   0.0000      -0.032608        -0.8873 
  33   0.0000      -0.020119        -0.5475 
  34   0.0000      -0.014363        -0.3908 
  35   0.0000      -0.008181        -0.2226 
  36   0.0000      -0.000343        -0.0093 
  37   0.0000       0.009727         0.2647 
  38   0.0000       0.014616         0.3977 
  39   0.0000       0.028007         0.7621 
  40   0.0000       0.031630         0.8607 
  41   0.0000       0.042894         1.1672 
  42   0.0000       0.052336         1.4241 
  43   0.0000       0.065762         1.7895 
  44   0.0000       0.078744         2.1427 
  45   0.0000       0.084230         2.2920 
  46   0.0000       0.089691         2.4406 
  47   0.0000       0.094367         2.5679 
  48   0.0000       0.103150         2.8068 
  49   0.0000       0.123618         3.3638 
  50   0.0000       0.125565         3.4168 
  51   0.0000       0.139079         3.7845 
  52   0.0000       0.152595         4.1523 
  53   0.0000       0.159721         4.3462 
  54   0.0000       0.164237         4.4691 
  55   0.0000       0.179180         4.8757 
  56   0.0000       0.180716         4.9175 
  57   0.0000       0.185006         5.0343 
  58   0.0000       0.202396         5.5075 
  59   0.0000       0.210407         5.7255 
  60   0.0000       0.220359         5.9963 
  61   0.0000       0.229134         6.2351 
  62   0.0000       0.235498         6.4082 
  63   0.0000       0.248261         6.7555 
  64   0.0000       0.251351         6.8396 
  65   0.0000       0.252435         6.8691 
  66   0.0000       0.256575         6.9818 
  67   0.0000       0.259812         7.0698 
  68   0.0000       0.274428         7.4676 
  69   0.0000       0.282514         7.6876 
  70   0.0000       0.289156         7.8683 
  71   0.0000       0.294779         8.0213 
  72   0.0000       0.296530         8.0690 
  73   0.0000       0.318303         8.6615 
  74   0.0000       0.321518         8.7490 
  75   0.0000       0.324098         8.8192 
  76   0.0000       0.344482         9.3738 
  77   0.0000       0.346909         9.4399 
  78   0.0000       0.351200         9.5566 
  79   0.0000       0.358375         9.7519 
  80   0.0000       0.364275         9.9124 
  81   0.0000       0.379062        10.3148 
  82   0.0000       0.385989        10.5033 
  83   0.0000       0.393098        10.6967 
  84   0.0000       0.404944        11.0191 
  85   0.0000       0.405463        11.0332 
  86   0.0000       0.413566        11.2537 
  87   0.0000       0.428701        11.6656 
  88   0.0000       0.440029        11.9738 
  89   0.0000       0.443079        12.0568 
  90   0.0000       0.460426        12.5288 
  91   0.0000       0.463537        12.6135 
  92   0.0000       0.479021        13.0348 
  93   0.0000       0.488084        13.2814 
  94   0.0000       0.497611        13.5407 
  95   0.0000       0.512953        13.9582 
  96   0.0000       0.526640        14.3306 
  97   0.0000       0.547020        14.8852 
  98   0.0000       0.575001        15.6466 
  99   0.0000       0.586769        15.9668 
 100   0.0000       0.592584        16.1250 
 101   0.0000       0.601322        16.3628 
 102   0.0000       0.603281        16.4161 
 103   0.0000       0.615930        16.7603 
 104   0.0000       0.634825        17.2745 
 105   0.0000       0.674568        18.3559 
 106   0.0000       0.677413        18.4333 
 107   0.0000       0.753148        20.4942 
 108   0.0000       0.769950        20.9514 
 109   0.0000       0.799684        21.7605 
 110   0.0000       0.819056        22.2877 
 111   0.0000       0.831781        22.6339 
 112   0.0000       0.854422        23.2500 
 113   0.0000       0.880310        23.9545 
 114   0.0000       0.886636        24.1266 
 115   0.0000       0.902496        24.5582 
 116   0.0000       0.911237        24.7960 
 117   0.0000       0.919186        25.0123 
 118   0.0000       0.944780        25.7088 
 119   0.0000       0.964979        26.2584 
 120   0.0000       0.995416        27.0866 
 121   0.0000       1.008716        27.4486 
 122   0.0000       1.035827        28.1863 
 123   0.0000       1.053006        28.6537 
 124   0.0000       1.067938        29.0601 
 125   0.0000       1.090168        29.6650 
 126   0.0000       1.108921        30.1753 
 127   0.0000       1.152774        31.3686 
 128   0.0000       1.186745        32.2930 
 129   0.0000       1.226441        33.3732 
 130   0.0000       1.259717        34.2786 
 131   0.0000       1.307269        35.5726 
 132   0.0000       1.357361        36.9357 
 133   0.0000       1.369928        37.2776 
 134   0.0000       1.400466        38.1086 
 135   0.0000       1.435832        39.0710 
 136   0.0000       1.446709        39.3669 
 137   0.0000       1.473373        40.0925 
 138   0.0000       1.484876        40.4055 
 139   0.0000       1.516942        41.2781 
 140   0.0000       1.542337        41.9691 
 141   0.0000       1.552987        42.2589 
 142   0.0000       1.560346        42.4592 
 143   0.0000       1.593299        43.3559 
 144   0.0000       1.624779        44.2125 
 145   0.0000       1.645440        44.7747 
 146   0.0000       1.653450        44.9927 
 147   0.0000       1.698418        46.2163 
 148   0.0000       1.710611        46.5481 
 149   0.0000       1.729809        47.0705 
 150   0.0000       1.754345        47.7381 
 151   0.0000       1.780821        48.4586 
 152   0.0000       1.796386        48.8822 
 153   0.0000       1.849758        50.3345 
 154   0.0000       1.855015        50.4775 
 155   0.0000       1.863539        50.7095 
 156   0.0000       1.883510        51.2529 
 157   0.0000       1.886513        51.3346 
 158   0.0000       1.911448        52.0131 
 159   0.0000       1.927503        52.4500 
 160   0.0000       1.939817        52.7851 
 161   0.0000       1.948976        53.0343 
 162   0.0000       1.971316        53.6422 
 163   0.0000       1.983237        53.9666 
 164   0.0000       1.995868        54.3103 
 165   0.0000       2.051776        55.8317 
 166   0.0000       2.073757        56.4298 
 167   0.0000       2.113535        57.5122 
 168   0.0000       2.130703        57.9794 
 169   0.0000       2.178530        59.2808 
 170   0.0000       2.184831        59.4523 
 171   0.0000       2.220954        60.4352 
 172   0.0000       2.270526        61.7842 
 173   0.0000       2.284242        62.1574 
 174   0.0000       2.313807        62.9619 
 175   0.0000       2.356382        64.1204 
 176   0.0000       2.385693        64.9180 
 177   0.0000       2.414244        65.6949 
 178   0.0000       2.441426        66.4346 
 179   0.0000       2.473236        67.3002 
 180   0.0000       2.513532        68.3967 
 181   0.0000       2.539640        69.1071 
 182   0.0000       2.594003        70.5864 
 183   0.0000       2.641325        71.8741 
 184   0.0000       2.695661        73.3527 
 185   0.0000       2.712798        73.8190 
 186   0.0000       2.742630        74.6308 
 187   0.0000       2.881063        78.3977 
 188   0.0000       2.927308        79.6561 
 189   0.0000       2.945065        80.1393 
 190   0.0000       2.974700        80.9457 
 191   0.0000       3.026654        82.3594 
 192   0.0000       3.062970        83.3476 
 193   0.0000       3.091292        84.1183 
 194   0.0000       3.129092        85.1469 
 195   0.0000       3.171997        86.3144 
 196   0.0000       3.245547        88.3158 
 197   0.0000       3.291675        89.5710 
 198   0.0000       3.483421        94.7887 
 199   0.0000       3.548654        96.5638 

                    ********************************
                    * MULLIKEN POPULATION ANALYSIS *
                    ********************************

-----------------------
MULLIKEN ATOMIC CHARGES
-----------------------
   0 C :   -0.000983
   1 C :    0.627333
   2 N :   -0.579015
   3 H :   -0.019732
   4 H :   -0.035374
   5 C :    1.508235
   6 N :   -0.138549
   7 N :   -0.195364
   8 H :    0.004178
   9 H :   -0.052876
  10 H :   -0.126184
  11 H :    0.051406
  12 H :   -0.074808
  13 H :    0.018652
  14 H :    0.030827
  15 H :   -0.017746
Sum of atomic charges:    1.0000000

--------------------------------
MULLIKEN REDUCED ORBITAL CHARGES
--------------------------------
  0 C s       :     2.875744  s :     2.875744
      pz      :     0.984999  p :     2.785607
      px      :     0.965757
      py      :     0.834851
      dz2     :     0.107750  d :     0.339632
      dxz     :     0.062074
      dyz     :    -0.008135
      dx2y2   :     0.029832
      dxy     :     0.148110
  1 C s       :     2.372352  s :     2.372352
      pz      :     0.977487  p :     2.846403
      px      :     0.922320
      py      :     0.946596
      dz2     :     0.049333  d :     0.153912
      dxz     :     0.032162
      dyz     :     0.004528
      dx2y2   :     0.003365
      dxy     :     0.064524
  2 N s       :     3.641553  s :     3.641553
      pz      :     1.269031  p :     3.758209
      px      :     1.261795
      py      :     1.227383
      dz2     :     0.038235  d :     0.179253
      dxz     :     0.033022
      dyz     :     0.002829
      dx2y2   :     0.077436
      dxy     :     0.027731
  3 H s       :     0.981767  s :     0.981767
      pz      :     0.065989  p :     0.037965
      px      :    -0.033750
      py      :     0.005726
  4 H s       :     0.992129  s :     0.992129
      pz      :    -0.031625  p :     0.043245
      px      :     0.025437
      py      :     0.049433
  5 C s       :     2.820037  s :     2.820037
      pz      :     0.662362  p :     1.972003
      px      :     0.699451
      py      :     0.610191
      dz2     :    -0.002691  d :    -0.300275
      dxz     :    -0.061651
      dyz     :    -0.063917
      dx2y2   :    -0.111411
      dxy     :    -0.060605
  6 N s       :     3.426077  s :     3.426077
      pz      :     1.405167  p :     3.708991
      px      :     1.209894
      py      :     1.093930
      dz2     :     0.004884  d :     0.003481
      dxz     :    -0.002016
      dyz     :     0.000670
      dx2y2   :    -0.001968
      dxy     :     0.001910
  7 N s       :     3.484700  s :     3.484700
      pz      :     1.193368  p :     3.719262
      px      :     1.424364
      py      :     1.101530
      dz2     :     0.003751  d :    -0.008598
      dxz     :    -0.007032
      dyz     :    -0.004629
      dx2y2   :    -0.000334
      dxy     :    -0.000355
  8 H s       :     0.972674  s :     0.972674
      pz      :     0.019415  p :     0.023148
      px      :    -0.001477
      py      :     0.005210
  9 H s       :     1.006583  s :     1.006583
      pz      :     0.032364  p :     0.046294
      px      :     0.031529
      py      :    -0.017599
 10 H s       :     1.097936  s :     1.097936
      pz      :     0.021188  p :     0.028248
      px      :    -0.002634
      py      :     0.009695
 11 H s       :     0.924182  s :     0.924182
      pz      :     0.010775  p :     0.024412
      px      :    -0.004650
      py      :     0.018287
 12 H s       :     1.019496  s :     1.019496
      pz      :     0.026820  p :     0.055312
      px      :     0.021808
      py      :     0.006684
 13 H s       :     0.935068  s :     0.935068
      pz      :     0.008293  p :     0.046279
      px      :     0.001369
      py      :     0.036618
 14 H s       :     0.937773  s :     0.937773
      pz      :     0.045408  p :     0.031400
      px      :     0.009829
      py      :    -0.023837
 15 H s       :     0.971754  s :     0.971754
      pz      :    -0.006186  p :     0.045991
      px      :    -0.000465
      py      :     0.052643


                     *******************************
                     * LOEWDIN POPULATION ANALYSIS *
                     *******************************

----------------------
LOEWDIN ATOMIC CHARGES
----------------------
   0 C :    0.021738
   1 C :    0.156573
   2 N :    0.031106
   3 H :    0.040394
   4 H :    0.045013
   5 C :   -0.027770
   6 N :    0.259403
   7 N :    0.277817
   8 H :    0.016666
   9 H :    0.036883
  10 H :    0.055160
  11 H :    0.034421
  12 H :    0.045681
  13 H :   -0.000881
  14 H :    0.000326
  15 H :    0.007469

-------------------------------
LOEWDIN REDUCED ORBITAL CHARGES
-------------------------------
  0 C s       :     2.673465  s :     2.673465
      pz      :     0.922318  p :     2.610943
      px      :     0.866371
      py      :     0.822255
      dz2     :     0.154866  d :     0.693853
      dxz     :     0.120043
      dyz     :     0.081859
      dx2y2   :     0.143205
      dxy     :     0.193881
  1 C s       :     2.706132  s :     2.706132
      pz      :     0.930010  p :     2.765927
      px      :     0.887533
      py      :     0.948384
      dz2     :     0.113381  d :     0.371368
      dxz     :     0.073764
      dyz     :     0.023608
      dx2y2   :     0.048392
      dxy     :     0.112223
  2 N s       :     2.913261  s :     2.913261
      pz      :     1.176129  p :     3.456003
      px      :     1.159187
      py      :     1.120688
      dz2     :     0.084266  d :     0.599630
      dxz     :     0.105455
      dyz     :     0.121144
      dx2y2   :     0.157073
      dxy     :     0.131691
  3 H s       :     0.716896  s :     0.716896
      pz      :     0.121241  p :     0.242710
      px      :     0.067831
      py      :     0.053638
  4 H s       :     0.723339  s :     0.723339
      pz      :     0.070993  p :     0.231647
      px      :     0.069761
      py      :     0.090893
  5 C s       :     2.609165  s :     2.609165
      pz      :     0.777221  p :     2.395704
      px      :     0.776785
      py      :     0.841698
      dz2     :     0.203612  d :     1.022901
      dxz     :     0.155643
      dyz     :     0.227773
      dx2y2   :     0.214957
      dxy     :     0.220916
  6 N s       :     2.935581  s :     2.935581
      pz      :     1.250535  p :     3.508836
      px      :     1.158272
      py      :     1.100029
      dz2     :     0.029495  d :     0.296179
      dxz     :     0.029134
      dyz     :     0.074548
      dx2y2   :     0.082513
      dxy     :     0.080490
  7 N s       :     2.943826  s :     2.943826
      pz      :     1.142966  p :     3.501477
      px      :     1.260736
      py      :     1.097774
      dz2     :     0.062090  d :     0.276881
      dxz     :     0.052581
      dyz     :     0.064654
      dx2y2   :     0.049545
      dxy     :     0.048012
  8 H s       :     0.632660  s :     0.632660
      pz      :     0.084092  p :     0.350675
      px      :     0.129121
      py      :     0.137462
  9 H s       :     0.641861  s :     0.641861
      pz      :     0.129046  p :     0.321256
      px      :     0.110051
      py      :     0.082159
 10 H s       :     0.624836  s :     0.624836
      pz      :     0.109156  p :     0.320004
      px      :     0.087691
      py      :     0.123158
 11 H s       :     0.634755  s :     0.634755
      pz      :     0.133499  p :     0.330824
      px      :     0.098147
      py      :     0.099179
 12 H s       :     0.637885  s :     0.637885
      pz      :     0.100931  p :     0.316434
      px      :     0.143697
      py      :     0.071806
 13 H s       :     0.733134  s :     0.733134
      pz      :     0.076614  p :     0.267746
      px      :     0.077069
      py      :     0.114064
 14 H s       :     0.731798  s :     0.731798
      pz      :     0.125663  p :     0.267876
      px      :     0.068170
      py      :     0.074043
 15 H s       :     0.726139  s :     0.726139
      pz      :     0.070541  p :     0.266392
      px      :     0.082875
      py      :     0.112975


                      *****************************
                      * MAYER POPULATION ANALYSIS *
                      *****************************

  NA   - Mulliken gross atomic population
  ZA   - Total nuclear charge
  QA   - Mulliken gross atomic charge
  VA   - Mayer's total valence
  BVA  - Mayer's bonded valence
  FA   - Mayer's free valence

  ATOM       NA         ZA         QA         VA         BVA        FA
  0 C      6.0010     6.0000    -0.0010     4.5624     4.5624    -0.0000
  1 C      5.3727     6.0000     0.6273     3.8223     3.8223     0.0000
  2 N      7.5790     7.0000    -0.5790     4.0523     4.0523    -0.0000
  3 H      1.0197     1.0000    -0.0197     1.1198     1.1198    -0.0000
  4 H      1.0354     1.0000    -0.0354     1.1278     1.1278    -0.0000
  5 C      4.4918     6.0000     1.5082     1.9874     1.9874     0.0000
  6 N      7.1385     7.0000    -0.1385     3.6250     3.6250    -0.0000
  7 N      7.1954     7.0000    -0.1954     3.4985     3.4985    -0.0000
  8 H      0.9958     1.0000     0.0042     0.8832     0.8832     0.0000
  9 H      1.0529     1.0000    -0.0529     0.9744     0.9744    -0.0000
 10 H      1.1262     1.0000    -0.1262     0.8515     0.8515    -0.0000
 11 H      0.9486     1.0000     0.0514     0.8742     0.8742    -0.0000
 12 H      1.0748     1.0000    -0.0748     1.0061     1.0061    -0.0000
 13 H      0.9813     1.0000     0.0187     1.0921     1.0921    -0.0000
 14 H      0.9692     1.0000     0.0308     1.0345     1.0345     0.0000
 15 H      1.0177     1.0000    -0.0177     1.0944     1.0944     0.0000

  Mayer bond orders larger than 0.100000
B(  0-C ,  1-C ) :   1.3215 B(  0-C ,  2-N ) :   0.8753 B(  0-C ,  3-H ) :   0.8885 
B(  0-C ,  4-H ) :   0.9150 B(  0-C , 10-H ) :  -0.1097 B(  0-C , 13-H ) :   0.1828 
B(  0-C , 14-H ) :   0.2035 B(  0-C , 15-H ) :   0.2542 B(  1-C , 13-H ) :   0.8199 
B(  1-C , 14-H ) :   0.7650 B(  1-C , 15-H ) :   0.7775 B(  2-N ,  3-H ) :   0.1605 
B(  2-N ,  4-H ) :   0.1655 B(  2-N ,  5-C ) :   0.9883 B(  2-N ,  6-N ) :   0.2885 
B(  2-N ,  7-N ) :   0.2057 B(  2-N , 10-H ) :   1.2244 B(  5-C ,  6-N ) :   0.8552 
B(  5-C ,  7-N ) :   0.8345 B(  5-C ,  8-H ) :  -0.1050 B(  5-C ,  9-H ) :  -0.1312 
B(  5-C , 10-H ) :  -0.2292 B(  5-C , 12-H ) :  -0.1217 B(  6-N ,  7-N ) :   0.1672 
B(  6-N , 11-H ) :   1.0503 B(  6-N , 12-H ) :   1.2318 B(  7-N ,  8-H ) :   1.0359 
B(  7-N ,  9-H ) :   1.2238 B(  8-H ,  9-H ) :  -0.1448 B( 11-H , 12-H ) :  -0.1357 


-------
TIMINGS
-------

Total SCF time: 0 days 0 hours 0 min 22 sec 

Total time                  ....      22.331 sec
Sum of individual times     ....      22.132 sec  ( 99.1%)

Fock matrix formation       ....      20.824 sec  ( 93.3%)
  Split-RI-J                ....       1.428 sec  (  6.9% of F)
  Chain of spheres X        ....      15.299 sec  ( 73.5% of F)
  XC integration            ....       4.053 sec  ( 19.5% of F)
    Basis function eval.    ....       1.372 sec  ( 33.9% of XC)
    Density eval.           ....       1.019 sec  ( 25.1% of XC)
    XC-Functional eval.     ....       0.220 sec  (  5.4% of XC)
    XC-Potential eval.      ....       1.281 sec  ( 31.6% of XC)
Diagonalization             ....       0.059 sec  (  0.3%)
Density matrix formation    ....       0.006 sec  (  0.0%)
Population analysis         ....       0.009 sec  (  0.0%)
Initial guess               ....       0.175 sec  (  0.8%)
Orbital Transformation      ....       0.000 sec  (  0.0%)
Orbital Orthonormalization  ....       0.000 sec  (  0.0%)
DIIS solution               ....       0.033 sec  (  0.1%)
SOSCF solution              ....       0.048 sec  (  0.2%)
Grid generation             ....       0.978 sec  (  4.4%)

Maximum memory used throughout the entire SCF-calculation: 54.9 MB


-------------------------------------------------------------------------------
                          DFT DISPERSION CORRECTION                            
                                                                               
                              DFTD3 V3.1  Rev 1                                
                          USING Becke-Johnson damping                          
-------------------------------------------------------------------------------
The PBE0 functional is recognized
Active option DFTDOPT                   ...         4   

molecular C6(AA) [au] = 1840.972241 


            DFT-D V3
 parameters
 s6 scaling factor         :     1.0000 
 a1 scaling factor         :     0.4145 
 s8 scaling factor         :     1.2177 
 a2 scaling factor         :     4.8593 
 ad hoc parameters k1-k3   :    16.0000     1.3333    -4.0000 

 Edisp/kcal,au: -6.345099036660  -0.010111557868 
 E6   /kcal   :  -4.178943537 
 E8   /kcal   :  -2.166155499 
 % E8         :  34.139033717 

-------------------------   ----------------
Dispersion correction           -0.010111558
-------------------------   ----------------


-------------------------   --------------------
FINAL SINGLE POINT ENERGY      -283.890203427561
-------------------------   --------------------


                            ***************************************
                            *     ORCA property calculations      *
                            ***************************************

                                    ---------------------
                                    Active property flags
                                    ---------------------
   (+) Dipole Moment


------------------------------------------------------------------------------
                       ORCA ELECTRIC PROPERTIES CALCULATION
------------------------------------------------------------------------------

Dipole Moment Calculation                       ... on
Quadrupole Moment Calculation                   ... off
Polarizability Calculation                      ... off
GBWName                                         ... SVPD_PBE0_A_wt_dlpno_pos.gbw
Electron density file                           ... SVPD_PBE0_A_wt_dlpno_pos.scfp
The origin for moment calculation is the CENTER OF MASS  = ( 4.991930, -1.157929 -10.603647)

-------------
DIPOLE MOMENT
-------------
                                X             Y             Z
Electronic contribution:      4.70691       2.47921      -1.70413
Nuclear contribution   :     -3.96322      -1.85512       1.24891
                        -----------------------------------------
Total Dipole Moment    :      0.74369       0.62410      -0.45522
                        -----------------------------------------
Magnitude (a.u.)       :      1.07229
Magnitude (Debye)      :      2.72554



--------------------
Rotational spectrum 
--------------------
 
Rotational constants in cm-1:     0.261404     0.067000     0.054949 
Rotational constants in MHz :  7836.702504  2008.609425  1647.329138 

 Dipole components along the rotational axes: 
x,y,z [a.u.] :    -1.054502    -0.121255     0.152062 
x,y,z [Debye]:    -2.680332    -0.308206     0.386510 

 

Timings for individual modules:

Sum of individual times         ...       26.770 sec (=   0.446 min)
GTO integral calculation        ...        2.483 sec (=   0.041 min)   9.3 %
SCF iterations                  ...       24.287 sec (=   0.405 min)  90.7 %
                             ****ORCA TERMINATED NORMALLY****
TOTAL RUN TIME: 0 days 0 hours 0 minutes 27 seconds 321 msec
