
                                        *****************
                                        * O   R   C   A *
                                        *****************

                                            #,                                       
                                            ###                                      
                                            ####                                     
                                            #####                                    
                                            ######                                   
                                           ########,                                 
                                     ,,################,,,,,                         
                               ,,#################################,,                 
                          ,,##########################################,,             
                       ,#########################################, ''#####,          
                    ,#############################################,,   '####,        
                  ,##################################################,,,,####,       
                ,###########''''           ''''###############################       
              ,#####''   ,,,,##########,,,,          '''####'''          '####       
            ,##' ,,,,###########################,,,                        '##       
           ' ,,###''''                  '''############,,,                           
         ,,##''                                '''############,,,,        ,,,,,,###''
      ,#''                                            '''#######################'''  
     '                                                          ''''####''''         
             ,#######,   #######,   ,#######,      ##                                
            ,#'     '#,  ##    ##  ,#'     '#,    #''#        ######   ,####,        
            ##       ##  ##   ,#'  ##            #'  '#       #        #'  '#        
            ##       ##  #######   ##           ,######,      #####,   #    #        
            '#,     ,#'  ##    ##  '#,     ,#' ,#      #,         ##   #,  ,#        
             '#######'   ##     ##  '#######'  #'      '#     #####' # '####'        



                  #######################################################
                  #                        -***-                        #
                  #          Department of theory and spectroscopy      #
                  #    Directorship and core code : Frank Neese         #
                  #        Max Planck Institute fuer Kohlenforschung    #
                  #                Kaiser Wilhelm Platz 1               #
                  #                 D-45470 Muelheim/Ruhr               #
                  #                      Germany                        #
                  #                                                     #
                  #                  All rights reserved                #
                  #                        -***-                        #
                  #######################################################


                         Program Version 5.0.0 -  RELEASE  -
                                (SVN: $Rev: 19529$)
                ($Date: 2021-06-28 11:36:33 +0200 (Mo, 28 Jun 2021) $)


 With contributions from (in alphabetic order):
   Daniel Aravena         : Magnetic Suceptibility
   Michael Atanasov       : Ab Initio Ligand Field Theory (pilot matlab implementation)
   Alexander A. Auer      : GIAO ZORA, VPT2 properties, NMR spectrum
   Ute Becker             : Parallelization
   Giovanni Bistoni       : ED, misc. LED, open-shell LED, HFLD
   Martin Brehm           : Molecular dynamics
   Dmytro Bykov           : SCF Hessian
   Vijay G. Chilkuri      : MRCI spin determinant printing, contributions to CSF-ICE
   Dipayan Datta          : RHF DLPNO-CCSD density
   Achintya Kumar Dutta   : EOM-CC, STEOM-CC
   Dmitry Ganyushin       : Spin-Orbit,Spin-Spin,Magnetic field MRCI
   Miquel Garcia          : C-PCM Hessian, Gaussian charge scheme
   Yang Guo               : DLPNO-NEVPT2, F12-NEVPT2, CIM, IAO-localization
   Andreas Hansen         : Spin unrestricted coupled pair/coupled cluster methods
   Benjamin Helmich-Paris : MC-RPA, TRAH-SCF, COSX integrals
   Lee Huntington         : MR-EOM, pCC
   Robert Izsak           : Overlap fitted RIJCOSX, COSX-SCS-MP3, EOM
   Marcus Kettner         : VPT2
   Christian Kollmar      : KDIIS, OOCD, Brueckner-CCSD(T), CCSD density, CASPT2, CASPT2-K
   Simone Kossmann        : Meta GGA functionals, TD-DFT gradient, OOMP2, MP2 Hessian
   Martin Krupicka        : Initial AUTO-CI
   Lucas Lang             : DCDCAS
   Marvin Lechner         : AUTO-CI (C++ implementation), FIC-MRCC
   Dagmar Lenk            : GEPOL surface, SMD
   Dimitrios Liakos       : Extrapolation schemes; Compound Job, initial MDCI parallelization
   Dimitrios Manganas     : Further ROCIS development; embedding schemes
   Dimitrios Pantazis     : SARC Basis sets
   Anastasios Papadopoulos: AUTO-CI, single reference methods and gradients
   Taras Petrenko         : DFT Hessian,TD-DFT gradient, ASA, ECA, R-Raman, ABS, FL, XAS/XES, NRVS
   Peter Pinski           : DLPNO-MP2, DLPNO-MP2 Gradient
   Christoph Reimann      : Effective Core Potentials
   Marius Retegan         : Local ZFS, SOC
   Christoph Riplinger    : Optimizer, TS searches, QM/MM, DLPNO-CCSD(T), (RO)-DLPNO pert. Triples
   Tobias Risthaus        : Range-separated hybrids, TD-DFT gradient, RPA, STAB
   Michael Roemelt        : Original ROCIS implementation
   Masaaki Saitow         : Open-shell DLPNO-CCSD energy and density
   Barbara Sandhoefer     : DKH picture change effects
   Avijit Sen             : IP-ROCIS
   Kantharuban Sivalingam : CASSCF convergence, NEVPT2, FIC-MRCI
   Bernardo de Souza      : ESD, SOC TD-DFT
   Georgi Stoychev        : AutoAux, RI-MP2 NMR
   Willem Van den Heuvel  : Paramagnetic NMR
   Boris Wezisla          : Elementary symmetry handling
   Frank Wennmohs         : Technical directorship


 We gratefully acknowledge several colleagues who have allowed us to
 interface, adapt or use parts of their codes:
   Stefan Grimme, W. Hujo, H. Kruse, P. Pracht,  : VdW corrections, initial TS optimization,
                  C. Bannwarth, S. Ehlert          DFT functionals, gCP, sTDA/sTD-DF
   Ed Valeev, F. Pavosevic, A. Kumar             : LibInt (2-el integral package), F12 methods
   Garnet Chan, S. Sharma, J. Yang, R. Olivares  : DMRG
   Ulf Ekstrom                                   : XCFun DFT Library
   Mihaly Kallay                                 : mrcc  (arbitrary order and MRCC methods)
   Jiri Pittner, Ondrej Demel                    : Mk-CCSD
   Frank Weinhold                                : gennbo (NPA and NBO analysis)
   Christopher J. Cramer and Donald G. Truhlar   : smd solvation model
   Lars Goerigk                                  : TD-DFT with DH, B97 family of functionals
   V. Asgeirsson, H. Jonsson                     : NEB implementation
   FAccTs GmbH                                   : IRC, NEB, NEB-TS, DLPNO-Multilevel, CI-OPT
                                                   MM, QMMM, 2- and 3-layer-ONIOM, Crystal-QMMM,
                                                   LR-CPCM, SF, NACMEs, symmetry and pop. for TD-DFT,
                                                   nearIR, NL-DFT gradient (VV10), updates on ESD,
                                                   ML-optimized integration grids
   S Lehtola, MJT Oliveira, MAL Marques          : LibXC Library
   Liviu Ungur et al                             : ANISO software


 Your calculation uses the libint2 library for the computation of 2-el integrals
 For citations please refer to: http://libint.valeyev.net

 Your ORCA version has been built with support for libXC version: 5.1.0
 For citations please refer to: https://tddft.org/programs/libxc/

 This ORCA versions uses:
   CBLAS   interface :  Fast vector & matrix operations
   LAPACKE interface :  Fast linear algebra routines
   SCALAPACK package :  Parallel linear algebra routines
   Shared memory     :  Shared parallel matrices
   BLAS/LAPACK       :  OpenBLAS 0.3.15  USE64BITINT DYNAMIC_ARCH NO_AFFINITY Haswell SINGLE_THREADED
        Core in use  :  Haswell
   Copyright (c) 2011-2014, The OpenBLAS Project


Your calculation utilizes the atom-pairwise dispersion correction
with the Becke-Johnson damping scheme (D3BJ)
Cite in your paper:
S.Grimme, S.Ehrlich, L.Goerigk, J Comput Chem, (2011), 32, 1456–1465 
S.Grimme, J.Antony, S.Ehrlich and H.Krieg, J.Chem.Phys., 132, (2010), 154104 
   

================================================================================

----- Orbital basis set information -----
Your calculation utilizes the basis: def2-SVPD
   F. Weigend and R. Ahlrichs, Phys. Chem. Chem. Phys. 7, 3297 (2005).
   D. Rappoport and F. Furche, J. Chem. Phys. 133 134105 (2010).

----- AuxJ basis set information -----
Your calculation utilizes the auxiliary basis: def2/J
   F. Weigend, Phys. Chem. Chem. Phys. 8, 1057 (2006).

================================================================================
                                        WARNINGS
                       Please study these warnings very carefully!
================================================================================


INFO   : the flag for use of the SHARK integral package has been found!

================================================================================
                                       INPUT FILE
================================================================================
NAME = SVPD_PBE0_C2_wt_dlpno_pos.com
|  1> !PBE0 D3BJ RIJCOSX def2-SVPD def2/J TightSCF
|  2> *xyz 0 1 
|  3> C          1.63556       -1.67040       -5.29211
|  4> C          0.33848       -1.50091       -4.50540
|  5> N          2.48451       -0.50741       -5.14039
|  6> H          1.39834       -1.82924       -6.35259
|  7> H          2.15586       -2.56540       -4.93209
|  8> C          3.45115       -0.14953       -5.95259
|  9> C          3.92267        1.08956       -5.85071
| 10> N          3.96616       -1.00618       -6.86788
| 11> H          3.52139       -1.90647       -6.99527
| 12> H          4.44482       -0.62347       -7.67035
| 13> H          2.25200        0.24080       -4.49879
| 14> H          3.46428        1.64078       -5.13639
| 15> H          4.83447        1.31375       -6.22465
| 16> H         -0.17658       -0.62881       -4.85045
| 17> H          0.56384       -1.39374       -3.46490
| 18> H         -0.28102       -2.36136       -4.64938
| 19> *
| 20> 
| 21> %MaxCore 64000
| 22> 
| 23> %pal nprocs 4
| 24> end  
| 25> 
| 26> %scf
| 27>   MaxIter 150
| 28> end
| 29> 
| 30> 
| 31>                          ****END OF INPUT****
================================================================================

                       ****************************
                       * Single Point Calculation *
                       ****************************

---------------------------------
CARTESIAN COORDINATES (ANGSTROEM)
---------------------------------
  C      1.635560   -1.670400   -5.292110
  C      0.338480   -1.500910   -4.505400
  N      2.484510   -0.507410   -5.140390
  H      1.398340   -1.829240   -6.352590
  H      2.155860   -2.565400   -4.932090
  C      3.451150   -0.149530   -5.952590
  C      3.922670    1.089560   -5.850710
  N      3.966160   -1.006180   -6.867880
  H      3.521390   -1.906470   -6.995270
  H      4.444820   -0.623470   -7.670350
  H      2.252000    0.240800   -4.498790
  H      3.464280    1.640780   -5.136390
  H      4.834470    1.313750   -6.224650
  H     -0.176580   -0.628810   -4.850450
  H      0.563840   -1.393740   -3.464900
  H     -0.281020   -2.361360   -4.649380

----------------------------
CARTESIAN COORDINATES (A.U.)
----------------------------
  NO LB      ZA    FRAG     MASS         X           Y           Z
   0 C     6.0000    0    12.011    3.090760   -3.156599  -10.000639
   1 C     6.0000    0    12.011    0.639635   -2.836309   -8.513972
   2 N     7.0000    0    14.007    4.695043   -0.958866   -9.713929
   3 H     1.0000    0     1.008    2.642480   -3.456763  -12.004655
   4 H     1.0000    0     1.008    4.073985   -4.847903   -9.320299
   5 C     6.0000    0    12.011    6.521728   -0.282571  -11.248765
   6 C     6.0000    0    12.011    7.412772    2.058970  -11.056240
   7 N     7.0000    0    14.007    7.494956   -1.901405  -12.978412
   8 H     1.0000    0     1.008    6.654463   -3.602706  -13.219145
   9 H     1.0000    0     1.008    8.399493   -1.178188  -14.494861
  10 H     1.0000    0     1.008    4.255663    0.455046   -8.501481
  11 H     1.0000    0     1.008    6.546540    3.100625   -9.706370
  12 H     1.0000    0     1.008    9.135824    2.482628  -11.762884
  13 H     1.0000    0     1.008   -0.333688   -1.188279   -9.166022
  14 H     1.0000    0     1.008    1.065503   -2.633787   -6.547712
  15 H     1.0000    0     1.008   -0.531051   -4.462324   -8.786055

--------------------------------
INTERNAL COORDINATES (ANGSTROEM)
--------------------------------
 C      0   0   0     0.000000000000     0.00000000     0.00000000
 C      1   0   0     1.526452099019     0.00000000     0.00000000
 N      1   2   0     1.447853860374   110.79630082     0.00000000
 H      1   2   3     1.098235541403   109.27983290   238.48612086
 H      1   2   3     1.096061809571   108.95036832   121.23137438
 C      3   1   2     1.312303251539   125.88108164   201.13093006
 C      6   3   1     1.329682169881   117.89912014   164.56341170
 N      6   3   1     1.355300817789   121.70242568   344.31618449
 H      8   6   3     1.012210773061   118.69888469     7.01850578
 H      8   6   3     1.009722952398   118.50845680   158.08561097
 H      3   1   2     1.012684385285   121.68431269     6.65893231
 H      7   6   3     1.012036532394   113.64189798   359.66429587
 H      7   6   3     1.010678742084   119.88613512   160.18204289
 H      2   1   3     1.070002203783   109.47108166    58.76861412
 H      2   1   3     1.070005975918   109.47079003   298.76901239
 H      2   1   3     1.069992847126   109.47129286   178.76902232

---------------------------
INTERNAL COORDINATES (A.U.)
---------------------------
 C      0   0   0     0.000000000000     0.00000000     0.00000000
 C      1   0   0     2.884576423695     0.00000000     0.00000000
 N      1   2   0     2.736047278048   110.79630082     0.00000000
 H      1   2   3     2.075364403790   109.27983290   238.48612086
 H      1   2   3     2.071256645939   108.95036832   121.23137438
 C      3   1   2     2.479893750063   125.88108164   201.13093006
 C      6   3   1     2.512735146234   117.89912014   164.56341170
 N      6   3   1     2.561147374701   121.70242568   344.31618449
 H      8   6   3     1.912801150889   118.69888469     7.01850578
 H      8   6   3     1.908099851167   118.50845680   158.08561097
 H      3   1   2     1.913696148287   121.68431269     6.65893231
 H      7   6   3     1.912471883748   113.64189798   359.66429587
 H      7   6   3     1.909906031914   119.88613512   160.18204289
 H      2   1   3     2.022011127842   109.47108166    58.76861412
 H      2   1   3     2.022018256144   109.47079003   298.76901239
 H      2   1   3     2.021993446322   109.47129286   178.76902232

---------------------
BASIS SET INFORMATION
---------------------
There are 3 groups of distinct atoms

 Group   1 Type C   : 8s4p2d contracted to 4s2p2d pattern {5111/31/11}
 Group   2 Type N   : 8s4p2d contracted to 4s2p2d pattern {5111/31/11}
 Group   3 Type H   : 4s2p contracted to 2s2p pattern {31/11}

Atom   0C    basis set group =>   1
Atom   1C    basis set group =>   1
Atom   2N    basis set group =>   2
Atom   3H    basis set group =>   3
Atom   4H    basis set group =>   3
Atom   5C    basis set group =>   1
Atom   6C    basis set group =>   1
Atom   7N    basis set group =>   2
Atom   8H    basis set group =>   3
Atom   9H    basis set group =>   3
Atom  10H    basis set group =>   3
Atom  11H    basis set group =>   3
Atom  12H    basis set group =>   3
Atom  13H    basis set group =>   3
Atom  14H    basis set group =>   3
Atom  15H    basis set group =>   3
---------------------------------
AUXILIARY/J BASIS SET INFORMATION
---------------------------------
There are 3 groups of distinct atoms

 Group   1 Type C   : 12s5p4d2f1g contracted to 6s4p3d1f1g pattern {711111/2111/211/2/1}
 Group   2 Type N   : 12s5p4d2f1g contracted to 6s4p3d1f1g pattern {711111/2111/211/2/1}
 Group   3 Type H   : 5s2p1d contracted to 3s1p1d pattern {311/2/1}

Atom   0C    basis set group =>   1
Atom   1C    basis set group =>   1
Atom   2N    basis set group =>   2
Atom   3H    basis set group =>   3
Atom   4H    basis set group =>   3
Atom   5C    basis set group =>   1
Atom   6C    basis set group =>   1
Atom   7N    basis set group =>   2
Atom   8H    basis set group =>   3
Atom   9H    basis set group =>   3
Atom  10H    basis set group =>   3
Atom  11H    basis set group =>   3
Atom  12H    basis set group =>   3
Atom  13H    basis set group =>   3
Atom  14H    basis set group =>   3
Atom  15H    basis set group =>   3


           ************************************************************
           *        Program running with 4 parallel MPI-processes     *
           *              working on a common directory               *
           ************************************************************
------------------------------------------------------------------------------
                           ORCA GTO INTEGRAL CALCULATION
                           -- RI-GTO INTEGRALS CHOSEN --
------------------------------------------------------------------------------
------------------------------------------------------------------------------
                   ___                                                        
                  /   \      - P O W E R E D   B Y -                         
                 /     \                                                     
                 |  |  |   _    _      __       _____    __    __             
                 |  |  |  | |  | |    /  \     |  _  \  |  |  /  |          
                  \  \/   | |  | |   /    \    | | | |  |  | /  /          
                 / \  \   | |__| |  /  /\  \   | |_| |  |  |/  /          
                |  |  |   |  __  | /  /__\  \  |    /   |      \           
                |  |  |   | |  | | |   __   |  |    \   |  |\   \          
                \     /   | |  | | |  |  |  |  | |\  \  |  | \   \       
                 \___/    |_|  |_| |__|  |__|  |_| \__\ |__|  \__/        
                                                                              
                      - O R C A' S   B I G   F R I E N D -                    
                                      &                                       
                       - I N T E G R A L  F E E D E R -                       
                                                                              
 v1 FN, 2020, v2 2021                                                         
------------------------------------------------------------------------------


Reading SHARK input file SVPD_PBE0_C2_wt_dlpno_pos.SHARKINP.tmp ... ok
----------------------
SHARK INTEGRAL PACKAGE
----------------------

Number of atoms                             ...     16
Number of basis functions                   ...    200
Number of shells                            ...     88
Maximum angular momentum                    ...      2
Integral batch strategy                     ... SHARK/LIBINT Hybrid
RI-J (if used) integral strategy            ... SPLIT-RIJ (Revised 2003 algorithm where possible)
Printlevel                                  ...      1
Contraction scheme used                     ... SEGMENTED contraction
Coulomb Range Separation                    ... NOT USED
Exchange Range Separation                   ... NOT USED
Finite Nucleus Model                        ... NOT USED
Auxiliary Coulomb fitting basis             ... AVAILABLE
   # of basis functions in Aux-J            ...    404
   # of shells in Aux-J                     ...    140
   Maximum angular momentum in Aux-J        ...      4
Auxiliary J/K fitting basis                 ... NOT available
Auxiliary Correlation fitting basis         ... NOT available
Auxiliary 'external' fitting basis          ... NOT available
Integral threshold                          ...     2.500000e-11
Primitive cut-off                           ...     2.500000e-12
Primitive pair pre-selection threshold      ...     2.500000e-12

Calculating pre-screening integrals         ... done (  0.0 sec) Dimension = 88
Organizing shell pair data                  ... done (  0.0 sec)
Shell pair information
Total number of shell pairs                 ...      3916
Shell pairs after pre-screening             ...      3815
Total number of primitive shell pairs       ...     10548
Primitive shell pairs kept                  ...      8543
          la=0 lb=0:    962 shell pairs
          la=1 lb=0:   1368 shell pairs
          la=1 lb=1:    512 shell pairs
          la=2 lb=0:    518 shell pairs
          la=2 lb=1:    377 shell pairs
          la=2 lb=2:     78 shell pairs

Calculating one electron integrals          ... done (  0.0 sec)
Calculating RI/J V-Matrix + Cholesky decomp.... done (  0.0 sec)
Calculating Nuclear repulsion               ... done (  0.0 sec) ENN=    247.224941561195 Eh

SHARK setup successfully completed in   0.2 seconds

Maximum memory used throughout the entire GTOINT-calculation: 8.9 MB


           ************************************************************
           *        Program running with 4 parallel MPI-processes     *
           *              working on a common directory               *
           ************************************************************
-------------------------------------------------------------------------------
                                 ORCA SCF
-------------------------------------------------------------------------------

------------
SCF SETTINGS
------------
Hamiltonian:
 Density Functional     Method          .... DFT(GTOs)
 Exchange Functional    Exchange        .... PBE
   PBE kappa parameter   XKappa         ....  0.804000
   PBE mue parameter    XMuePBE         ....  0.219520
 Correlation Functional Correlation     .... PBE
   PBE beta parameter  CBetaPBE         ....  0.066725
 LDA part of GGA corr.  LDAOpt          .... PW91-LDA
 Gradients option       PostSCFGGA      .... off
 Hybrid DFT is turned on
   Fraction HF Exchange ScalHFX         ....  0.250000
   Scaling of DF-GGA-X  ScalDFX         ....  0.750000
   Scaling of DF-GGA-C  ScalDFC         ....  1.000000
   Scaling of DF-LDA-C  ScalLDAC        ....  1.000000
   Perturbative correction              ....  0.000000
   Density functional embedding theory  .... OFF
   NL short-range parameter             ....  6.900000
 RI-approximation to the Coulomb term is turned on
   Number of AuxJ basis functions       .... 404
   RIJ-COSX (HFX calculated with COS-X)).... on


General Settings:
 Integral files         IntName         .... SVPD_PBE0_C2_wt_dlpno_pos
 Hartree-Fock type      HFTyp           .... RHF
 Total Charge           Charge          ....    0
 Multiplicity           Mult            ....    1
 Number of Electrons    NEL             ....   48
 Basis Dimension        Dim             ....  200
 Nuclear Repulsion      ENuc            ....    247.2249415612 Eh

Convergence Acceleration:
 DIIS                   CNVDIIS         .... on
   Start iteration      DIISMaxIt       ....    12
   Startup error        DIISStart       ....  0.200000
   # of expansion vecs  DIISMaxEq       ....     5
   Bias factor          DIISBfac        ....   1.050
   Max. coefficient     DIISMaxC        ....  10.000
 Trust-Rad. Augm. Hess. CNVTRAH         .... auto
   Auto Start mean grad. ratio tolernc. ....  1.125000
   Auto Start start iteration           ....    20
   Auto Start num. interpolation iter.  ....    10
   Max. Number of Micro iterations      ....    16
   Max. Number of Macro iterations      .... Maxiter - #DIIS iter
   Number of Davidson start vectors     ....     2
   Converg. threshold I  (grad. norm)   ....   1.000e-05
   Converg. threshold II (energy diff.) ....   1.000e-08
   Grad. Scal. Fac. for Micro threshold ....   0.100
   Minimum threshold for Micro iter.    ....   0.010
   NR start threshold (gradient norm)   ....   0.001
   Initial trust radius                 ....   0.400
   Minimum AH scaling param. (alpha)    ....   1.000
   Maximum AH scaling param. (alpha)    .... 1000.000
   Orbital update algorithm             .... Taylor
   White noise on init. David. guess    .... on
   Maximum white noise                  ....   0.010
   Quad. conv. algorithm                .... NR
 SOSCF                  CNVSOSCF        .... on
   Start iteration      SOSCFMaxIt      ....   150
   Startup grad/error   SOSCFStart      ....  0.003300
 Level Shifting         CNVShift        .... on
   Level shift para.    LevelShift      ....    0.2500
   Turn off err/grad.   ShiftErr        ....    0.0010
 Zerner damping         CNVZerner       .... off
 Static damping         CNVDamp         .... on
   Fraction old density DampFac         ....    0.7000
   Max. Damping (<1)    DampMax         ....    0.9800
   Min. Damping (>=0)   DampMin         ....    0.0000
   Turn off err/grad.   DampErr         ....    0.1000
 Fernandez-Rico         CNVRico         .... off

SCF Procedure:
 Maximum # iterations   MaxIter         ....   150
 SCF integral mode      SCFMode         .... Direct
   Integral package                     .... SHARK and LIBINT hybrid scheme
 Reset frequency        DirectResetFreq ....    20
 Integral Threshold     Thresh          ....  2.500e-11 Eh
 Primitive CutOff       TCut            ....  2.500e-12 Eh

Convergence Tolerance:
 Convergence Check Mode ConvCheckMode   .... Total+1el-Energy
 Convergence forced     ConvForced      .... 0
 Energy Change          TolE            ....  1.000e-08 Eh
 1-El. energy change                    ....  1.000e-05 Eh
 Orbital Gradient       TolG            ....  1.000e-05
 Orbital Rotation angle TolX            ....  1.000e-05
 DIIS Error             TolErr          ....  5.000e-07


Diagonalization of the overlap matrix:
Smallest eigenvalue                        ... 7.305e-05
Time for diagonalization                   ...    0.011 sec
Threshold for overlap eigenvalues          ... 1.000e-08
Number of eigenvalues below threshold      ... 0
Time for construction of square roots      ...    0.007 sec
Total time needed                          ...    0.018 sec

Time for model grid setup =    0.102 sec

------------------------------
INITIAL GUESS: MODEL POTENTIAL
------------------------------
Loading Hartree-Fock densities                     ... done
Calculating cut-offs                               ... done
Initializing the effective Hamiltonian             ... done
Setting up the integral package (SHARK)            ... done
Starting the Coulomb interaction                   ... done (   0.1 sec)
Reading the grid                                   ... done
Mapping shells                                     ... done
Starting the XC term evaluation                    ... done (   0.1 sec)
  promolecular density results
     # of electrons  =     47.994609319
     EX              =    -36.582236004
     EC              =     -1.577008438
     EX+EC           =    -38.159244442
Transforming the Hamiltonian                       ... done (   0.0 sec)
Diagonalizing the Hamiltonian                      ... done (   0.0 sec)
Back transforming the eigenvectors                 ... done (   0.0 sec)
Now organizing SCF variables                       ... done
                      ------------------
                      INITIAL GUESS DONE (   0.3 sec)
                      ------------------
-------------------
DFT GRID GENERATION
-------------------

General Integration Accuracy     IntAcc      ... 4.388
Radial Grid Type                 RadialGrid  ... OptM3 with GC (2021)
Angular Grid (max. ang.)         AngularGrid ... 4 (Lebedev-302)
Angular grid pruning method      GridPruning ... 4 (adaptive)
Weight generation scheme         WeightScheme... Becke
Basis function cutoff            BFCut       ... 1.0000e-11
Integration weight cutoff        WCut        ... 1.0000e-14
Angular grids for H and He will be reduced by one unit
Partially contracted basis set               ... off
Rotationally invariant grid construction     ... off

Total number of grid points                  ...    70369
Total number of batches                      ...     1109
Average number of points per batch           ...       63
Average number of grid points per atom       ...     4398
Time for grid setup =    0.452 sec

--------------------
COSX GRID GENERATION
--------------------

GRIDX 1
-------
General Integration Accuracy     IntAcc      ... 3.816
Radial Grid Type                 RadialGrid  ... OptM3 with GC (2021)
Angular Grid (max. ang.)         AngularGrid ... 1 (Lebedev-50)
Angular grid pruning method      GridPruning ... 4 (adaptive)
Weight generation scheme         WeightScheme... Becke
Basis function cutoff            BFCut       ... 1.0000e-11
Integration weight cutoff        WCut        ... 1.0000e-14
Angular grids for H and He will be reduced by one unit
Partially contracted basis set               ... on
Rotationally invariant grid construction     ... off

Total number of grid points                  ...     8797
Total number of batches                      ...      148
Average number of points per batch           ...       59
Average number of grid points per atom       ...      550
UseSFitting                                  ... on

GRIDX 2
-------
General Integration Accuracy     IntAcc      ... 4.020
Radial Grid Type                 RadialGrid  ... OptM3 with GC (2021)
Angular Grid (max. ang.)         AngularGrid ... 2 (Lebedev-110)
Angular grid pruning method      GridPruning ... 4 (adaptive)
Weight generation scheme         WeightScheme... Becke
Basis function cutoff            BFCut       ... 1.0000e-11
Integration weight cutoff        WCut        ... 1.0000e-14
Angular grids for H and He will be reduced by one unit
Partially contracted basis set               ... on
Rotationally invariant grid construction     ... off

Total number of grid points                  ...    19336
Total number of batches                      ...      309
Average number of points per batch           ...       62
Average number of grid points per atom       ...     1208
UseSFitting                                  ... on

GRIDX 3
-------
General Integration Accuracy     IntAcc      ... 4.338
Radial Grid Type                 RadialGrid  ... OptM3 with GC (2021)
Angular Grid (max. ang.)         AngularGrid ... 3 (Lebedev-194)
Angular grid pruning method      GridPruning ... 4 (adaptive)
Weight generation scheme         WeightScheme... Becke
Basis function cutoff            BFCut       ... 1.0000e-11
Integration weight cutoff        WCut        ... 1.0000e-14
Angular grids for H and He will be reduced by one unit
Partially contracted basis set               ... on
Rotationally invariant grid construction     ... off

Total number of grid points                  ...    44209
Total number of batches                      ...      699
Average number of points per batch           ...       63
Average number of grid points per atom       ...     2763
UseSFitting                                  ... on

Time for X-Grid setup             =    0.434 sec

--------------
SCF ITERATIONS
--------------
ITER       Energy         Delta-E        Max-DP      RMS-DP      [F,P]     Damp
               ***  Starting incremental Fock matrix formation  ***
  0   -267.1501658975   0.000000000000 0.19913970  0.00380488  0.2336534 0.7000
  1   -267.2683256427  -0.118159745219 0.15899269  0.00287570  0.1263566 0.7000
                               ***Turning on DIIS***
  2   -267.3193223549  -0.050996712229 0.38066709  0.00585422  0.0508156 0.0000
  3   -267.3883034812  -0.068981126258 0.10488109  0.00157753  0.0696057 0.0000
  4   -267.4087490090  -0.020445527852 0.03152376  0.00060211  0.0147134 0.0000
  5   -267.4097632452  -0.001014236106 0.02201828  0.00027401  0.0045102 0.0000
                      *** Initiating the SOSCF procedure ***
                           *** Shutting down DIIS ***
                      *** Re-Reading the Fockian *** 
                      *** Removing any level shift *** 
ITER      Energy       Delta-E        Grad      Rot      Max-DP    RMS-DP
  6   -267.40984842  -0.0000851742  0.000442  0.000442  0.006228  0.000112
               *** Restarting incremental Fock matrix formation ***
  7   -267.40982151   0.0000269130  0.000184  0.000436  0.006441  0.000101
  8   -267.40982250  -0.0000009953  0.000062  0.000139  0.000649  0.000023
  9   -267.40982277  -0.0000002655  0.000048  0.000136  0.000515  0.000016
 10   -267.40982282  -0.0000000527  0.000029  0.000054  0.000112  0.000003
 11   -267.40982283  -0.0000000129  0.000014  0.000013  0.000148  0.000004
                  ***Gradient check signals convergence***
              ***Rediagonalizing the Fockian in SOSCF/NRSCF***

               *****************************************************
               *                     SUCCESS                       *
               *           SCF CONVERGED AFTER  12 CYCLES          *
               *****************************************************

Old exchange energy                            =     -9.397464003 Eh
New exchange energy                            =     -9.397453810 Eh
Exchange energy change after final integration =      0.000010193 Eh
Total energy after final integration           =   -267.409812646 Eh
Final COS-X integration done in                =     2.874 sec

----------------
TOTAL SCF ENERGY
----------------

Total Energy       :         -267.40981265 Eh           -7276.59094 eV

Components:
Nuclear Repulsion  :          247.22494156 Eh            6727.33267 eV
Electronic Energy  :         -514.63475421 Eh          -14003.92361 eV
One Electron Energy:         -849.60584592 Eh          -23118.95041 eV
Two Electron Energy:          334.97109171 Eh            9115.02680 eV
Max COSX asymmetry :            0.00000802 Eh               0.00022 eV

Virial components:
Potential Energy   :         -532.45196825 Eh          -14488.75465 eV
Kinetic Energy     :          265.04215560 Eh            7212.16371 eV
Virial Ratio       :            2.00893313


DFT components:
N(Alpha)           :       24.000054197966 electrons
N(Beta)            :       24.000054197966 electrons
N(Total)           :       48.000108395932 electrons
E(X)               :      -28.075988143317 Eh       
E(C)               :       -1.589797765727 Eh       
E(XC)              :      -29.665785909044 Eh       
DFET-embed. en.    :        0.000000000000 Eh       

---------------
SCF CONVERGENCE
---------------

  Last Energy change         ...   -6.4184e-09  Tolerance :   1.0000e-08
  Last MAX-Density change    ...    1.7764e-15  Tolerance :   1.0000e-07
  Last RMS-Density change    ...    3.3452e-17  Tolerance :   5.0000e-09
  Last Orbital Gradient      ...    2.2179e-06  Tolerance :   1.0000e-05
  Last Orbital Rotation      ...    4.9078e-06  Tolerance :   1.0000e-05

             **** THE GBW FILE WAS UPDATED (SVPD_PBE0_C2_wt_dlpno_pos.gbw) ****
             **** DENSITY SVPD_PBE0_C2_wt_dlpno_pos.scfp WAS UPDATED ****
             **** ENERGY FILE WAS UPDATED (SVPD_PBE0_C2_wt_dlpno_pos.en.tmp) ****
             **** THE GBW FILE WAS UPDATED (SVPD_PBE0_C2_wt_dlpno_pos.gbw) ****
             **** DENSITY SVPD_PBE0_C2_wt_dlpno_pos.scfp WAS UPDATED ****
----------------
ORBITAL ENERGIES
----------------

  NO   OCC          E(Eh)            E(eV) 
   0   2.0000     -14.398022      -391.7901 
   1   2.0000     -14.395499      -391.7214 
   2   2.0000     -10.276000      -279.6242 
   3   2.0000     -10.275042      -279.5981 
   4   2.0000     -10.233460      -278.4666 
   5   2.0000     -10.141907      -275.9753 
   6   2.0000      -0.989741       -26.9322 
   7   2.0000      -0.900600       -24.5066 
   8   2.0000      -0.796254       -21.6672 
   9   2.0000      -0.719053       -19.5664 
  10   2.0000      -0.643499       -17.5105 
  11   2.0000      -0.613343       -16.6899 
  12   2.0000      -0.551593       -15.0096 
  13   2.0000      -0.512826       -13.9547 
  14   2.0000      -0.495803       -13.4915 
  15   2.0000      -0.479044       -13.0355 
  16   2.0000      -0.432886       -11.7794 
  17   2.0000      -0.410347       -11.1661 
  18   2.0000      -0.394102       -10.7241 
  19   2.0000      -0.390080       -10.6146 
  20   2.0000      -0.388908       -10.5827 
  21   2.0000      -0.362121        -9.8538 
  22   2.0000      -0.270756        -7.3676 
  23   2.0000      -0.171730        -4.6730 
  24   0.0000       0.021028         0.5722 
  25   0.0000       0.040410         1.0996 
  26   0.0000       0.049066         1.3351 
  27   0.0000       0.071411         1.9432 
  28   0.0000       0.082306         2.2397 
  29   0.0000       0.090822         2.4714 
  30   0.0000       0.092276         2.5110 
  31   0.0000       0.099273         2.7013 
  32   0.0000       0.117302         3.1919 
  33   0.0000       0.128994         3.5101 
  34   0.0000       0.135103         3.6763 
  35   0.0000       0.150826         4.1042 
  36   0.0000       0.154968         4.2169 
  37   0.0000       0.161596         4.3972 
  38   0.0000       0.175133         4.7656 
  39   0.0000       0.183623         4.9966 
  40   0.0000       0.191217         5.2033 
  41   0.0000       0.201914         5.4944 
  42   0.0000       0.219070         5.9612 
  43   0.0000       0.236386         6.4324 
  44   0.0000       0.238713         6.4957 
  45   0.0000       0.243925         6.6375 
  46   0.0000       0.248778         6.7696 
  47   0.0000       0.258663         7.0386 
  48   0.0000       0.270344         7.3564 
  49   0.0000       0.279123         7.5953 
  50   0.0000       0.283788         7.7223 
  51   0.0000       0.304239         8.2788 
  52   0.0000       0.306869         8.3503 
  53   0.0000       0.314654         8.5622 
  54   0.0000       0.326955         8.8969 
  55   0.0000       0.339652         9.2424 
  56   0.0000       0.342658         9.3242 
  57   0.0000       0.349003         9.4968 
  58   0.0000       0.359221         9.7749 
  59   0.0000       0.367258         9.9936 
  60   0.0000       0.368763        10.0345 
  61   0.0000       0.371411        10.1066 
  62   0.0000       0.378976        10.3125 
  63   0.0000       0.385133        10.4800 
  64   0.0000       0.395407        10.7596 
  65   0.0000       0.401685        10.9304 
  66   0.0000       0.409279        11.1370 
  67   0.0000       0.416241        11.3265 
  68   0.0000       0.426045        11.5933 
  69   0.0000       0.438190        11.9237 
  70   0.0000       0.440074        11.9750 
  71   0.0000       0.448011        12.1910 
  72   0.0000       0.456061        12.4100 
  73   0.0000       0.462343        12.5810 
  74   0.0000       0.468357        12.7446 
  75   0.0000       0.471911        12.8413 
  76   0.0000       0.487100        13.2547 
  77   0.0000       0.496327        13.5057 
  78   0.0000       0.498603        13.5677 
  79   0.0000       0.503436        13.6992 
  80   0.0000       0.508199        13.8288 
  81   0.0000       0.515418        14.0253 
  82   0.0000       0.524502        14.2724 
  83   0.0000       0.543141        14.7796 
  84   0.0000       0.549227        14.9452 
  85   0.0000       0.556687        15.1482 
  86   0.0000       0.570555        15.5256 
  87   0.0000       0.585337        15.9278 
  88   0.0000       0.594211        16.1693 
  89   0.0000       0.601906        16.3787 
  90   0.0000       0.606155        16.4943 
  91   0.0000       0.624833        17.0026 
  92   0.0000       0.632368        17.2076 
  93   0.0000       0.643043        17.4981 
  94   0.0000       0.646442        17.5906 
  95   0.0000       0.671374        18.2690 
  96   0.0000       0.678449        18.4615 
  97   0.0000       0.696780        18.9603 
  98   0.0000       0.711366        19.3573 
  99   0.0000       0.726324        19.7643 
 100   0.0000       0.756210        20.5775 
 101   0.0000       0.769570        20.9411 
 102   0.0000       0.774353        21.0712 
 103   0.0000       0.789368        21.4798 
 104   0.0000       0.833437        22.6790 
 105   0.0000       0.860636        23.4191 
 106   0.0000       0.896670        24.3996 
 107   0.0000       0.905658        24.6442 
 108   0.0000       0.936407        25.4809 
 109   0.0000       0.950461        25.8634 
 110   0.0000       0.984039        26.7771 
 111   0.0000       0.994180        27.0530 
 112   0.0000       1.004420        27.3317 
 113   0.0000       1.011944        27.5364 
 114   0.0000       1.029974        28.0270 
 115   0.0000       1.036300        28.1991 
 116   0.0000       1.066986        29.0342 
 117   0.0000       1.084439        29.5091 
 118   0.0000       1.101608        29.9763 
 119   0.0000       1.117448        30.4073 
 120   0.0000       1.145260        31.1641 
 121   0.0000       1.153176        31.3795 
 122   0.0000       1.166389        31.7391 
 123   0.0000       1.202755        32.7286 
 124   0.0000       1.216678        33.1075 
 125   0.0000       1.248032        33.9607 
 126   0.0000       1.261175        34.3183 
 127   0.0000       1.279499        34.8169 
 128   0.0000       1.292087        35.1595 
 129   0.0000       1.345229        36.6055 
 130   0.0000       1.354930        36.8695 
 131   0.0000       1.378656        37.5151 
 132   0.0000       1.422670        38.7128 
 133   0.0000       1.466731        39.9118 
 134   0.0000       1.551034        42.2058 
 135   0.0000       1.583911        43.1004 
 136   0.0000       1.591437        43.3052 
 137   0.0000       1.598686        43.5025 
 138   0.0000       1.616472        43.9864 
 139   0.0000       1.638512        44.5862 
 140   0.0000       1.672795        45.5191 
 141   0.0000       1.694592        46.1122 
 142   0.0000       1.712293        46.5939 
 143   0.0000       1.742560        47.4175 
 144   0.0000       1.782656        48.5085 
 145   0.0000       1.803231        49.0684 
 146   0.0000       1.821230        49.5582 
 147   0.0000       1.850948        50.3668 
 148   0.0000       1.870931        50.9106 
 149   0.0000       1.880270        51.1647 
 150   0.0000       1.904000        51.8105 
 151   0.0000       1.935825        52.6765 
 152   0.0000       1.956678        53.2439 
 153   0.0000       1.966057        53.4991 
 154   0.0000       2.012834        54.7720 
 155   0.0000       2.043634        55.6101 
 156   0.0000       2.053430        55.8767 
 157   0.0000       2.059785        56.0496 
 158   0.0000       2.065491        56.2049 
 159   0.0000       2.081859        56.6503 
 160   0.0000       2.096022        57.0356 
 161   0.0000       2.129566        57.9484 
 162   0.0000       2.141070        58.2615 
 163   0.0000       2.149271        58.4846 
 164   0.0000       2.178201        59.2719 
 165   0.0000       2.230333        60.6904 
 166   0.0000       2.238671        60.9173 
 167   0.0000       2.285441        62.1900 
 168   0.0000       2.330489        63.4158 
 169   0.0000       2.339645        63.6650 
 170   0.0000       2.346498        63.8515 
 171   0.0000       2.395230        65.1775 
 172   0.0000       2.435008        66.2599 
 173   0.0000       2.470853        67.2353 
 174   0.0000       2.500286        68.0362 
 175   0.0000       2.513803        68.4041 
 176   0.0000       2.540982        69.1436 
 177   0.0000       2.574607        70.0586 
 178   0.0000       2.603858        70.8546 
 179   0.0000       2.615713        71.1772 
 180   0.0000       2.653284        72.1995 
 181   0.0000       2.678479        72.8851 
 182   0.0000       2.767677        75.3123 
 183   0.0000       2.819339        76.7181 
 184   0.0000       2.848671        77.5163 
 185   0.0000       2.866204        77.9934 
 186   0.0000       2.933647        79.8286 
 187   0.0000       3.038106        82.6711 
 188   0.0000       3.050923        83.0198 
 189   0.0000       3.087477        84.0145 
 190   0.0000       3.121912        84.9515 
 191   0.0000       3.191110        86.8345 
 192   0.0000       3.207899        87.2914 
 193   0.0000       3.264618        88.8348 
 194   0.0000       3.307157        89.9923 
 195   0.0000       3.343451        90.9799 
 196   0.0000       3.354179        91.2719 
 197   0.0000       3.503015        95.3219 
 198   0.0000       3.670599        99.8821 
 199   0.0000       3.752553       102.1122 

                    ********************************
                    * MULLIKEN POPULATION ANALYSIS *
                    ********************************

-----------------------
MULLIKEN ATOMIC CHARGES
-----------------------
   0 C :    0.006432
   1 C :    0.642973
   2 N :   -0.504112
   3 H :   -0.070810
   4 H :   -0.100158
   5 C :    0.699224
   6 C :    0.359657
   7 N :   -0.137687
   8 H :   -0.113088
   9 H :   -0.051770
  10 H :   -0.141860
  11 H :   -0.160637
  12 H :   -0.382735
  13 H :   -0.007348
  14 H :    0.008175
  15 H :   -0.046256
Sum of atomic charges:    0.0000000

--------------------------------
MULLIKEN REDUCED ORBITAL CHARGES
--------------------------------
  0 C s       :     2.875372  s :     2.875372
      pz      :     0.956528  p :     2.773668
      px      :     0.941359
      py      :     0.875781
      dz2     :     0.106486  d :     0.344528
      dxz     :     0.059228
      dyz     :    -0.009409
      dx2y2   :     0.037202
      dxy     :     0.151020
  1 C s       :     2.348960  s :     2.348960
      pz      :     0.975370  p :     2.851299
      px      :     0.953724
      py      :     0.922205
      dz2     :     0.051733  d :     0.156768
      dxz     :     0.030771
      dyz     :     0.003709
      dx2y2   :     0.001334
      dxy     :     0.069221
  2 N s       :     3.506161  s :     3.506161
      pz      :     1.308522  p :     3.786326
      px      :     1.280515
      py      :     1.197289
      dz2     :     0.045572  d :     0.211625
      dxz     :     0.034895
      dyz     :     0.006563
      dx2y2   :     0.078408
      dxy     :     0.046186
  3 H s       :     1.021025  s :     1.021025
      pz      :     0.072277  p :     0.049785
      px      :    -0.030423
      py      :     0.007930
  4 H s       :     1.045327  s :     1.045327
      pz      :    -0.031028  p :     0.054831
      px      :     0.029517
      py      :     0.056342
  5 C s       :     2.696602  s :     2.696602
      pz      :     0.817798  p :     2.369930
      px      :     0.878926
      py      :     0.673205
      dz2     :     0.012031  d :     0.234244
      dxz     :    -0.000904
      dyz     :     0.135026
      dx2y2   :     0.003910
      dxy     :     0.084181
  6 C s       :     2.824064  s :     2.824064
      pz      :     0.921093  p :     2.759495
      px      :     0.815159
      py      :     1.023242
      dz2     :     0.015596  d :     0.056784
      dxz     :    -0.019492
      dyz     :     0.031509
      dx2y2   :     0.021395
      dxy     :     0.007776
  7 N s       :     3.407611  s :     3.407611
      pz      :     1.202445  p :     3.723097
      px      :     1.435988
      py      :     1.084664
      dz2     :     0.001825  d :     0.006980
      dxz     :     0.000070
      dyz     :    -0.000851
      dx2y2   :     0.009800
      dxy     :    -0.003864
  8 H s       :     1.065405  s :     1.065405
      pz      :     0.023155  p :     0.047683
      px      :     0.006628
      py      :     0.017899
  9 H s       :     1.003394  s :     1.003394
      pz      :     0.018014  p :     0.048375
      px      :     0.048729
      py      :    -0.018368
 10 H s       :     1.133014  s :     1.133014
      pz      :     0.024981  p :     0.008846
      px      :    -0.009212
      py      :    -0.006922
 11 H s       :     1.070638  s :     1.070638
      pz      :     0.056131  p :     0.089999
      px      :     0.009836
      py      :     0.024032
 12 H s       :     1.312102  s :     1.312102
      pz      :     0.010014  p :     0.070633
      px      :     0.049307
      py      :     0.011312
 13 H s       :     0.954258  s :     0.954258
      pz      :     0.009336  p :     0.053090
      px      :     0.005528
      py      :     0.038227
 14 H s       :     0.955017  s :     0.955017
      pz      :     0.047539  p :     0.036808
      px      :     0.014509
      py      :    -0.025239
 15 H s       :     0.999510  s :     0.999510
      pz      :    -0.007787  p :     0.046746
      px      :     0.000906
      py      :     0.053627


                     *******************************
                     * LOEWDIN POPULATION ANALYSIS *
                     *******************************

----------------------
LOEWDIN ATOMIC CHARGES
----------------------
   0 C :   -0.009405
   1 C :    0.126288
   2 N :   -0.032212
   3 H :    0.022152
   4 H :    0.021986
   5 C :   -0.230126
   6 C :    0.133923
   7 N :    0.194757
   8 H :   -0.026656
   9 H :    0.004943
  10 H :    0.030683
  11 H :   -0.102570
  12 H :   -0.096637
  13 H :   -0.011019
  14 H :   -0.012417
  15 H :   -0.013691

-------------------------------
LOEWDIN REDUCED ORBITAL CHARGES
-------------------------------
  0 C s       :     2.673737  s :     2.673737
      pz      :     0.907680  p :     2.612648
      px      :     0.861768
      py      :     0.843200
      dz2     :     0.155066  d :     0.723020
      dxz     :     0.126851
      dyz     :     0.091578
      dx2y2   :     0.158652
      dxy     :     0.190874
  1 C s       :     2.709911  s :     2.709911
      pz      :     0.931084  p :     2.770855
      px      :     0.901975
      py      :     0.937796
      dz2     :     0.123509  d :     0.392946
      dxz     :     0.073014
      dyz     :     0.024615
      dx2y2   :     0.047965
      dxy     :     0.123843
  2 N s       :     2.901488  s :     2.901488
      pz      :     1.205362  p :     3.501844
      px      :     1.184839
      py      :     1.111643
      dz2     :     0.097781  d :     0.628880
      dxz     :     0.104157
      dyz     :     0.126518
      dx2y2   :     0.155749
      dxy     :     0.144675
  3 H s       :     0.728627  s :     0.728627
      pz      :     0.123522  p :     0.249220
      px      :     0.069395
      py      :     0.056303
  4 H s       :     0.739368  s :     0.739368
      pz      :     0.072510  p :     0.238646
      px      :     0.071280
      py      :     0.094856
  5 C s       :     2.630690  s :     2.630690
      pz      :     0.795040  p :     2.514860
      px      :     0.806515
      py      :     0.913305
      dz2     :     0.200893  d :     1.084576
      dxz     :     0.161333
      dyz     :     0.262278
      dx2y2   :     0.225497
      dxy     :     0.234576
  6 C s       :     2.734328  s :     2.734328
      pz      :     0.944755  p :     2.812563
      px      :     0.941157
      py      :     0.926651
      dz2     :     0.032119  d :     0.319186
      dxz     :     0.037012
      dyz     :     0.079631
      dx2y2   :     0.087400
      dxy     :     0.083024
  7 N s       :     2.940120  s :     2.940120
      pz      :     1.155074  p :     3.532847
      px      :     1.278297
      py      :     1.099476
      dz2     :     0.079545  d :     0.332277
      dxz     :     0.058062
      dyz     :     0.074305
      dx2y2   :     0.062738
      dxy     :     0.057627
  8 H s       :     0.656154  s :     0.656154
      pz      :     0.092242  p :     0.370503
      px      :     0.141710
      py      :     0.136551
  9 H s       :     0.654587  s :     0.654587
      pz      :     0.130904  p :     0.340470
      px      :     0.119764
      py      :     0.089802
 10 H s       :     0.629267  s :     0.629267
      pz      :     0.113046  p :     0.340050
      px      :     0.095193
      py      :     0.131811
 11 H s       :     0.759847  s :     0.759847
      pz      :     0.138259  p :     0.342723
      px      :     0.107060
      py      :     0.097404
 12 H s       :     0.770734  s :     0.770734
      pz      :     0.117096  p :     0.325902
      px      :     0.129961
      py      :     0.078846
 13 H s       :     0.737903  s :     0.737903
      pz      :     0.078607  p :     0.273116
      px      :     0.079132
      py      :     0.115376
 14 H s       :     0.738180  s :     0.738180
      pz      :     0.126438  p :     0.274236
      px      :     0.072034
      py      :     0.075764
 15 H s       :     0.739122  s :     0.739122
      pz      :     0.073899  p :     0.274568
      px      :     0.086124
      py      :     0.114545


                      *****************************
                      * MAYER POPULATION ANALYSIS *
                      *****************************

  NA   - Mulliken gross atomic population
  ZA   - Total nuclear charge
  QA   - Mulliken gross atomic charge
  VA   - Mayer's total valence
  BVA  - Mayer's bonded valence
  FA   - Mayer's free valence

  ATOM       NA         ZA         QA         VA         BVA        FA
  0 C      5.9936     6.0000     0.0064     4.6407     4.6407     0.0000
  1 C      5.3570     6.0000     0.6430     3.7731     3.7731     0.0000
  2 N      7.5041     7.0000    -0.5041     4.0570     4.0570    -0.0000
  3 H      1.0708     1.0000    -0.0708     1.1443     1.1443     0.0000
  4 H      1.1002     1.0000    -0.1002     1.1502     1.1502    -0.0000
  5 C      5.3008     6.0000     0.6992     3.6571     3.6571     0.0000
  6 C      5.6403     6.0000     0.3597     3.7252     3.7252    -0.0000
  7 N      7.1377     7.0000    -0.1377     3.5028     3.5028     0.0000
  8 H      1.1131     1.0000    -0.1131     0.9482     0.9482     0.0000
  9 H      1.0518     1.0000    -0.0518     0.9308     0.9308     0.0000
 10 H      1.1419     1.0000    -0.1419     0.7795     0.7795    -0.0000
 11 H      1.1606     1.0000    -0.1606     1.1202     1.1202    -0.0000
 12 H      1.3827     1.0000    -0.3827     1.1086     1.1086    -0.0000
 13 H      1.0073     1.0000    -0.0073     1.1043     1.1043    -0.0000
 14 H      0.9918     1.0000     0.0082     1.0389     1.0389     0.0000
 15 H      1.0463     1.0000    -0.0463     1.0938     1.0938    -0.0000

  Mayer bond orders larger than 0.100000
B(  0-C ,  1-C ) :   1.2864 B(  0-C ,  2-N ) :   0.8736 B(  0-C ,  3-H ) :   0.9092 
B(  0-C ,  4-H ) :   0.9308 B(  0-C , 10-H ) :  -0.1177 B(  0-C , 13-H ) :   0.2028 
B(  0-C , 14-H ) :   0.2132 B(  0-C , 15-H ) :   0.2598 B(  1-C , 13-H ) :   0.8157 
B(  1-C , 14-H ) :   0.7659 B(  1-C , 15-H ) :   0.7766 B(  2-N ,  3-H ) :   0.1582 
B(  2-N ,  4-H ) :   0.1963 B(  2-N ,  5-C ) :   1.0408 B(  2-N ,  6-C ) :   0.2821 
B(  2-N ,  7-N ) :   0.1290 B(  2-N , 10-H ) :   1.1769 B(  5-C ,  6-C ) :   1.6764 
B(  5-C ,  7-N ) :   0.8201 B(  5-C ,  9-H ) :  -0.1047 B(  5-C , 10-H ) :  -0.1665 
B(  5-C , 11-H ) :   0.2104 B(  5-C , 12-H ) :   0.2447 B(  6-C ,  7-N ) :   0.2240 
B(  6-C , 11-H ) :   0.8302 B(  6-C , 12-H ) :   0.7476 B(  7-N ,  8-H ) :   1.0587 
B(  7-N ,  9-H ) :   1.1816 B(  8-H ,  9-H ) :  -0.1349 

-------
TIMINGS
-------

Total SCF time: 0 days 0 hours 0 min 22 sec 

Total time                  ....      22.524 sec
Sum of individual times     ....      22.331 sec  ( 99.1%)

Fock matrix formation       ....      20.995 sec  ( 93.2%)
  Split-RI-J                ....       1.510 sec  (  7.2% of F)
  Chain of spheres X        ....      15.173 sec  ( 72.3% of F)
  XC integration            ....       4.265 sec  ( 20.3% of F)
    Basis function eval.    ....       1.390 sec  ( 32.6% of XC)
    Density eval.           ....       1.056 sec  ( 24.8% of XC)
    XC-Functional eval.     ....       0.222 sec  (  5.2% of XC)
    XC-Potential eval.      ....       1.360 sec  ( 31.9% of XC)
Diagonalization             ....       0.074 sec  (  0.3%)
Density matrix formation    ....       0.006 sec  (  0.0%)
Population analysis         ....       0.009 sec  (  0.0%)
Initial guess               ....       0.173 sec  (  0.8%)
Orbital Transformation      ....       0.000 sec  (  0.0%)
Orbital Orthonormalization  ....       0.000 sec  (  0.0%)
DIIS solution               ....       0.043 sec  (  0.2%)
SOSCF solution              ....       0.042 sec  (  0.2%)
Grid generation             ....       0.988 sec  (  4.4%)

Maximum memory used throughout the entire SCF-calculation: 54.9 MB


-------------------------------------------------------------------------------
                          DFT DISPERSION CORRECTION                            
                                                                               
                              DFTD3 V3.1  Rev 1                                
                          USING Becke-Johnson damping                          
-------------------------------------------------------------------------------
The PBE0 functional is recognized
Active option DFTDOPT                   ...         4   

molecular C6(AA) [au] = 1934.978361 


            DFT-D V3
 parameters
 s6 scaling factor         :     1.0000 
 a1 scaling factor         :     0.4145 
 s8 scaling factor         :     1.2177 
 a2 scaling factor         :     4.8593 
 ad hoc parameters k1-k3   :    16.0000     1.3333    -4.0000 

 Edisp/kcal,au: -6.547404088238  -0.010433951455 
 E6   /kcal   :  -4.283405302 
 E8   /kcal   :  -2.263998787 
 % E8         :  34.578571234 

-------------------------   ----------------
Dispersion correction           -0.010433951
-------------------------   ----------------


-------------------------   --------------------
FINAL SINGLE POINT ENERGY      -267.420246597557
-------------------------   --------------------


                            ***************************************
                            *     ORCA property calculations      *
                            ***************************************

                                    ---------------------
                                    Active property flags
                                    ---------------------
   (+) Dipole Moment


------------------------------------------------------------------------------
                       ORCA ELECTRIC PROPERTIES CALCULATION
------------------------------------------------------------------------------

Dipole Moment Calculation                       ... on
Quadrupole Moment Calculation                   ... off
Polarizability Calculation                      ... off
GBWName                                         ... SVPD_PBE0_C2_wt_dlpno_pos.gbw
Electron density file                           ... SVPD_PBE0_C2_wt_dlpno_pos.scfp
The origin for moment calculation is the CENTER OF MASS  = ( 4.935834, -1.232471 -10.593160)

-------------
DIPOLE MOMENT
-------------
                                X             Y             Z
Electronic contribution:      2.96943       0.56460      -1.28793
Nuclear contribution   :     -3.69145      -1.49398       1.19810
                        -----------------------------------------
Total Dipole Moment    :     -0.72202      -0.92938      -0.08983
                        -----------------------------------------
Magnitude (a.u.)       :      1.18031
Magnitude (Debye)      :      3.00012



--------------------
Rotational spectrum 
--------------------
 
Rotational constants in cm-1:     0.270790     0.068966     0.056679 
Rotational constants in MHz :  8118.084803  2067.559423  1699.196934 

 Dipole components along the rotational axes: 
x,y,z [a.u.] :     0.945374    -0.697226     0.115249 
x,y,z [Debye]:     2.402950    -1.772207     0.292941 

 

Timings for individual modules:

Sum of individual times         ...       26.980 sec (=   0.450 min)
GTO integral calculation        ...        2.437 sec (=   0.041 min)   9.0 %
SCF iterations                  ...       24.543 sec (=   0.409 min)  91.0 %
                             ****ORCA TERMINATED NORMALLY****
TOTAL RUN TIME: 0 days 0 hours 0 minutes 27 seconds 493 msec
