
                                        *****************
                                        * O   R   C   A *
                                        *****************

                                            #,                                       
                                            ###                                      
                                            ####                                     
                                            #####                                    
                                            ######                                   
                                           ########,                                 
                                     ,,################,,,,,                         
                               ,,#################################,,                 
                          ,,##########################################,,             
                       ,#########################################, ''#####,          
                    ,#############################################,,   '####,        
                  ,##################################################,,,,####,       
                ,###########''''           ''''###############################       
              ,#####''   ,,,,##########,,,,          '''####'''          '####       
            ,##' ,,,,###########################,,,                        '##       
           ' ,,###''''                  '''############,,,                           
         ,,##''                                '''############,,,,        ,,,,,,###''
      ,#''                                            '''#######################'''  
     '                                                          ''''####''''         
             ,#######,   #######,   ,#######,      ##                                
            ,#'     '#,  ##    ##  ,#'     '#,    #''#        ######   ,####,        
            ##       ##  ##   ,#'  ##            #'  '#       #        #'  '#        
            ##       ##  #######   ##           ,######,      #####,   #    #        
            '#,     ,#'  ##    ##  '#,     ,#' ,#      #,         ##   #,  ,#        
             '#######'   ##     ##  '#######'  #'      '#     #####' # '####'        



                  #######################################################
                  #                        -***-                        #
                  #          Department of theory and spectroscopy      #
                  #    Directorship and core code : Frank Neese         #
                  #        Max Planck Institute fuer Kohlenforschung    #
                  #                Kaiser Wilhelm Platz 1               #
                  #                 D-45470 Muelheim/Ruhr               #
                  #                      Germany                        #
                  #                                                     #
                  #                  All rights reserved                #
                  #                        -***-                        #
                  #######################################################


                         Program Version 5.0.0 -  RELEASE  -
                                (SVN: $Rev: 19529$)
                ($Date: 2021-06-28 11:36:33 +0200 (Mo, 28 Jun 2021) $)


 With contributions from (in alphabetic order):
   Daniel Aravena         : Magnetic Suceptibility
   Michael Atanasov       : Ab Initio Ligand Field Theory (pilot matlab implementation)
   Alexander A. Auer      : GIAO ZORA, VPT2 properties, NMR spectrum
   Ute Becker             : Parallelization
   Giovanni Bistoni       : ED, misc. LED, open-shell LED, HFLD
   Martin Brehm           : Molecular dynamics
   Dmytro Bykov           : SCF Hessian
   Vijay G. Chilkuri      : MRCI spin determinant printing, contributions to CSF-ICE
   Dipayan Datta          : RHF DLPNO-CCSD density
   Achintya Kumar Dutta   : EOM-CC, STEOM-CC
   Dmitry Ganyushin       : Spin-Orbit,Spin-Spin,Magnetic field MRCI
   Miquel Garcia          : C-PCM Hessian, Gaussian charge scheme
   Yang Guo               : DLPNO-NEVPT2, F12-NEVPT2, CIM, IAO-localization
   Andreas Hansen         : Spin unrestricted coupled pair/coupled cluster methods
   Benjamin Helmich-Paris : MC-RPA, TRAH-SCF, COSX integrals
   Lee Huntington         : MR-EOM, pCC
   Robert Izsak           : Overlap fitted RIJCOSX, COSX-SCS-MP3, EOM
   Marcus Kettner         : VPT2
   Christian Kollmar      : KDIIS, OOCD, Brueckner-CCSD(T), CCSD density, CASPT2, CASPT2-K
   Simone Kossmann        : Meta GGA functionals, TD-DFT gradient, OOMP2, MP2 Hessian
   Martin Krupicka        : Initial AUTO-CI
   Lucas Lang             : DCDCAS
   Marvin Lechner         : AUTO-CI (C++ implementation), FIC-MRCC
   Dagmar Lenk            : GEPOL surface, SMD
   Dimitrios Liakos       : Extrapolation schemes; Compound Job, initial MDCI parallelization
   Dimitrios Manganas     : Further ROCIS development; embedding schemes
   Dimitrios Pantazis     : SARC Basis sets
   Anastasios Papadopoulos: AUTO-CI, single reference methods and gradients
   Taras Petrenko         : DFT Hessian,TD-DFT gradient, ASA, ECA, R-Raman, ABS, FL, XAS/XES, NRVS
   Peter Pinski           : DLPNO-MP2, DLPNO-MP2 Gradient
   Christoph Reimann      : Effective Core Potentials
   Marius Retegan         : Local ZFS, SOC
   Christoph Riplinger    : Optimizer, TS searches, QM/MM, DLPNO-CCSD(T), (RO)-DLPNO pert. Triples
   Tobias Risthaus        : Range-separated hybrids, TD-DFT gradient, RPA, STAB
   Michael Roemelt        : Original ROCIS implementation
   Masaaki Saitow         : Open-shell DLPNO-CCSD energy and density
   Barbara Sandhoefer     : DKH picture change effects
   Avijit Sen             : IP-ROCIS
   Kantharuban Sivalingam : CASSCF convergence, NEVPT2, FIC-MRCI
   Bernardo de Souza      : ESD, SOC TD-DFT
   Georgi Stoychev        : AutoAux, RI-MP2 NMR
   Willem Van den Heuvel  : Paramagnetic NMR
   Boris Wezisla          : Elementary symmetry handling
   Frank Wennmohs         : Technical directorship


 We gratefully acknowledge several colleagues who have allowed us to
 interface, adapt or use parts of their codes:
   Stefan Grimme, W. Hujo, H. Kruse, P. Pracht,  : VdW corrections, initial TS optimization,
                  C. Bannwarth, S. Ehlert          DFT functionals, gCP, sTDA/sTD-DF
   Ed Valeev, F. Pavosevic, A. Kumar             : LibInt (2-el integral package), F12 methods
   Garnet Chan, S. Sharma, J. Yang, R. Olivares  : DMRG
   Ulf Ekstrom                                   : XCFun DFT Library
   Mihaly Kallay                                 : mrcc  (arbitrary order and MRCC methods)
   Jiri Pittner, Ondrej Demel                    : Mk-CCSD
   Frank Weinhold                                : gennbo (NPA and NBO analysis)
   Christopher J. Cramer and Donald G. Truhlar   : smd solvation model
   Lars Goerigk                                  : TD-DFT with DH, B97 family of functionals
   V. Asgeirsson, H. Jonsson                     : NEB implementation
   FAccTs GmbH                                   : IRC, NEB, NEB-TS, DLPNO-Multilevel, CI-OPT
                                                   MM, QMMM, 2- and 3-layer-ONIOM, Crystal-QMMM,
                                                   LR-CPCM, SF, NACMEs, symmetry and pop. for TD-DFT,
                                                   nearIR, NL-DFT gradient (VV10), updates on ESD,
                                                   ML-optimized integration grids
   S Lehtola, MJT Oliveira, MAL Marques          : LibXC Library
   Liviu Ungur et al                             : ANISO software


 Your calculation uses the libint2 library for the computation of 2-el integrals
 For citations please refer to: http://libint.valeyev.net

 Your ORCA version has been built with support for libXC version: 5.1.0
 For citations please refer to: https://tddft.org/programs/libxc/

 This ORCA versions uses:
   CBLAS   interface :  Fast vector & matrix operations
   LAPACKE interface :  Fast linear algebra routines
   SCALAPACK package :  Parallel linear algebra routines
   Shared memory     :  Shared parallel matrices
   BLAS/LAPACK       :  OpenBLAS 0.3.15  USE64BITINT DYNAMIC_ARCH NO_AFFINITY Haswell SINGLE_THREADED
        Core in use  :  Haswell
   Copyright (c) 2011-2014, The OpenBLAS Project




***************************************
The coordinates will be read from file: D6.xyz
***************************************


Your calculation utilizes the atom-pairwise dispersion correction
with the zero-damping scheme (D30)
Cite in your paper:
S.Grimme, J.Antony, S.Ehrlich and H.Krieg, J.Chem.Phys., 132, (2010), 154104 
   

XCFun DFT library Copyright 2009-2010 Ulf Ekstrom and contributors.
See http://admol.org/xcfun for more information.
This is free software; see the source code for copying conditions.
There is ABSOLUTELY NO WARRANTY; not even for MERCHANTABILITY or FITNESS FOR A PARTICULAR PURPOSE.
For details see the documentation.
Scientific users of this library should cite U. Ekstrom, L. Visscher, R. Bast, A. J. Thorvaldsen and K. Ruud;
J.Chem.Theor.Comp. 2010, DOI: 10.1021/ct100117s
XCFun Version 0.99 

================================================================================

----- Orbital basis set information -----
Your calculation utilizes the basis: def2-SVPD
   F. Weigend and R. Ahlrichs, Phys. Chem. Chem. Phys. 7, 3297 (2005).
   D. Rappoport and F. Furche, J. Chem. Phys. 133 134105 (2010).

----- AuxJ basis set information -----
Your calculation utilizes the auxiliary basis: def2/J
   F. Weigend, Phys. Chem. Chem. Phys. 8, 1057 (2006).

================================================================================
                                        WARNINGS
                       Please study these warnings very carefully!
================================================================================


INFO   : the flag for use of the SHARK integral package has been found!

================================================================================
                                       INPUT FILE
================================================================================
NAME = D6_wb97.com
|  1> !wB97X-D3 RIJCOSX def2-SVPD def2/J TightSCF CPCM(Water) xyzfile       
|  2> 
|  3> *xyzfile 0 1 D6.xyz
|  4> 
|  5> %MaxCore 64000
|  6> 
|  7> %pal nprocs 18                                                                                                                                                  
|  8> end  
|  9> 
| 10> %scf
| 11>   MaxIter 150
| 12> end
| 13> 
| 14> 
| 15>                          ****END OF INPUT****
================================================================================

                       ****************************
                       * Single Point Calculation *
                       ****************************

---------------------------------
CARTESIAN COORDINATES (ANGSTROEM)
---------------------------------
  C      2.916324   -1.242589   -1.543125
  C      0.704661    1.443129   -4.503630
  C      1.728539    1.424320   -5.639443
  H      2.646718    1.953794   -5.381054
  H      1.299916    1.930613   -6.503614
  S      2.252625   -0.188115   -6.271840
  C      3.466585   -1.590971   -2.889082
  N      4.652275   -1.143164   -3.259692
  C      2.752264   -2.292043   -3.728029
  H      1.778364   -2.489604   -3.512738
  H      2.948612   -2.208544   -4.716813
  H      5.146723   -0.512508   -2.633852
  H      4.783030   -1.007203   -4.253498
  O      3.562607   -0.444464   -5.631552
  O      2.344944   -0.033742   -7.696501
  C      2.804084    0.290698   -1.359243
  C      1.052550    0.695659   -3.214915
  H     -0.232483    1.032925   -4.884449
  H      0.511700    2.495794   -4.267966
  C      2.388380    1.093669   -2.597108
  H      3.763425    0.674718   -0.999889
  H      2.094788    0.461222   -0.545756
  F      1.266058   -1.159177   -5.805365
  H      3.167316    1.013242   -3.359430
  H      2.357690    2.149375   -2.310997
  H      1.039284   -0.368429   -3.449329
  H      0.250787    0.865605   -2.488283
  H      1.940472   -1.716529   -1.441161
  H      3.558569   -1.663433   -0.766371

----------------------------
CARTESIAN COORDINATES (A.U.)
----------------------------
  NO LB      ZA    FRAG     MASS         X           Y           Z
   0 C     6.0000    0    12.011    5.511054   -2.348154   -2.916084
   1 C     6.0000    0    12.011    1.331617    2.727119   -8.510627
   2 C     6.0000    0    12.011    3.266466    2.691575  -10.657002
   3 H     1.0000    0     1.008    5.001573    3.692135  -10.168719
   4 H     1.0000    0     1.008    2.456486    3.648330  -12.290050
   5 S    16.0000    0    32.060    4.256845   -0.355485  -11.852059
   6 C     6.0000    0    12.011    6.550897   -3.006500   -5.459573
   7 N     7.0000    0    14.007    8.791525   -2.160266   -6.159925
   8 C     6.0000    0    12.011    5.201026   -4.331334   -7.044953
   9 H     1.0000    0     1.008    3.360621   -4.704669   -6.638113
  10 H     1.0000    0     1.008    5.572070   -4.173543   -8.913484
  11 H     1.0000    0     1.008    9.725897   -0.968501   -4.977259
  12 H     1.0000    0     1.008    9.038617   -1.903337   -8.037945
  13 O     8.0000    0    15.999    6.732352   -0.839915  -10.642091
  14 O     8.0000    0    15.999    4.431301   -0.063764  -14.544279
  15 C     6.0000    0    12.011    5.298951    0.549339   -2.568597
  16 C     6.0000    0    12.011    1.989032    1.314604   -6.075308
  17 H     1.0000    0     1.008   -0.439329    1.951946   -9.230272
  18 H     1.0000    0     1.008    0.966972    4.716368   -8.065286
  19 C     6.0000    0    12.011    4.513384    2.066735   -4.907822
  20 H     1.0000    0     1.008    7.111842    1.275032   -1.889516
  21 H     1.0000    0     1.008    3.958575    0.871583   -1.031329
  22 F     9.0000    0    18.998    2.392504   -2.190526  -10.970549
  23 H     1.0000    0     1.008    5.985361    1.914750   -6.348402
  24 H     1.0000    0     1.008    4.455389    4.061730   -4.367151
  25 H     1.0000    0     1.008    1.963961   -0.696229   -6.518287
  26 H     1.0000    0     1.008    0.473919    1.635756   -4.702174
  27 H     1.0000    0     1.008    3.666960   -3.243770   -2.723400
  28 H     1.0000    0     1.008    6.724720   -3.143433   -1.448231

--------------------------------
INTERNAL COORDINATES (ANGSTROEM)
--------------------------------
 C      0   0   0     0.000000000000     0.00000000     0.00000000
 C      1   0   0     4.568273793968     0.00000000     0.00000000
 C      2   1   0     1.529297825534    98.62404527     0.00000000
 H      3   2   1     1.090944370706   112.43319093   291.35935600
 H      3   2   1     1.089423309889   108.66365748   173.02891256
 S      3   2   1     1.809568454434   117.67249747    54.59879179
 C      1   2   3     1.495244269354    74.44217903   337.12806402
 N      7   1   2     1.320508752421   120.26891390   103.10495601
 C      7   1   2     1.305981940434   120.13503729   286.08645689
 H      9   7   1     1.016790325068   119.48364563     8.33019225
 H      9   7   1     1.011542432359   118.51921329   155.66854205
 H      8   7   1     1.016799188787   118.30856157   356.12171918
 H      8   7   1     1.011549184661   115.93680355   208.86906715
 O      6   3   2     1.480451351977   105.03550261   259.70514125
 O      6   3   2     1.435971529587   105.63739582   140.00826415
 C      1   2   3     1.548347683709    57.29458071   106.04454887
 C      2   1   3     1.529877614442    19.39834396   186.99389249
 H      2   1   3     1.091572130247   114.88526166   114.65620169
 H      2   1   3     1.095844940799   120.70540048   244.49829987
 C     17   2   1     1.524643581099   114.39523607    61.63043835
 H     16   1   2     1.094048234703   108.84673673   220.49718341
 H     16   1   2     1.092676175276   106.85886165   106.82959772
 F      6   3   2     1.460778685441   106.56716191    16.57397008
 H     20  17   2     1.092861154855   108.82111327   307.33588892
 H     20  17   2     1.094219453583   109.46571263    62.60087563
 H     17   2   1     1.089682404302   107.04520605   298.66165453
 H     17   2   1     1.095307766624   108.45540496   184.02122912
 H      1   2   3     1.089634927768    83.26793994   226.06030881
 H      1   2   3     1.092215339711   166.43145148    86.04509137

---------------------------
INTERNAL COORDINATES (A.U.)
---------------------------
 C      0   0   0     0.000000000000     0.00000000     0.00000000
 C      1   0   0     8.632786375368     0.00000000     0.00000000
 C      2   1   0     2.889954067461    98.62404527     0.00000000
 H      3   2   1     2.061586087978   112.43319093   291.35935600
 H      3   2   1     2.058711699600   108.66365748   173.02891256
 S      3   2   1     3.419588799463   117.67249747    54.59879179
 C      1   2   3     2.825602172394    74.44217903   337.12806402
 N      7   1   2     2.495399899522   120.26891390   103.10495601
 C      7   1   2     2.467948203268   120.13503729   286.08645689
 H      9   7   1     1.921455250000   119.48364563     8.33019225
 H      9   7   1     1.911538170000   118.51921329   155.66854205
 H      8   7   1     1.921472000000   118.30856157   356.12171918
 H      8   7   1     1.911550930000   115.93680355   208.86906715
 O      6   3   2     2.797647609830   105.03550261   259.70514125
 O      6   3   2     2.713592927028   105.63739582   140.00826415
 C      1   2   3     2.925953082301    57.29458071   106.04454887
 C      2   1   3     2.891049709713    19.39834396   186.99389249
 H      2   1   3     2.062772381588   114.88526166   114.65620169
 H      2   1   3     2.070846823354   120.70540048   244.49829987
 C     17   2   1     2.881158820119   114.39523607    61.63043835
 H     16   1   2     2.067451540889   108.84673673   220.49718341
 H     16   1   2     2.064858724332   106.85886165   106.82959772
 F      6   3   2     2.760471657752   106.56716191    16.57397008
 H     20  17   2     2.065208285076   108.82111327   307.33588892
 H     20  17   2     2.067775097680   109.46571263    62.60087563
 H     17   2   1     2.059201317083   107.04520605   298.66165453
 H     17   2   1     2.069831711276   108.45540496   184.02122912
 H      1   2   3     2.059111599436    83.26793994   226.06030881
 H      1   2   3     2.063987871322   166.43145148    86.04509137

---------------------
BASIS SET INFORMATION
---------------------
There are 6 groups of distinct atoms

 Group   1 Type C   : 8s4p2d contracted to 4s2p2d pattern {5111/31/11}
 Group   2 Type H   : 4s2p contracted to 2s2p pattern {31/11}
 Group   3 Type S   : 11s8p2d contracted to 5s4p2d pattern {53111/5111/11}
 Group   4 Type N   : 8s4p2d contracted to 4s2p2d pattern {5111/31/11}
 Group   5 Type O   : 8s5p2d contracted to 4s3p2d pattern {5111/311/11}
 Group   6 Type F   : 8s5p2d contracted to 4s3p2d pattern {5111/311/11}

Atom   0C    basis set group =>   1
Atom   1C    basis set group =>   1
Atom   2C    basis set group =>   1
Atom   3H    basis set group =>   2
Atom   4H    basis set group =>   2
Atom   5S    basis set group =>   3
Atom   6C    basis set group =>   1
Atom   7N    basis set group =>   4
Atom   8C    basis set group =>   1
Atom   9H    basis set group =>   2
Atom  10H    basis set group =>   2
Atom  11H    basis set group =>   2
Atom  12H    basis set group =>   2
Atom  13O    basis set group =>   5
Atom  14O    basis set group =>   5
Atom  15C    basis set group =>   1
Atom  16C    basis set group =>   1
Atom  17H    basis set group =>   2
Atom  18H    basis set group =>   2
Atom  19C    basis set group =>   1
Atom  20H    basis set group =>   2
Atom  21H    basis set group =>   2
Atom  22F    basis set group =>   6
Atom  23H    basis set group =>   2
Atom  24H    basis set group =>   2
Atom  25H    basis set group =>   2
Atom  26H    basis set group =>   2
Atom  27H    basis set group =>   2
Atom  28H    basis set group =>   2
---------------------------------
AUXILIARY/J BASIS SET INFORMATION
---------------------------------
There are 6 groups of distinct atoms

 Group   1 Type C   : 12s5p4d2f1g contracted to 6s4p3d1f1g pattern {711111/2111/211/2/1}
 Group   2 Type H   : 5s2p1d contracted to 3s1p1d pattern {311/2/1}
 Group   3 Type S   : 14s5p5d2f1g contracted to 8s4p3d1f1g pattern {71111111/2111/311/2/1}
 Group   4 Type N   : 12s5p4d2f1g contracted to 6s4p3d1f1g pattern {711111/2111/211/2/1}
 Group   5 Type O   : 12s5p4d2f1g contracted to 6s4p3d1f1g pattern {711111/2111/211/2/1}
 Group   6 Type F   : 12s5p4d2f1g contracted to 6s4p3d1f1g pattern {711111/2111/211/2/1}

Atom   0C    basis set group =>   1
Atom   1C    basis set group =>   1
Atom   2C    basis set group =>   1
Atom   3H    basis set group =>   2
Atom   4H    basis set group =>   2
Atom   5S    basis set group =>   3
Atom   6C    basis set group =>   1
Atom   7N    basis set group =>   4
Atom   8C    basis set group =>   1
Atom   9H    basis set group =>   2
Atom  10H    basis set group =>   2
Atom  11H    basis set group =>   2
Atom  12H    basis set group =>   2
Atom  13O    basis set group =>   5
Atom  14O    basis set group =>   5
Atom  15C    basis set group =>   1
Atom  16C    basis set group =>   1
Atom  17H    basis set group =>   2
Atom  18H    basis set group =>   2
Atom  19C    basis set group =>   1
Atom  20H    basis set group =>   2
Atom  21H    basis set group =>   2
Atom  22F    basis set group =>   6
Atom  23H    basis set group =>   2
Atom  24H    basis set group =>   2
Atom  25H    basis set group =>   2
Atom  26H    basis set group =>   2
Atom  27H    basis set group =>   2
Atom  28H    basis set group =>   2


           ************************************************************
           *        Program running with 18 parallel MPI-processes    *
           *              working on a common directory               *
           ************************************************************
------------------------------------------------------------------------------
                           ORCA GTO INTEGRAL CALCULATION
                           -- RI-GTO INTEGRALS CHOSEN --
------------------------------------------------------------------------------
------------------------------------------------------------------------------
                   ___                                                        
                  /   \      - P O W E R E D   B Y -                         
                 /     \                                                     
                 |  |  |   _    _      __       _____    __    __             
                 |  |  |  | |  | |    /  \     |  _  \  |  |  /  |          
                  \  \/   | |  | |   /    \    | | | |  |  | /  /          
                 / \  \   | |__| |  /  /\  \   | |_| |  |  |/  /          
                |  |  |   |  __  | /  /__\  \  |    /   |      \           
                |  |  |   | |  | | |   __   |  |    \   |  |\   \          
                \     /   | |  | | |  |  |  |  | |\  \  |  | \   \       
                 \___/    |_|  |_| |__|  |__|  |_| \__\ |__|  \__/        
                                                                              
                      - O R C A' S   B I G   F R I E N D -                    
                                      &                                       
                       - I N T E G R A L  F E E D E R -                       
                                                                              
 v1 FN, 2020, v2 2021                                                         
------------------------------------------------------------------------------


Reading SHARK input file D6_wb97.SHARKINP.tmp ... ok
----------------------
SHARK INTEGRAL PACKAGE
----------------------

Number of atoms                             ...     29
Number of basis functions                   ...    404
Number of shells                            ...    174
Maximum angular momentum                    ...      2
Integral batch strategy                     ... SHARK/LIBINT Hybrid
RI-J (if used) integral strategy            ... SPLIT-RIJ (Revised 2003 algorithm where possible)
Printlevel                                  ...      1
Contraction scheme used                     ... SEGMENTED contraction
Coulomb Range Separation                    ... NOT USED
Exchange Range Separation                   ... Long Range
   Mu parameter                             ...  0.250000
   Scaling (regular/separated)              ...  0.195728  0.804272
Finite Nucleus Model                        ... NOT USED
Auxiliary Coulomb fitting basis             ... AVAILABLE
   # of basis functions in Aux-J            ...    815
   # of shells in Aux-J                     ...    277
   Maximum angular momentum in Aux-J        ...      4
Auxiliary J/K fitting basis                 ... NOT available
Auxiliary Correlation fitting basis         ... NOT available
Auxiliary 'external' fitting basis          ... NOT available
Integral threshold                          ...     2.500000e-11
Primitive cut-off                           ...     2.500000e-12
Primitive pair pre-selection threshold      ...     2.500000e-12

Calculating pre-screening integrals         ... done (  0.1 sec) Dimension = 174
Organizing shell pair data                  ... done (  0.1 sec)
Shell pair information
Total number of shell pairs                 ...     15225
Shell pairs after pre-screening             ...     14372
Total number of primitive shell pairs       ...     41843
Primitive shell pairs kept                  ...     30394
          la=0 lb=0:   3416 shell pairs
          la=1 lb=0:   5042 shell pairs
          la=1 lb=1:   1913 shell pairs
          la=2 lb=0:   2098 shell pairs
          la=2 lb=1:   1565 shell pairs
          la=2 lb=2:    338 shell pairs

Calculating one electron integrals          ... done (  0.0 sec)
Calculating RI/J V-Matrix + Cholesky decomp.... done (  0.1 sec)
Calculating Nuclear repulsion               ... done (  0.0 sec) ENN=   1086.607354278098 Eh

SHARK setup successfully completed in   0.4 seconds

Maximum memory used throughout the entire GTOINT-calculation: 22.7 MB


           ************************************************************
           *        Program running with 18 parallel MPI-processes    *
           *              working on a common directory               *
           ************************************************************
-------------------------------------------------------------------------------
                                 ORCA SCF
-------------------------------------------------------------------------------

------------
SCF SETTINGS
------------
Hamiltonian:
 Density Functional     Method          .... DFT(GTOs)
 Exchange Functional    Exchange        .... WB97X-D3
 Correlation Functional Correlation     .... WB97X-D3
 Gradients option       PostSCFGGA      .... off
 Hybrid DFT is turned on
   Fraction HF Exchange ScalHFX         ....  0.195728
   Scaling of DF-GGA-X  ScalDFX         ....  0.000000
   Scaling of DF-GGA-C  ScalDFC         ....  1.000000
   Scaling of DF-LDA-C  ScalLDAC        ....  1.000000
   Perturbative correction              ....  0.000000
   Density functional embedding theory  .... OFF
 Long-range corrected/Screened/Range-Separated Hybrid DFT is turned on
   Amount of maximum screened exact exchange              ....  0.804272
   Range separation parameter mu (erf(mu*r12)/r12)        ....  0.250000
 RI-approximation to the Coulomb term is turned on
   Number of AuxJ basis functions       .... 815
   RIJ-COSX (HFX calculated with COS-X)).... on


General Settings:
 Integral files         IntName         .... D6_wb97
 Hartree-Fock type      HFTyp           .... RHF
 Total Charge           Charge          ....    0
 Multiplicity           Mult            ....    1
 Number of Electrons    NEL             ....  112
 Basis Dimension        Dim             ....  404
 Nuclear Repulsion      ENuc            ....   1086.6073542781 Eh

Convergence Acceleration:
 DIIS                   CNVDIIS         .... on
   Start iteration      DIISMaxIt       ....    12
   Startup error        DIISStart       ....  0.200000
   # of expansion vecs  DIISMaxEq       ....     5
   Bias factor          DIISBfac        ....   1.050
   Max. coefficient     DIISMaxC        ....  10.000
 Trust-Rad. Augm. Hess. CNVTRAH         .... auto
   Auto Start mean grad. ratio tolernc. ....  1.125000
   Auto Start start iteration           ....    20
   Auto Start num. interpolation iter.  ....    10
   Max. Number of Micro iterations      ....    16
   Max. Number of Macro iterations      .... Maxiter - #DIIS iter
   Number of Davidson start vectors     ....     2
   Converg. threshold I  (grad. norm)   ....   1.000e-05
   Converg. threshold II (energy diff.) ....   1.000e-08
   Grad. Scal. Fac. for Micro threshold ....   0.100
   Minimum threshold for Micro iter.    ....   0.010
   NR start threshold (gradient norm)   ....   0.001
   Initial trust radius                 ....   0.400
   Minimum AH scaling param. (alpha)    ....   1.000
   Maximum AH scaling param. (alpha)    .... 1000.000
   Orbital update algorithm             .... Taylor
   White noise on init. David. guess    .... on
   Maximum white noise                  ....   0.010
   Quad. conv. algorithm                .... NR
 SOSCF                  CNVSOSCF        .... on
   Start iteration      SOSCFMaxIt      ....   150
   Startup grad/error   SOSCFStart      ....  0.003300
 Level Shifting         CNVShift        .... on
   Level shift para.    LevelShift      ....    0.2500
   Turn off err/grad.   ShiftErr        ....    0.0010
 Zerner damping         CNVZerner       .... off
 Static damping         CNVDamp         .... on
   Fraction old density DampFac         ....    0.7000
   Max. Damping (<1)    DampMax         ....    0.9800
   Min. Damping (>=0)   DampMin         ....    0.0000
   Turn off err/grad.   DampErr         ....    0.1000
 Fernandez-Rico         CNVRico         .... off

SCF Procedure:
 Maximum # iterations   MaxIter         ....   150
 SCF integral mode      SCFMode         .... Direct
   Integral package                     .... SHARK and LIBINT hybrid scheme
 Reset frequency        DirectResetFreq ....    20
 Integral Threshold     Thresh          ....  2.500e-11 Eh
 Primitive CutOff       TCut            ....  2.500e-12 Eh

Convergence Tolerance:
 Convergence Check Mode ConvCheckMode   .... Total+1el-Energy
 Convergence forced     ConvForced      .... 0
 Energy Change          TolE            ....  1.000e-08 Eh
 1-El. energy change                    ....  1.000e-05 Eh
 Orbital Gradient       TolG            ....  1.000e-05
 Orbital Rotation angle TolX            ....  1.000e-05
 DIIS Error             TolErr          ....  5.000e-07


Diagonalization of the overlap matrix:
Smallest eigenvalue                        ... 2.576e-05
Time for diagonalization                   ...    0.041 sec
Threshold for overlap eigenvalues          ... 1.000e-08
Number of eigenvalues below threshold      ... 0
Time for construction of square roots      ...    0.062 sec
Total time needed                          ...    0.105 sec

Time for model grid setup =    0.153 sec

------------------------------
INITIAL GUESS: MODEL POTENTIAL
------------------------------
Loading Hartree-Fock densities                     ... done
Calculating cut-offs                               ... done
Initializing the effective Hamiltonian             ... done
Setting up the integral package (SHARK)            ... done
Starting the Coulomb interaction                   ... done (   0.1 sec)
Reading the grid                                   ... done
Mapping shells                                     ... done
Starting the XC term evaluation                    ... done (   0.1 sec)
  promolecular density results
     # of electrons  =    111.991624351
     EX              =   -103.633345281
     EC              =     -3.882432965
     EX+EC           =   -107.515778246
Transforming the Hamiltonian                       ... done (   0.0 sec)
Diagonalizing the Hamiltonian                      ... done (   0.0 sec)
Back transforming the eigenvectors                 ... done (   0.0 sec)
Now organizing SCF variables                       ... done
                      ------------------
                      INITIAL GUESS DONE (   0.4 sec)
                      ------------------
-------------------
DFT GRID GENERATION
-------------------

General Integration Accuracy     IntAcc      ... 4.388
Radial Grid Type                 RadialGrid  ... OptM3 with GC (2021)
Angular Grid (max. ang.)         AngularGrid ... 4 (Lebedev-302)
Angular grid pruning method      GridPruning ... 4 (adaptive)
Weight generation scheme         WeightScheme... Becke
Basis function cutoff            BFCut       ... 1.0000e-11
Integration weight cutoff        WCut        ... 1.0000e-14
Angular grids for H and He will be reduced by one unit
Partially contracted basis set               ... off
Rotationally invariant grid construction     ... off

Total number of grid points                  ...   133151
Total number of batches                      ...     2098
Average number of points per batch           ...       63
Average number of grid points per atom       ...     4591
Time for grid setup =    0.708 sec

--------------------
COSX GRID GENERATION
--------------------

GRIDX 1
-------
General Integration Accuracy     IntAcc      ... 3.816
Radial Grid Type                 RadialGrid  ... OptM3 with GC (2021)
Angular Grid (max. ang.)         AngularGrid ... 1 (Lebedev-50)
Angular grid pruning method      GridPruning ... 4 (adaptive)
Weight generation scheme         WeightScheme... Becke
Basis function cutoff            BFCut       ... 1.0000e-11
Integration weight cutoff        WCut        ... 1.0000e-14
Angular grids for H and He will be reduced by one unit
Partially contracted basis set               ... on
Rotationally invariant grid construction     ... off

Total number of grid points                  ...    16544
Total number of batches                      ...      277
Average number of points per batch           ...       59
Average number of grid points per atom       ...      570
UseSFitting                                  ... on

GRIDX 2
-------
General Integration Accuracy     IntAcc      ... 4.020
Radial Grid Type                 RadialGrid  ... OptM3 with GC (2021)
Angular Grid (max. ang.)         AngularGrid ... 2 (Lebedev-110)
Angular grid pruning method      GridPruning ... 4 (adaptive)
Weight generation scheme         WeightScheme... Becke
Basis function cutoff            BFCut       ... 1.0000e-11
Integration weight cutoff        WCut        ... 1.0000e-14
Angular grids for H and He will be reduced by one unit
Partially contracted basis set               ... on
Rotationally invariant grid construction     ... off

Total number of grid points                  ...    36909
Total number of batches                      ...      592
Average number of points per batch           ...       62
Average number of grid points per atom       ...     1273
UseSFitting                                  ... on

GRIDX 3
-------
General Integration Accuracy     IntAcc      ... 4.338
Radial Grid Type                 RadialGrid  ... OptM3 with GC (2021)
Angular Grid (max. ang.)         AngularGrid ... 3 (Lebedev-194)
Angular grid pruning method      GridPruning ... 4 (adaptive)
Weight generation scheme         WeightScheme... Becke
Basis function cutoff            BFCut       ... 1.0000e-11
Integration weight cutoff        WCut        ... 1.0000e-14
Angular grids for H and He will be reduced by one unit
Partially contracted basis set               ... on
Rotationally invariant grid construction     ... off

Total number of grid points                  ...    83205
Total number of batches                      ...     1315
Average number of points per batch           ...       63
Average number of grid points per atom       ...     2869
UseSFitting                                  ... on

Time for X-Grid setup             =    0.686 sec


--------------------
CPCM SOLVATION MODEL
--------------------
CPCM parameters:
  Epsilon                                         ...      80.4000
  Refrac                                          ...       1.3300
  Rsolv                                           ...       1.3000
  Surface type                                    ... GAUSSIAN VDW
  Epsilon function type                           ...         CPCM
Radii:
 Radius for C  used is    3.8550 Bohr (=   2.0400 Ang.)
 Radius for H  used is    2.4944 Bohr (=   1.3200 Ang.)
 Radius for S  used is    4.0818 Bohr (=   2.1600 Ang.)
 Radius for N  used is    3.5149 Bohr (=   1.8600 Ang.)
 Radius for O  used is    3.4469 Bohr (=   1.8240 Ang.)
 Radius for F  used is    3.3335 Bohr (=   1.7640 Ang.)
Calculating surface                               ...        done! (  0.0s)
GEPOL surface points                              ...         1477
GEPOL Volume                                      ...    1580.7958
GEPOL Surface-area                                ...     799.5203
Calculating surface distance matrix               ...        done! (  0.0s)
Performing Cholesky decomposition & store         ...        done! (  0.2s)
Overall time for CPCM initialization              ...                 0.2s
--------------
SCF ITERATIONS
--------------
ITER       Energy         Delta-E        Max-DP      RMS-DP      [F,P]     Damp
               ***  Starting incremental Fock matrix formation  ***
  0  -1016.3674344695   0.000000000000 0.30110858  0.00355984  0.2606585 0.7000
  1  -1016.5952263366  -0.227791867025 0.31261669  0.00256236  0.1186859 0.7000
                               ***Turning on DIIS***
  2  -1016.7001084118  -0.104882075238 0.68822465  0.00518404  0.0605717 0.0000
  3  -1016.8703367189  -0.170228307080 0.15753480  0.00165540  0.0618241 0.0000
  4  -1016.8985458871  -0.028209168245 0.03126249  0.00036003  0.0109041 0.0000
  5  -1016.8994163613  -0.000870474143 0.04738225  0.00021632  0.0055481 0.0000
                      *** Initiating the SOSCF procedure ***
                           *** Shutting down DIIS ***
                      *** Re-Reading the Fockian *** 
                      *** Removing any level shift *** 
ITER      Energy       Delta-E        Grad      Rot      Max-DP    RMS-DP
  6  -1016.89954675  -0.0001303928  0.000587  0.000587  0.065860  0.000264
               *** Restarting incremental Fock matrix formation ***
  7  -1016.89961859  -0.0000718377  0.000099  0.000208  0.028165  0.000120
  8  -1016.89962052  -0.0000019241  0.000141  0.000244  0.010910  0.000046
  9  -1016.89962210  -0.0000015834  0.000033  0.000094  0.005951  0.000024
 10  -1016.89962215  -0.0000000546  0.000010  0.000018  0.001933  0.000008
 11  -1016.89962218  -0.0000000215  0.000004  0.000006  0.000387  0.000002
                  ***Gradient check signals convergence***
              ***Rediagonalizing the Fockian in SOSCF/NRSCF***

               *****************************************************
               *                     SUCCESS                       *
               *           SCF CONVERGED AFTER  12 CYCLES          *
               *****************************************************

Old exchange energy                            =    -32.702093321 Eh
New exchange energy                            =    -32.702149392 Eh
Exchange energy change after final integration =     -0.000056071 Eh
Total energy after final integration           =  -1016.899678264 Eh
Final COS-X integration done in                =     9.121 sec

----------------
TOTAL SCF ENERGY
----------------

Total Energy       :        -1016.89967826 Eh          -27671.24702 eV

Components:
Nuclear Repulsion  :         1086.60735428 Eh           29568.08932 eV
Electronic Energy  :        -2103.50703254 Eh          -57239.33635 eV
One Electron Energy:        -3550.87880552 Eh          -96624.32458 eV
Two Electron Energy:         1447.37177298 Eh           39384.98824 eV
Max COSX asymmetry :            0.00001393 Eh               0.00038 eV
CPCM Dielectric    :           -0.02222511 Eh              -0.60478 eV

Virial components:
Potential Energy   :        -2026.91501275 Eh          -55155.16153 eV
Kinetic Energy     :         1010.01533449 Eh           27483.91451 eV
Virial Ratio       :            2.00681608


DFT components:
N(Alpha)           :       56.000091751010 electrons
N(Beta)            :       56.000091751010 electrons
N(Total)           :      112.000183502019 electrons
E(XC)              :      -76.999814465160 Eh       
DFET-embed. en.    :        0.000000000000 Eh       
CPCM Solvation Model Properties:
Surface-charge          :           -0.03113353
Charge-correction       :           -0.00013015 Eh              -0.00354 eV
Free-energy (cav+disp)  :  This term is not implemented in the current solvation scheme

---------------
SCF CONVERGENCE
---------------

  Last Energy change         ...   -1.7042e-08  Tolerance :   1.0000e-08
  Last MAX-Density change    ...    3.1086e-15  Tolerance :   1.0000e-07
  Last RMS-Density change    ...    3.3921e-17  Tolerance :   5.0000e-09
  Last Orbital Gradient      ...    1.7495e-06  Tolerance :   1.0000e-05
  Last Orbital Rotation      ...    2.9075e-06  Tolerance :   1.0000e-05

             **** THE GBW FILE WAS UPDATED (D6_wb97.gbw) ****
             **** DENSITY D6_wb97.scfp WAS UPDATED ****
             **** ENERGY FILE WAS UPDATED (D6_wb97.en.tmp) ****
             **** THE GBW FILE WAS UPDATED (D6_wb97.gbw) ****
             **** DENSITY D6_wb97.scfp WAS UPDATED ****
----------------
ORBITAL ENERGIES
----------------

  NO   OCC          E(Eh)            E(eV) 
   0   2.0000     -89.242099     -2428.4010 
   1   2.0000     -24.910050      -677.8369 
   2   2.0000     -19.272338      -524.4270 
   3   2.0000     -19.256362      -523.9922 
   4   2.0000     -14.420861      -392.4116 
   5   2.0000     -10.338194      -281.3166 
   6   2.0000     -10.306746      -280.4608 
   7   2.0000     -10.302006      -280.3318 
   8   2.0000     -10.283522      -279.8288 
   9   2.0000     -10.282126      -279.7909 
  10   2.0000     -10.281449      -279.7724 
  11   2.0000     -10.278305      -279.6869 
  12   2.0000     -10.214859      -277.9604 
  13   2.0000      -8.315095      -226.2653 
  14   2.0000      -6.278822      -170.8554 
  15   2.0000      -6.273021      -170.6976 
  16   2.0000      -6.270648      -170.6330 
  17   2.0000      -1.476655       -40.1818 
  18   2.0000      -1.237675       -33.6788 
  19   2.0000      -1.134786       -30.8791 
  20   2.0000      -1.031488       -28.0682 
  21   2.0000      -0.940115       -25.5818 
  22   2.0000      -0.902547       -24.5595 
  23   2.0000      -0.862492       -23.4696 
  24   2.0000      -0.839239       -22.8369 
  25   2.0000      -0.812712       -22.1150 
  26   2.0000      -0.779200       -21.2031 
  27   2.0000      -0.731369       -19.9016 
  28   2.0000      -0.698255       -19.0005 
  29   2.0000      -0.688385       -18.7319 
  30   2.0000      -0.673577       -18.3289 
  31   2.0000      -0.665974       -18.1221 
  32   2.0000      -0.643167       -17.5015 
  33   2.0000      -0.611164       -16.6306 
  34   2.0000      -0.586226       -15.9520 
  35   2.0000      -0.583645       -15.8818 
  36   2.0000      -0.575833       -15.6692 
  37   2.0000      -0.569544       -15.4981 
  38   2.0000      -0.554778       -15.0963 
  39   2.0000      -0.536309       -14.5937 
  40   2.0000      -0.531452       -14.4615 
  41   2.0000      -0.507573       -13.8118 
  42   2.0000      -0.498976       -13.5778 
  43   2.0000      -0.489715       -13.3258 
  44   2.0000      -0.481607       -13.1052 
  45   2.0000      -0.473265       -12.8782 
  46   2.0000      -0.455230       -12.3874 
  47   2.0000      -0.448622       -12.2076 
  48   2.0000      -0.443158       -12.0589 
  49   2.0000      -0.427244       -11.6259 
  50   2.0000      -0.420067       -11.4306 
  51   2.0000      -0.411070       -11.1858 
  52   2.0000      -0.404234       -10.9998 
  53   2.0000      -0.402488       -10.9522 
  54   2.0000      -0.399154       -10.8615 
  55   2.0000      -0.281962        -7.6726 
  56   0.0000       0.070889         1.9290 
  57   0.0000       0.091122         2.4796 
  58   0.0000       0.093391         2.5413 
  59   0.0000       0.096907         2.6370 
  60   0.0000       0.109059         2.9677 
  61   0.0000       0.118597         3.2272 
  62   0.0000       0.124257         3.3812 
  63   0.0000       0.125717         3.4209 
  64   0.0000       0.134390         3.6569 
  65   0.0000       0.142980         3.8907 
  66   0.0000       0.145905         3.9703 
  67   0.0000       0.150358         4.0915 
  68   0.0000       0.156318         4.2536 
  69   0.0000       0.164185         4.4677 
  70   0.0000       0.174067         4.7366 
  71   0.0000       0.178932         4.8690 
  72   0.0000       0.182352         4.9621 
  73   0.0000       0.187772         5.1095 
  74   0.0000       0.190149         5.1742 
  75   0.0000       0.195633         5.3235 
  76   0.0000       0.204436         5.5630 
  77   0.0000       0.214688         5.8420 
  78   0.0000       0.216269         5.8850 
  79   0.0000       0.224110         6.0984 
  80   0.0000       0.231311         6.2943 
  81   0.0000       0.232452         6.3253 
  82   0.0000       0.240821         6.5531 
  83   0.0000       0.243158         6.6167 
  84   0.0000       0.250520         6.8170 
  85   0.0000       0.259659         7.0657 
  86   0.0000       0.264177         7.1886 
  87   0.0000       0.269042         7.3210 
  88   0.0000       0.272624         7.4185 
  89   0.0000       0.278388         7.5753 
  90   0.0000       0.280697         7.6381 
  91   0.0000       0.286776         7.8036 
  92   0.0000       0.293994         8.0000 
  93   0.0000       0.296813         8.0767 
  94   0.0000       0.302265         8.2250 
  95   0.0000       0.308737         8.4012 
  96   0.0000       0.312780         8.5112 
  97   0.0000       0.315832         8.5942 
  98   0.0000       0.321287         8.7427 
  99   0.0000       0.322083         8.7643 
 100   0.0000       0.331892         9.0312 
 101   0.0000       0.335353         9.1254 
 102   0.0000       0.342940         9.3319 
 103   0.0000       0.346192         9.4204 
 104   0.0000       0.349934         9.5222 
 105   0.0000       0.355071         9.6620 
 106   0.0000       0.363195         9.8831 
 107   0.0000       0.370886        10.0923 
 108   0.0000       0.381861        10.3910 
 109   0.0000       0.387701        10.5499 
 110   0.0000       0.394067        10.7231 
 111   0.0000       0.399475        10.8703 
 112   0.0000       0.400502        10.8982 
 113   0.0000       0.400959        10.9107 
 114   0.0000       0.405929        11.0459 
 115   0.0000       0.408069        11.1041 
 116   0.0000       0.414775        11.2866 
 117   0.0000       0.417264        11.3543 
 118   0.0000       0.427951        11.6451 
 119   0.0000       0.432104        11.7581 
 120   0.0000       0.437959        11.9175 
 121   0.0000       0.440716        11.9925 
 122   0.0000       0.442321        12.0362 
 123   0.0000       0.444339        12.0911 
 124   0.0000       0.449548        12.2328 
 125   0.0000       0.453375        12.3370 
 126   0.0000       0.456234        12.4148 
 127   0.0000       0.463038        12.5999 
 128   0.0000       0.464876        12.6499 
 129   0.0000       0.471653        12.8343 
 130   0.0000       0.475794        12.9470 
 131   0.0000       0.480069        13.0633 
 132   0.0000       0.486942        13.2504 
 133   0.0000       0.495262        13.4768 
 134   0.0000       0.496364        13.5067 
 135   0.0000       0.500420        13.6171 
 136   0.0000       0.504804        13.7364 
 137   0.0000       0.508919        13.8484 
 138   0.0000       0.515523        14.0281 
 139   0.0000       0.516391        14.0517 
 140   0.0000       0.521874        14.2009 
 141   0.0000       0.527210        14.3461 
 142   0.0000       0.531000        14.4493 
 143   0.0000       0.532233        14.4828 
 144   0.0000       0.539033        14.6678 
 145   0.0000       0.545306        14.8385 
 146   0.0000       0.555656        15.1202 
 147   0.0000       0.559304        15.2194 
 148   0.0000       0.560393        15.2491 
 149   0.0000       0.562624        15.3098 
 150   0.0000       0.570930        15.5358 
 151   0.0000       0.571944        15.5634 
 152   0.0000       0.576337        15.6829 
 153   0.0000       0.582555        15.8521 
 154   0.0000       0.587906        15.9977 
 155   0.0000       0.589118        16.0307 
 156   0.0000       0.595295        16.1988 
 157   0.0000       0.601385        16.3645 
 158   0.0000       0.605409        16.4740 
 159   0.0000       0.605948        16.4887 
 160   0.0000       0.608442        16.5565 
 161   0.0000       0.613944        16.7063 
 162   0.0000       0.622632        16.9427 
 163   0.0000       0.633480        17.2379 
 164   0.0000       0.637079        17.3358 
 165   0.0000       0.643445        17.5090 
 166   0.0000       0.647393        17.6165 
 167   0.0000       0.651362        17.7245 
 168   0.0000       0.658017        17.9056 
 169   0.0000       0.660516        17.9735 
 170   0.0000       0.666670        18.1410 
 171   0.0000       0.671502        18.2725 
 172   0.0000       0.675008        18.3679 
 173   0.0000       0.678845        18.4723 
 174   0.0000       0.680575        18.5194 
 175   0.0000       0.684926        18.6378 
 176   0.0000       0.688357        18.7311 
 177   0.0000       0.696865        18.9627 
 178   0.0000       0.702551        19.1174 
 179   0.0000       0.703617        19.1464 
 180   0.0000       0.712843        19.3974 
 181   0.0000       0.715862        19.4796 
 182   0.0000       0.721445        19.6315 
 183   0.0000       0.728661        19.8279 
 184   0.0000       0.740397        20.1472 
 185   0.0000       0.743764        20.2388 
 186   0.0000       0.751115        20.4389 
 187   0.0000       0.754368        20.5274 
 188   0.0000       0.755256        20.5516 
 189   0.0000       0.769182        20.9305 
 190   0.0000       0.773181        21.0393 
 191   0.0000       0.777079        21.1454 
 192   0.0000       0.781724        21.2718 
 193   0.0000       0.785164        21.3654 
 194   0.0000       0.797146        21.6914 
 195   0.0000       0.805379        21.9155 
 196   0.0000       0.813666        22.1410 
 197   0.0000       0.817031        22.2325 
 198   0.0000       0.820516        22.3274 
 199   0.0000       0.821680        22.3590 
 200   0.0000       0.824112        22.4252 
 201   0.0000       0.838351        22.8127 
 202   0.0000       0.843248        22.9459 
 203   0.0000       0.845394        23.0043 
 204   0.0000       0.859759        23.3952 
 205   0.0000       0.872759        23.7490 
 206   0.0000       0.878559        23.9068 
 207   0.0000       0.884665        24.0730 
 208   0.0000       0.893502        24.3134 
 209   0.0000       0.901526        24.5318 
 210   0.0000       0.909412        24.7464 
 211   0.0000       0.911553        24.8046 
 212   0.0000       0.922674        25.1072 
 213   0.0000       0.926659        25.2157 
 214   0.0000       0.938996        25.5514 
 215   0.0000       0.955076        25.9889 
 216   0.0000       0.962115        26.1805 
 217   0.0000       0.967247        26.3201 
 218   0.0000       0.987233        26.8640 
 219   0.0000       0.997543        27.1445 
 220   0.0000       1.019243        27.7350 
 221   0.0000       1.033812        28.1315 
 222   0.0000       1.046314        28.4716 
 223   0.0000       1.060820        28.8664 
 224   0.0000       1.076118        29.2827 
 225   0.0000       1.086654        29.5693 
 226   0.0000       1.098530        29.8925 
 227   0.0000       1.103227        30.0203 
 228   0.0000       1.109117        30.1806 
 229   0.0000       1.122739        30.5513 
 230   0.0000       1.124429        30.5973 
 231   0.0000       1.130459        30.7614 
 232   0.0000       1.138460        30.9791 
 233   0.0000       1.144987        31.1567 
 234   0.0000       1.150570        31.3086 
 235   0.0000       1.159535        31.5526 
 236   0.0000       1.165641        31.7187 
 237   0.0000       1.173303        31.9272 
 238   0.0000       1.177118        32.0310 
 239   0.0000       1.186845        32.2957 
 240   0.0000       1.201673        32.6992 
 241   0.0000       1.205918        32.8147 
 242   0.0000       1.219562        33.1860 
 243   0.0000       1.228656        33.4334 
 244   0.0000       1.231317        33.5058 
 245   0.0000       1.237455        33.6729 
 246   0.0000       1.244750        33.8714 
 247   0.0000       1.248632        33.9770 
 248   0.0000       1.265474        34.4353 
 249   0.0000       1.276105        34.7246 
 250   0.0000       1.284478        34.9524 
 251   0.0000       1.289189        35.0806 
 252   0.0000       1.293495        35.1978 
 253   0.0000       1.313327        35.7374 
 254   0.0000       1.317835        35.8601 
 255   0.0000       1.322776        35.9946 
 256   0.0000       1.341860        36.5139 
 257   0.0000       1.362811        37.0840 
 258   0.0000       1.365703        37.1627 
 259   0.0000       1.369372        37.2625 
 260   0.0000       1.382985        37.6329 
 261   0.0000       1.393260        37.9125 
 262   0.0000       1.408991        38.3406 
 263   0.0000       1.415611        38.5207 
 264   0.0000       1.430877        38.9361 
 265   0.0000       1.446063        39.3494 
 266   0.0000       1.460659        39.7465 
 267   0.0000       1.470773        40.0218 
 268   0.0000       1.489038        40.5188 
 269   0.0000       1.501812        40.8664 
 270   0.0000       1.522657        41.4336 
 271   0.0000       1.542947        41.9857 
 272   0.0000       1.556767        42.3618 
 273   0.0000       1.577208        42.9180 
 274   0.0000       1.587156        43.1887 
 275   0.0000       1.591655        43.3111 
 276   0.0000       1.618065        44.0298 
 277   0.0000       1.651802        44.9478 
 278   0.0000       1.660827        45.1934 
 279   0.0000       1.665977        45.3335 
 280   0.0000       1.681050        45.7437 
 281   0.0000       1.684352        45.8335 
 282   0.0000       1.713240        46.6196 
 283   0.0000       1.726859        46.9902 
 284   0.0000       1.756614        47.7999 
 285   0.0000       1.759187        47.8699 
 286   0.0000       1.766419        48.0667 
 287   0.0000       1.799490        48.9666 
 288   0.0000       1.813723        49.3539 
 289   0.0000       1.823724        49.6261 
 290   0.0000       1.836189        49.9652 
 291   0.0000       1.848174        50.2914 
 292   0.0000       1.854466        50.4626 
 293   0.0000       1.868836        50.8536 
 294   0.0000       1.883992        51.2660 
 295   0.0000       1.899942        51.7000 
 296   0.0000       1.907153        51.8963 
 297   0.0000       1.936096        52.6838 
 298   0.0000       1.941642        52.8348 
 299   0.0000       1.960707        53.3535 
 300   0.0000       1.969601        53.5956 
 301   0.0000       1.975886        53.7666 
 302   0.0000       1.989934        54.1489 
 303   0.0000       2.009311        54.6761 
 304   0.0000       2.017093        54.8879 
 305   0.0000       2.028236        55.1911 
 306   0.0000       2.035510        55.3890 
 307   0.0000       2.039073        55.4860 
 308   0.0000       2.049623        55.7731 
 309   0.0000       2.055641        55.9368 
 310   0.0000       2.066519        56.2328 
 311   0.0000       2.080426        56.6113 
 312   0.0000       2.100090        57.1463 
 313   0.0000       2.104669        57.2710 
 314   0.0000       2.119483        57.6741 
 315   0.0000       2.134744        58.0893 
 316   0.0000       2.138888        58.2021 
 317   0.0000       2.150607        58.5210 
 318   0.0000       2.154891        58.6376 
 319   0.0000       2.165322        58.9214 
 320   0.0000       2.171793        59.0975 
 321   0.0000       2.184283        59.4374 
 322   0.0000       2.195963        59.7552 
 323   0.0000       2.210826        60.1596 
 324   0.0000       2.220822        60.4316 
 325   0.0000       2.223482        60.5040 
 326   0.0000       2.233480        60.7761 
 327   0.0000       2.245620        61.1064 
 328   0.0000       2.263090        61.5818 
 329   0.0000       2.288321        62.2684 
 330   0.0000       2.301307        62.6218 
 331   0.0000       2.312427        62.9243 
 332   0.0000       2.330542        63.4173 
 333   0.0000       2.334969        63.5377 
 334   0.0000       2.346093        63.8404 
 335   0.0000       2.386659        64.9443 
 336   0.0000       2.394450        65.1563 
 337   0.0000       2.399563        65.2954 
 338   0.0000       2.405645        65.4609 
 339   0.0000       2.425933        66.0130 
 340   0.0000       2.443225        66.4835 
 341   0.0000       2.463289        67.0295 
 342   0.0000       2.487515        67.6887 
 343   0.0000       2.490823        67.7787 
 344   0.0000       2.501835        68.0784 
 345   0.0000       2.507365        68.2289 
 346   0.0000       2.547120        69.3106 
 347   0.0000       2.565953        69.8231 
 348   0.0000       2.578357        70.1607 
 349   0.0000       2.587232        70.4022 
 350   0.0000       2.610933        71.0471 
 351   0.0000       2.619489        71.2799 
 352   0.0000       2.632375        71.6306 
 353   0.0000       2.643451        71.9320 
 354   0.0000       2.670614        72.6711 
 355   0.0000       2.681117        72.9569 
 356   0.0000       2.701580        73.5137 
 357   0.0000       2.738083        74.5070 
 358   0.0000       2.766445        75.2788 
 359   0.0000       2.767244        75.3005 
 360   0.0000       2.783998        75.7564 
 361   0.0000       2.795413        76.0671 
 362   0.0000       2.818348        76.6912 
 363   0.0000       2.848330        77.5070 
 364   0.0000       2.861658        77.8697 
 365   0.0000       2.901320        78.9489 
 366   0.0000       2.916313        79.3569 
 367   0.0000       2.924632        79.5833 
 368   0.0000       2.957157        80.4683 
 369   0.0000       2.961862        80.5964 
 370   0.0000       2.984366        81.2087 
 371   0.0000       2.992778        81.4376 
 372   0.0000       3.012697        81.9797 
 373   0.0000       3.017873        82.1205 
 374   0.0000       3.042325        82.7859 
 375   0.0000       3.067452        83.4696 
 376   0.0000       3.093351        84.1743 
 377   0.0000       3.110221        84.6334 
 378   0.0000       3.131462        85.2114 
 379   0.0000       3.152634        85.7875 
 380   0.0000       3.163555        86.0847 
 381   0.0000       3.193629        86.9031 
 382   0.0000       3.220021        87.6212 
 383   0.0000       3.226355        87.7936 
 384   0.0000       3.260680        88.7276 
 385   0.0000       3.268019        88.9273 
 386   0.0000       3.292983        89.6066 
 387   0.0000       3.304614        89.9231 
 388   0.0000       3.319935        90.3400 
 389   0.0000       3.329648        90.6043 
 390   0.0000       3.377506        91.9066 
 391   0.0000       3.397483        92.4502 
 392   0.0000       3.414793        92.9212 
 393   0.0000       3.435576        93.4868 
 394   0.0000       3.445959        93.7693 
 395   0.0000       3.453391        93.9716 
 396   0.0000       3.471066        94.4525 
 397   0.0000       3.496369        95.1410 
 398   0.0000       3.523730        95.8856 
 399   0.0000       3.557459        96.8034 
 400   0.0000       3.665002        99.7298 
 401   0.0000       3.704071       100.7929 
 402   0.0000       3.854617       104.8895 
 403   0.0000       3.862746       105.1107 

                    ********************************
                    * MULLIKEN POPULATION ANALYSIS *
                    ********************************

-----------------------
MULLIKEN ATOMIC CHARGES
-----------------------
   0 C :    0.370022
   1 C :    0.368915
   2 C :    0.019096
   3 H :    0.225913
   4 H :   -0.097367
   5 S :    1.436774
   6 C :   -0.614351
   7 N :    0.287553
   8 C :    0.709527
   9 H :   -0.044586
  10 H :   -0.535847
  11 H :    0.051187
  12 H :   -0.231772
  13 O :   -0.734189
  14 O :   -0.690191
  15 C :    0.398355
  16 C :    0.230313
  17 H :    0.050613
  18 H :    0.015633
  19 C :   -0.118702
  20 H :    0.024129
  21 H :   -0.089376
  22 F :   -0.469506
  23 H :    0.000473
  24 H :   -0.193745
  25 H :   -0.430847
  26 H :   -0.029599
  27 H :    0.293790
  28 H :   -0.202215
Sum of atomic charges:    0.0000000

--------------------------------
MULLIKEN REDUCED ORBITAL CHARGES
--------------------------------
  0 C s       :     2.706584  s :     2.706584
      pz      :     0.969254  p :     2.686638
      px      :     0.760275
      py      :     0.957109
      dz2     :     0.006879  d :     0.236756
      dxz     :     0.038851
      dyz     :     0.111963
      dx2y2   :     0.017523
      dxy     :     0.061541
  1 C s       :     2.588179  s :     2.588179
      pz      :     0.914114  p :     2.746650
      px      :     0.939229
      py      :     0.893307
      dz2     :     0.193587  d :     0.296255
      dxz     :     0.016379
      dyz     :     0.014756
      dx2y2   :     0.072132
      dxy     :    -0.000598
  2 C s       :     2.791555  s :     2.791555
      pz      :     1.016498  p :     2.922049
      px      :     1.061888
      py      :     0.843663
      dz2     :     0.047741  d :     0.267299
      dxz     :     0.072678
      dyz     :     0.047189
      dx2y2   :     0.067075
      dxy     :     0.032616
  3 H s       :     0.762270  s :     0.762270
      pz      :    -0.018456  p :     0.011817
      px      :     0.002201
      py      :     0.028071
  4 H s       :     1.056943  s :     1.056943
      pz      :     0.024832  p :     0.040424
      px      :     0.000806
      py      :     0.014786
  5 S s       :     5.057356  s :     5.057356
      pz      :     2.965225  p :     8.741092
      px      :     2.785135
      py      :     2.990732
      dz2     :     0.110001  d :     0.764779
      dxz     :     0.196373
      dyz     :     0.195245
      dx2y2   :     0.094283
      dxy     :     0.168876
  6 C s       :     3.047439  s :     3.047439
      pz      :     0.889983  p :     2.692535
      px      :     0.904085
      py      :     0.898467
      dz2     :     0.395142  d :     0.874378
      dxz     :     0.020056
      dyz     :     0.134181
      dx2y2   :     0.206342
      dxy     :     0.118657
  7 N s       :     3.001284  s :     3.001284
      pz      :     1.053868  p :     3.698590
      px      :     1.199284
      py      :     1.445438
      dz2     :    -0.019086  d :     0.012572
      dxz     :     0.017284
      dyz     :    -0.007071
      dx2y2   :     0.015927
      dxy     :     0.005519
  8 C s       :     2.428607  s :     2.428607
      pz      :     0.765464  p :     2.744238
      px      :     0.769581
      py      :     1.209193
      dz2     :     0.055719  d :     0.117628
      dxz     :    -0.022171
      dyz     :     0.016348
      dx2y2   :     0.041575
      dxy     :     0.026157
  9 H s       :     1.086948  s :     1.086948
      pz      :    -0.058344  p :    -0.042361
      px      :     0.034309
      py      :    -0.018327
 10 H s       :     1.490680  s :     1.490680
      pz      :     0.100895  p :     0.045167
      px      :    -0.075193
      py      :     0.019465
 11 H s       :     0.952991  s :     0.952991
      pz      :    -0.033574  p :    -0.004178
      px      :     0.012401
      py      :     0.016995
 12 H s       :     1.163555  s :     1.163555
      pz      :     0.047905  p :     0.068217
      px      :     0.006094
      py      :     0.014219
 13 O s       :     3.888031  s :     3.888031
      pz      :     1.753674  p :     4.827347
      px      :     1.310492
      py      :     1.763181
      dz2     :    -0.006448  d :     0.018811
      dxz     :     0.006890
      dyz     :     0.010766
      dx2y2   :     0.010803
      dxy     :    -0.003200
 14 O s       :     3.897706  s :     3.897706
      pz      :     1.236702  p :     4.767057
      px      :     1.774150
      py      :     1.756205
      dz2     :     0.000573  d :     0.025428
      dxz     :     0.009341
      dyz     :     0.010735
      dx2y2   :     0.002924
      dxy     :     0.001855
 15 C s       :     2.614033  s :     2.614033
      pz      :     0.977509  p :     2.685142
      px      :     0.769847
      py      :     0.937786
      dz2     :     0.089557  d :     0.302470
      dxz     :     0.018954
      dyz     :     0.085899
      dx2y2   :     0.067004
      dxy     :     0.041056
 16 C s       :     2.502727  s :     2.502727
      pz      :     0.843504  p :     2.801637
      px      :     0.996481
      py      :     0.961653
      dz2     :     0.053435  d :     0.465323
      dxz     :     0.203400
      dyz     :     0.049998
      dx2y2   :     0.095992
      dxy     :     0.062498
 17 H s       :     0.957024  s :     0.957024
      pz      :    -0.009023  p :    -0.007637
      px      :     0.046403
      py      :    -0.045016
 18 H s       :     0.994998  s :     0.994998
      pz      :    -0.011399  p :    -0.010631
      px      :    -0.027936
      py      :     0.028704
 19 C s       :     2.767196  s :     2.767196
      pz      :     0.969144  p :     2.802952
      px      :     0.986963
      py      :     0.846846
      dz2     :     0.140675  d :     0.548553
      dxz     :     0.221094
      dyz     :     0.007950
      dx2y2   :     0.145580
      dxy     :     0.033254
 20 H s       :     1.009924  s :     1.009924
      pz      :    -0.016441  p :    -0.034053
      px      :    -0.003402
      py      :    -0.014209
 21 H s       :     1.080999  s :     1.080999
      pz      :     0.026954  p :     0.008376
      px      :    -0.005854
      py      :    -0.012723
 22 F s       :     3.944050  s :     3.944050
      pz      :     1.927290  p :     5.498040
      px      :     1.784704
      py      :     1.786046
      dz2     :    -0.000415  d :     0.027417
      dxz     :     0.008466
      dyz     :     0.006518
      dx2y2   :     0.004163
      dxy     :     0.008685
 23 H s       :     0.899686  s :     0.899686
      pz      :     0.045667  p :     0.099841
      px      :     0.057386
      py      :    -0.003211
 24 H s       :     1.165553  s :     1.165553
      pz      :    -0.018101  p :     0.028193
      px      :    -0.011340
      py      :     0.057633
 25 H s       :     1.139870  s :     1.139870
      pz      :     0.009527  p :     0.290977
      px      :     0.024174
      py      :     0.257276
 26 H s       :     1.016007  s :     1.016007
      pz      :     0.015341  p :     0.013592
      px      :     0.031070
      py      :    -0.032819
 27 H s       :     0.707546  s :     0.707546
      pz      :    -0.005788  p :    -0.001336
      px      :     0.010164
      py      :    -0.005712
 28 H s       :     1.166839  s :     1.166839
      pz      :     0.026249  p :     0.035376
      px      :     0.014026
      py      :    -0.004899


                     *******************************
                     * LOEWDIN POPULATION ANALYSIS *
                     *******************************

----------------------
LOEWDIN ATOMIC CHARGES
----------------------
   0 C :    0.023868
   1 C :   -0.024301
   2 C :   -0.010093
   3 H :    0.035618
   4 H :    0.028382
   5 S :    1.169668
   6 C :   -0.262794
   7 N :    0.193581
   8 C :    0.132103
   9 H :   -0.074682
  10 H :   -0.128359
  11 H :    0.019508
  12 H :   -0.052310
  13 O :   -0.498499
  14 O :   -0.479488
  15 C :   -0.009500
  16 C :   -0.016611
  17 H :    0.034484
  18 H :    0.042759
  19 C :   -0.020708
  20 H :    0.019877
  21 H :    0.021548
  22 F :   -0.243745
  23 H :   -0.003401
  24 H :    0.031130
  25 H :   -0.013655
  26 H :    0.037006
  27 H :    0.022792
  28 H :    0.025823

-------------------------------
LOEWDIN REDUCED ORBITAL CHARGES
-------------------------------
  0 C s       :     2.678924  s :     2.678924
      pz      :     0.891026  p :     2.682549
      px      :     0.900982
      py      :     0.890540
      dz2     :     0.118902  d :     0.614659
      dxz     :     0.102985
      dyz     :     0.157926
      dx2y2   :     0.099513
      dxy     :     0.135333
  1 C s       :     2.673221  s :     2.673221
      pz      :     0.884182  p :     2.699462
      px      :     0.894068
      py      :     0.921211
      dz2     :     0.184010  d :     0.651618
      dxz     :     0.157650
      dyz     :     0.119243
      dx2y2   :     0.124012
      dxy     :     0.066702
  2 C s       :     2.708597  s :     2.708597
      pz      :     0.941553  p :     2.711633
      px      :     0.961119
      py      :     0.808961
      dz2     :     0.126339  d :     0.589863
      dxz     :     0.109451
      dyz     :     0.123643
      dx2y2   :     0.109983
      dxy     :     0.120447
  3 H s       :     0.698426  s :     0.698426
      pz      :     0.077434  p :     0.265957
      px      :     0.109804
      py      :     0.078719
  4 H s       :     0.707549  s :     0.707549
      pz      :     0.107528  p :     0.264069
      px      :     0.078964
      py      :     0.077577
  5 S s       :     4.655813  s :     4.655813
      pz      :     2.821387  p :     8.368680
      px      :     2.764940
      py      :     2.782353
      dz2     :     0.422216  d :     1.805839
      dxz     :     0.389626
      dyz     :     0.349400
      dx2y2   :     0.290964
      dxy     :     0.353631
  6 C s       :     2.655157  s :     2.655157
      pz      :     0.909962  p :     2.546125
      px      :     0.869137
      py      :     0.767025
      dz2     :     0.237389  d :     1.061513
      dxz     :     0.231619
      dyz     :     0.149539
      dx2y2   :     0.254362
      dxy     :     0.188605
  7 N s       :     2.918404  s :     2.918404
      pz      :     1.068647  p :     3.513681
      px      :     1.172713
      py      :     1.272321
      dz2     :     0.068322  d :     0.374334
      dxz     :     0.106985
      dyz     :     0.035838
      dx2y2   :     0.075695
      dxy     :     0.087493
  8 C s       :     2.714000  s :     2.714000
      pz      :     0.930820  p :     2.751213
      px      :     0.917437
      py      :     0.902957
      dz2     :     0.119165  d :     0.402684
      dxz     :     0.073729
      dyz     :     0.075904
      dx2y2   :     0.066686
      dxy     :     0.067201
  9 H s       :     0.749008  s :     0.749008
      pz      :     0.086560  p :     0.325674
      px      :     0.128956
      py      :     0.110158
 10 H s       :     0.725167  s :     0.725167
      pz      :     0.156461  p :     0.403192
      px      :     0.102554
      py      :     0.144177
 11 H s       :     0.645535  s :     0.645535
      pz      :     0.101888  p :     0.334957
      px      :     0.099594
      py      :     0.133475
 12 H s       :     0.621708  s :     0.621708
      pz      :     0.207832  p :     0.430602
      px      :     0.110127
      py      :     0.112643
 13 O s       :     3.512150  s :     3.512150
      pz      :     1.615388  p :     4.671564
      px      :     1.412812
      py      :     1.643363
      dz2     :     0.055074  d :     0.314786
      dxz     :     0.088904
      dyz     :     0.036418
      dx2y2   :     0.066333
      dxy     :     0.068056
 14 O s       :     3.553263  s :     3.553263
      pz      :     1.431327  p :     4.685520
      px      :     1.638368
      py      :     1.615825
      dz2     :     0.090382  d :     0.240705
      dxz     :     0.067041
      dyz     :     0.066373
      dx2y2   :     0.007101
      dxy     :     0.009807
 15 C s       :     2.681260  s :     2.681260
      pz      :     0.899185  p :     2.684886
      px      :     0.908363
      py      :     0.877337
      dz2     :     0.119781  d :     0.643354
      dxz     :     0.118029
      dyz     :     0.145914
      dx2y2   :     0.135540
      dxy     :     0.124090
 16 C s       :     2.669317  s :     2.669317
      pz      :     0.877607  p :     2.684492
      px      :     0.899896
      py      :     0.906989
      dz2     :     0.129312  d :     0.662803
      dxz     :     0.186099
      dyz     :     0.102964
      dx2y2   :     0.155534
      dxy     :     0.088894
 17 H s       :     0.716003  s :     0.716003
      pz      :     0.067432  p :     0.249513
      px      :     0.104499
      py      :     0.077582
 18 H s       :     0.713520  s :     0.713520
      pz      :     0.062899  p :     0.243721
      px      :     0.063948
      py      :     0.116874
 19 C s       :     2.672483  s :     2.672483
      pz      :     0.887249  p :     2.679815
      px      :     0.897707
      py      :     0.894859
      dz2     :     0.141510  d :     0.668410
      dxz     :     0.187489
      dyz     :     0.093655
      dx2y2   :     0.159076
      dxy     :     0.086680
 20 H s       :     0.726489  s :     0.726489
      pz      :     0.070113  p :     0.253634
      px      :     0.115253
      py      :     0.068267
 21 H s       :     0.728156  s :     0.728156
      pz      :     0.090738  p :     0.250296
      px      :     0.096149
      py      :     0.063409
 22 F s       :     3.684401  s :     3.684401
      pz      :     1.825018  p :     5.311233
      px      :     1.740860
      py      :     1.745356
      dz2     :     0.041041  d :     0.248111
      dxz     :     0.040581
      dyz     :     0.037574
      dx2y2   :     0.064113
      dxy     :     0.064801
 23 H s       :     0.702964  s :     0.702964
      pz      :     0.113847  p :     0.300437
      px      :     0.099912
      py      :     0.086679
 24 H s       :     0.725872  s :     0.725872
      pz      :     0.064805  p :     0.242998
      px      :     0.061867
      py      :     0.116327
 25 H s       :     0.700445  s :     0.700445
      pz      :     0.085439  p :     0.313210
      px      :     0.078022
      py      :     0.149750
 26 H s       :     0.723555  s :     0.723555
      pz      :     0.086213  p :     0.239439
      px      :     0.088699
      py      :     0.064527
 27 H s       :     0.714961  s :     0.714961
      pz      :     0.072441  p :     0.262246
      px      :     0.115631
      py      :     0.074175
 28 H s       :     0.728116  s :     0.728116
      pz      :     0.089178  p :     0.246061
      px      :     0.087815
      py      :     0.069067


                      *****************************
                      * MAYER POPULATION ANALYSIS *
                      *****************************

  NA   - Mulliken gross atomic population
  ZA   - Total nuclear charge
  QA   - Mulliken gross atomic charge
  VA   - Mayer's total valence
  BVA  - Mayer's bonded valence
  FA   - Mayer's free valence

  ATOM       NA         ZA         QA         VA         BVA        FA
  0 C      5.6300     6.0000     0.3700     4.2700     4.2700     0.0000
  1 C      5.6311     6.0000     0.3689     4.3545     4.3545     0.0000
  2 C      5.9809     6.0000     0.0191     4.4806     4.4806     0.0000
  3 H      0.7741     1.0000     0.2259     0.9853     0.9853     0.0000
  4 H      1.0974     1.0000    -0.0974     1.2103     1.2103     0.0000
  5 S     14.5632    16.0000     1.4368     4.8182     4.8182    -0.0000
  6 C      6.6144     6.0000    -0.6144     5.7729     5.7729    -0.0000
  7 N      6.7124     7.0000     0.2876     3.4299     3.4299    -0.0000
  8 C      5.2905     6.0000     0.7095     3.2848     3.2848    -0.0000
  9 H      1.0446     1.0000    -0.0446     0.8832     0.8832    -0.0000
 10 H      1.5358     1.0000    -0.5358     1.0436     1.0436    -0.0000
 11 H      0.9488     1.0000     0.0512     0.8070     0.8070     0.0000
 12 H      1.2318     1.0000    -0.2318     1.0314     1.0314    -0.0000
 13 O      8.7342     8.0000    -0.7342     1.7416     1.7416     0.0000
 14 O      8.6902     8.0000    -0.6902     1.6307     1.6307    -0.0000
 15 C      5.6016     6.0000     0.3984     4.3361     4.3361     0.0000
 16 C      5.7697     6.0000     0.2303     4.8150     4.8150     0.0000
 17 H      0.9494     1.0000     0.0506     0.9927     0.9927     0.0000
 18 H      0.9844     1.0000     0.0156     0.9869     0.9869     0.0000
 19 C      6.1187     6.0000    -0.1187     5.1026     5.1026     0.0000
 20 H      0.9759     1.0000     0.0241     0.8683     0.8683     0.0000
 21 H      1.0894     1.0000    -0.0894     1.0223     1.0223     0.0000
 22 F      9.4695     9.0000    -0.4695     0.9052     0.9052     0.0000
 23 H      0.9995     1.0000     0.0005     1.2455     1.2455     0.0000
 24 H      1.1937     1.0000    -0.1937     1.1655     1.1655     0.0000
 25 H      1.4308     1.0000    -0.4308     1.3831     1.3831     0.0000
 26 H      1.0296     1.0000    -0.0296     1.0597     1.0597     0.0000
 27 H      0.7062     1.0000     0.2938     0.7869     0.7869     0.0000
 28 H      1.2022     1.0000    -0.2022     1.1165     1.1165     0.0000

  Mayer bond orders larger than 0.100000
B(  0-C ,  6-C ) :   1.3467 B(  0-C , 15-C ) :   1.1538 B(  0-C , 20-H ) :   0.1277 
B(  0-C , 21-H ) :   0.1929 B(  0-C , 27-H ) :   0.7783 B(  0-C , 28-H ) :   0.6286 
B(  1-C ,  2-C ) :   1.2578 B(  1-C ,  4-H ) :   0.2089 B(  1-C , 16-C ) :   1.2566 
B(  1-C , 17-H ) :   0.7074 B(  1-C , 18-H ) :   0.7655 B(  2-C ,  3-H ) :   0.8620 
B(  2-C ,  4-H ) :   0.9215 B(  2-C ,  5-S ) :   0.9832 B(  2-C , 17-H ) :   0.1093 
B(  2-C , 18-H ) :   0.1448 B(  5-S , 13-O ) :   1.3906 B(  5-S , 14-O ) :   1.5411 
B(  5-S , 22-F ) :   0.6491 B(  6-C ,  7-N ) :   0.9704 B(  6-C ,  8-C ) :   2.1164 
B(  6-C ,  9-H ) :   0.1233 B(  6-C , 10-H ) :   0.5196 B(  6-C , 15-C ) :   0.1507 
B(  6-C , 28-H ) :   0.3799 B(  7-N ,  8-C ) :   0.4071 B(  7-N ,  9-H ) :   0.1248 
B(  7-N , 11-H ) :   0.9413 B(  7-N , 12-H ) :   0.8932 B(  8-C ,  9-H ) :   0.5806 
B(  9-H , 10-H ) :   0.1005 B( 10-H , 12-H ) :   0.1448 B( 11-H , 12-H ) :  -0.1436 
B( 12-H , 13-O ) :   0.1304 B( 15-C , 19-C ) :   1.2230 B( 15-C , 20-H ) :   0.6904 
B( 15-C , 21-H ) :   0.8224 B( 15-C , 23-H ) :   0.1015 B( 15-C , 27-H ) :   0.1089 
B( 16-C , 17-H ) :   0.2422 B( 16-C , 19-C ) :   1.2455 B( 16-C , 23-H ) :   0.1213 
B( 16-C , 24-H ) :   0.1626 B( 16-C , 25-H ) :   0.9232 B( 16-C , 26-H ) :   0.7061 
B( 19-C , 20-H ) :   0.2568 B( 19-C , 21-H ) :   0.1689 B( 19-C , 23-H ) :   0.8833 
B( 19-C , 24-H ) :   0.8872 B( 19-C , 25-H ) :   0.1540 B( 19-C , 26-H ) :   0.1935 
B( 20-H , 21-H ) :  -0.1240 

-------
TIMINGS
-------

Total SCF time: 0 days 0 hours 1 min 1 sec 

Total time                  ....      61.793 sec
Sum of individual times     ....      60.983 sec  ( 98.7%)

Fock matrix formation       ....      58.353 sec  ( 94.4%)
  Split-RI-J                ....       2.907 sec  (  5.0% of F)
  Chain of spheres X        ....      46.582 sec  ( 79.8% of F)
  XC integration            ....       4.494 sec  (  7.7% of F)
    Basis function eval.    ....       1.151 sec  ( 25.6% of XC)
    Density eval.           ....       1.329 sec  ( 29.6% of XC)
    XC-Functional eval.     ....       0.163 sec  (  3.6% of XC)
    XC-Potential eval.      ....       1.425 sec  ( 31.7% of XC)
Diagonalization             ....       0.337 sec  (  0.5%)
Density matrix formation    ....       0.031 sec  (  0.0%)
Population analysis         ....       0.039 sec  (  0.1%)
Initial guess               ....       0.273 sec  (  0.4%)
Orbital Transformation      ....       0.000 sec  (  0.0%)
Orbital Orthonormalization  ....       0.000 sec  (  0.0%)
DIIS solution               ....       0.187 sec  (  0.3%)
SOSCF solution              ....       0.217 sec  (  0.4%)
Grid generation             ....       1.546 sec  (  2.5%)

Maximum memory used throughout the entire SCF-calculation: 82.3 MB


-------------------------------------------------------------------------------
                          DFT DISPERSION CORRECTION                            
                                                                               
                              DFTD3 V3.1  Rev 1                                
                              USING zero damping                               
-------------------------------------------------------------------------------
The omegaB97X-D3 functional is recognized. Fit by Chai et al.
Active option DFTDOPT                   ...         3   

molecular C6(AA) [au] = 7804.806620 


            DFT-D V3
 parameters
 s6 scaling factor         :     1.0000 
 rs6 scaling factor        :     1.2810 
 s8 scaling factor         :     1.0000 
 rs8 scaling factor        :     1.0940 
 Damping factor alpha6     :    14.0000 
 Damping factor alpha8     :    16.0000 
 ad hoc parameters k1-k3   :    16.0000     1.3333    -4.0000 

 Edisp/kcal,au: -10.223987938048  -0.016292960139 
 E6   /kcal   :  -4.319639894 
 E8   /kcal   :  -5.904348044 
 % E8         :  57.749951192 

-------------------------   ----------------
Dispersion correction           -0.016292960
-------------------------   ----------------


-------------------------   --------------------
FINAL SINGLE POINT ENERGY     -1016.915971224013
-------------------------   --------------------


                            ***************************************
                            *     ORCA property calculations      *
                            ***************************************

                                    ---------------------
                                    Active property flags
                                    ---------------------
   (+) Dipole Moment


------------------------------------------------------------------------------
                       ORCA ELECTRIC PROPERTIES CALCULATION
------------------------------------------------------------------------------

Dipole Moment Calculation                       ... on
Quadrupole Moment Calculation                   ... off
Polarizability Calculation                      ... off
GBWName                                         ... D6_wb97.gbw
Electron density file                           ... D6_wb97.scfp
The origin for moment calculation is the CENTER OF MASS  = ( 4.580396, -0.462534 -8.381022)

-------------
DIPOLE MOMENT
-------------
                                X             Y             Z
Electronic contribution:     -0.82483      -4.60400     -18.33086
Nuclear contribution   :     -0.51418       6.96452      19.50670
                        -----------------------------------------
Total Dipole Moment    :     -1.33901       2.36052       1.17584
                        -----------------------------------------
Magnitude (a.u.)       :      2.95763
Magnitude (Debye)      :      7.51770



--------------------
Rotational spectrum 
--------------------
 
Rotational constants in cm-1:     0.036455     0.018603     0.015008 
Rotational constants in MHz :  1092.895336   557.693628   449.926016 

 Dipole components along the rotational axes: 
x,y,z [a.u.] :     0.513437     2.887060    -0.385821 
x,y,z [Debye]:     1.305053     7.338323    -0.980679 

 

Timings for individual modules:

Sum of individual times         ...       62.995 sec (=   1.050 min)
GTO integral calculation        ...        0.794 sec (=   0.013 min)   1.3 %
SCF iterations                  ...       62.201 sec (=   1.037 min)  98.7 %
                             ****ORCA TERMINATED NORMALLY****
TOTAL RUN TIME: 0 days 0 hours 1 minutes 3 seconds 665 msec
