
                                        *****************
                                        * O   R   C   A *
                                        *****************

                                            #,                                       
                                            ###                                      
                                            ####                                     
                                            #####                                    
                                            ######                                   
                                           ########,                                 
                                     ,,################,,,,,                         
                               ,,#################################,,                 
                          ,,##########################################,,             
                       ,#########################################, ''#####,          
                    ,#############################################,,   '####,        
                  ,##################################################,,,,####,       
                ,###########''''           ''''###############################       
              ,#####''   ,,,,##########,,,,          '''####'''          '####       
            ,##' ,,,,###########################,,,                        '##       
           ' ,,###''''                  '''############,,,                           
         ,,##''                                '''############,,,,        ,,,,,,###''
      ,#''                                            '''#######################'''  
     '                                                          ''''####''''         
             ,#######,   #######,   ,#######,      ##                                
            ,#'     '#,  ##    ##  ,#'     '#,    #''#        ######   ,####,        
            ##       ##  ##   ,#'  ##            #'  '#       #        #'  '#        
            ##       ##  #######   ##           ,######,      #####,   #    #        
            '#,     ,#'  ##    ##  '#,     ,#' ,#      #,         ##   #,  ,#        
             '#######'   ##     ##  '#######'  #'      '#     #####' # '####'        



                  #######################################################
                  #                        -***-                        #
                  #          Department of theory and spectroscopy      #
                  #    Directorship and core code : Frank Neese         #
                  #        Max Planck Institute fuer Kohlenforschung    #
                  #                Kaiser Wilhelm Platz 1               #
                  #                 D-45470 Muelheim/Ruhr               #
                  #                      Germany                        #
                  #                                                     #
                  #                  All rights reserved                #
                  #                        -***-                        #
                  #######################################################


                         Program Version 5.0.0 -  RELEASE  -
                                (SVN: $Rev: 19529$)
                ($Date: 2021-06-28 11:36:33 +0200 (Mo, 28 Jun 2021) $)


 With contributions from (in alphabetic order):
   Daniel Aravena         : Magnetic Suceptibility
   Michael Atanasov       : Ab Initio Ligand Field Theory (pilot matlab implementation)
   Alexander A. Auer      : GIAO ZORA, VPT2 properties, NMR spectrum
   Ute Becker             : Parallelization
   Giovanni Bistoni       : ED, misc. LED, open-shell LED, HFLD
   Martin Brehm           : Molecular dynamics
   Dmytro Bykov           : SCF Hessian
   Vijay G. Chilkuri      : MRCI spin determinant printing, contributions to CSF-ICE
   Dipayan Datta          : RHF DLPNO-CCSD density
   Achintya Kumar Dutta   : EOM-CC, STEOM-CC
   Dmitry Ganyushin       : Spin-Orbit,Spin-Spin,Magnetic field MRCI
   Miquel Garcia          : C-PCM Hessian, Gaussian charge scheme
   Yang Guo               : DLPNO-NEVPT2, F12-NEVPT2, CIM, IAO-localization
   Andreas Hansen         : Spin unrestricted coupled pair/coupled cluster methods
   Benjamin Helmich-Paris : MC-RPA, TRAH-SCF, COSX integrals
   Lee Huntington         : MR-EOM, pCC
   Robert Izsak           : Overlap fitted RIJCOSX, COSX-SCS-MP3, EOM
   Marcus Kettner         : VPT2
   Christian Kollmar      : KDIIS, OOCD, Brueckner-CCSD(T), CCSD density, CASPT2, CASPT2-K
   Simone Kossmann        : Meta GGA functionals, TD-DFT gradient, OOMP2, MP2 Hessian
   Martin Krupicka        : Initial AUTO-CI
   Lucas Lang             : DCDCAS
   Marvin Lechner         : AUTO-CI (C++ implementation), FIC-MRCC
   Dagmar Lenk            : GEPOL surface, SMD
   Dimitrios Liakos       : Extrapolation schemes; Compound Job, initial MDCI parallelization
   Dimitrios Manganas     : Further ROCIS development; embedding schemes
   Dimitrios Pantazis     : SARC Basis sets
   Anastasios Papadopoulos: AUTO-CI, single reference methods and gradients
   Taras Petrenko         : DFT Hessian,TD-DFT gradient, ASA, ECA, R-Raman, ABS, FL, XAS/XES, NRVS
   Peter Pinski           : DLPNO-MP2, DLPNO-MP2 Gradient
   Christoph Reimann      : Effective Core Potentials
   Marius Retegan         : Local ZFS, SOC
   Christoph Riplinger    : Optimizer, TS searches, QM/MM, DLPNO-CCSD(T), (RO)-DLPNO pert. Triples
   Tobias Risthaus        : Range-separated hybrids, TD-DFT gradient, RPA, STAB
   Michael Roemelt        : Original ROCIS implementation
   Masaaki Saitow         : Open-shell DLPNO-CCSD energy and density
   Barbara Sandhoefer     : DKH picture change effects
   Avijit Sen             : IP-ROCIS
   Kantharuban Sivalingam : CASSCF convergence, NEVPT2, FIC-MRCI
   Bernardo de Souza      : ESD, SOC TD-DFT
   Georgi Stoychev        : AutoAux, RI-MP2 NMR
   Willem Van den Heuvel  : Paramagnetic NMR
   Boris Wezisla          : Elementary symmetry handling
   Frank Wennmohs         : Technical directorship


 We gratefully acknowledge several colleagues who have allowed us to
 interface, adapt or use parts of their codes:
   Stefan Grimme, W. Hujo, H. Kruse, P. Pracht,  : VdW corrections, initial TS optimization,
                  C. Bannwarth, S. Ehlert          DFT functionals, gCP, sTDA/sTD-DF
   Ed Valeev, F. Pavosevic, A. Kumar             : LibInt (2-el integral package), F12 methods
   Garnet Chan, S. Sharma, J. Yang, R. Olivares  : DMRG
   Ulf Ekstrom                                   : XCFun DFT Library
   Mihaly Kallay                                 : mrcc  (arbitrary order and MRCC methods)
   Jiri Pittner, Ondrej Demel                    : Mk-CCSD
   Frank Weinhold                                : gennbo (NPA and NBO analysis)
   Christopher J. Cramer and Donald G. Truhlar   : smd solvation model
   Lars Goerigk                                  : TD-DFT with DH, B97 family of functionals
   V. Asgeirsson, H. Jonsson                     : NEB implementation
   FAccTs GmbH                                   : IRC, NEB, NEB-TS, DLPNO-Multilevel, CI-OPT
                                                   MM, QMMM, 2- and 3-layer-ONIOM, Crystal-QMMM,
                                                   LR-CPCM, SF, NACMEs, symmetry and pop. for TD-DFT,
                                                   nearIR, NL-DFT gradient (VV10), updates on ESD,
                                                   ML-optimized integration grids
   S Lehtola, MJT Oliveira, MAL Marques          : LibXC Library
   Liviu Ungur et al                             : ANISO software


 Your calculation uses the libint2 library for the computation of 2-el integrals
 For citations please refer to: http://libint.valeyev.net

 Your ORCA version has been built with support for libXC version: 5.1.0
 For citations please refer to: https://tddft.org/programs/libxc/

 This ORCA versions uses:
   CBLAS   interface :  Fast vector & matrix operations
   LAPACKE interface :  Fast linear algebra routines
   SCALAPACK package :  Parallel linear algebra routines
   Shared memory     :  Shared parallel matrices
   BLAS/LAPACK       :  OpenBLAS 0.3.15  USE64BITINT DYNAMIC_ARCH NO_AFFINITY Haswell SINGLE_THREADED
        Core in use  :  Haswell
   Copyright (c) 2011-2014, The OpenBLAS Project


Your calculation utilizes the atom-pairwise dispersion correction
with the Becke-Johnson damping scheme (D3BJ)
Cite in your paper:
S.Grimme, S.Ehrlich, L.Goerigk, J Comput Chem, (2011), 32, 1456–1465 
S.Grimme, J.Antony, S.Ehrlich and H.Krieg, J.Chem.Phys., 132, (2010), 154104 
   

================================================================================

----- Orbital basis set information -----
Your calculation utilizes the basis: def2-TZVP
   F. Weigend and R. Ahlrichs, Phys. Chem. Chem. Phys. 7, 3297 (2005).

----- AuxJ basis set information -----
Your calculation utilizes the auxiliary basis: def2/J
   F. Weigend, Phys. Chem. Chem. Phys. 8, 1057 (2006).

================================================================================
                                        WARNINGS
                       Please study these warnings very carefully!
================================================================================


INFO   : the flag for use of the SHARK integral package has been found!

================================================================================
                                       INPUT FILE
================================================================================
NAME = TZVP_PBE0_C2_wt_dlpno_pos.com
|  1> !PBE0 D3BJ RIJCOSX def2-TZVP def2/J TightSCF
|  2> *xyz 0 1
|  3> C          4.99986       -1.59613       -5.92488
|  4> N          5.28156       -1.97413       -4.53576
|  5> C          3.76678       -2.26611       -6.51175
|  6> C          4.79250       -1.36132       -3.45730
|  7> C          3.93990       -0.37492       -3.55736
|  8> N          5.25986       -1.75422       -2.23913
|  9> H          5.92282       -2.52145       -2.18672
| 10> H          4.65468       -1.64040       -1.44202
| 11> H          5.70914       -2.87560       -4.38702
| 12> H          3.33010       -0.31764       -4.36125
| 13> H          3.69849        0.11447       -2.70833
| 14> H          4.84333       -0.51793       -5.94302
| 15> H          5.90170       -1.82250       -6.49647
| 16> H          3.63046       -1.94025       -7.52177
| 17> H          2.90710       -2.00116       -5.93240
| 18> H          3.89538       -3.32820       -6.49392
| 19> *
| 20> 
| 21> %MaxCore 64000
| 22> 
| 23> %pal nprocs 4
| 24> end  
| 25> 
| 26> %scf
| 27>   MaxIter 150
| 28> end
| 29> 
| 30> 
| 31>                          ****END OF INPUT****
================================================================================

                       ****************************
                       * Single Point Calculation *
                       ****************************

---------------------------------
CARTESIAN COORDINATES (ANGSTROEM)
---------------------------------
  C      4.999860   -1.596130   -5.924880
  N      5.281560   -1.974130   -4.535760
  C      3.766780   -2.266110   -6.511750
  C      4.792500   -1.361320   -3.457300
  C      3.939900   -0.374920   -3.557360
  N      5.259860   -1.754220   -2.239130
  H      5.922820   -2.521450   -2.186720
  H      4.654680   -1.640400   -1.442020
  H      5.709140   -2.875600   -4.387020
  H      3.330100   -0.317640   -4.361250
  H      3.698490    0.114470   -2.708330
  H      4.843330   -0.517930   -5.943020
  H      5.901700   -1.822500   -6.496470
  H      3.630460   -1.940250   -7.521770
  H      2.907100   -2.001160   -5.932400
  H      3.895380   -3.328200   -6.493920

----------------------------
CARTESIAN COORDINATES (A.U.)
----------------------------
  NO LB      ZA    FRAG     MASS         X           Y           Z
   0 C     6.0000    0    12.011    9.448366   -3.016249  -11.196401
   1 N     7.0000    0    14.007    9.980702   -3.730565   -8.571344
   2 C     6.0000    0    12.011    7.118183   -4.282327  -12.305424
   3 C     6.0000    0    12.011    9.056512   -2.572522   -6.533350
   4 C     6.0000    0    12.011    7.445332   -0.708496   -6.722436
   5 N     7.0000    0    14.007    9.939695   -3.314995   -4.231342
   6 H     1.0000    0     1.008   11.192508   -4.764850   -4.132302
   7 H     1.0000    0     1.008    8.796070   -3.099907   -2.725023
   8 H     1.0000    0     1.008   10.788711   -5.434096   -8.290266
   9 H     1.0000    0     1.008    6.292977   -0.600253   -8.241568
  10 H     1.0000    0     1.008    6.989133    0.216317   -5.118002
  11 H     1.0000    0     1.008    9.152567   -0.978746  -11.230680
  12 H     1.0000    0     1.008   11.152597   -3.444026  -12.276549
  13 H     1.0000    0     1.008    6.860575   -3.666541  -14.214085
  14 H     1.0000    0     1.008    5.493623   -3.781644  -11.210611
  15 H     1.0000    0     1.008    7.361201   -6.289387  -12.271730

--------------------------------
INTERNAL COORDINATES (ANGSTROEM)
--------------------------------
 C      0   0   0     0.000000000000     0.00000000     0.00000000
 N      1   0   0     1.466933285600     0.00000000     0.00000000
 C      1   2   0     1.521110082703   114.04948771     0.00000000
 C      2   1   3     1.333338573394   125.24465126   271.38369046
 C      4   2   1     1.307640517726   121.59821647     3.37662360
 N      4   2   1     1.362620243685   117.69524840   186.46465187
 H      6   4   2     1.015334744112   119.20799220   357.06852641
 H      6   4   2     1.007264700513   117.95745335   207.37675318
 H      2   1   3     1.008759835095   116.82696572    77.45307476
 H      5   4   2     1.010631570109   119.80406451    27.35455603
 H      5   4   2     1.009273650255   117.21677800   187.25423597
 H      1   2   3     1.089654046246   107.35684638   119.90287312
 H      1   2   3     1.091454942084   106.48717401   235.80932251
 H      3   1   2     1.070003870273   109.47095908   179.99985773
 H      3   1   2     1.069997489436   109.47166455    60.00019566
 H      3   1   2     1.069995811674   109.47174109   299.99994061

---------------------------
INTERNAL COORDINATES (A.U.)
---------------------------
 C      0   0   0     0.000000000000     0.00000000     0.00000000
 N      1   0   0     2.772102166517     0.00000000     0.00000000
 C      1   2   0     2.874481475855   114.04948771     0.00000000
 C      2   1   3     2.519644747508   125.24465126   271.38369046
 C      4   2   1     2.471082460122   121.59821647     3.37662360
 N      4   2   1     2.574979085102   117.69524840   186.46465187
 H      6   4   2     1.918704600626   119.20799220   357.06852641
 H      6   4   2     1.903454428336   117.95745335   207.37675318
 H      2   1   3     1.906279823228   116.82696572    77.45307476
 H      5   4   2     1.909816889800   119.80406451    27.35455603
 H      5   4   2     1.907250793166   117.21677800   187.25423597
 H      1   2   3     2.059147728124   107.35684638   119.90287312
 H      1   2   3     2.062550928054   106.48717401   235.80932251
 H      3   1   2     2.022014277052   109.47095908   179.99985773
 H      3   1   2     2.022002219018   109.47166455    60.00019566
 H      3   1   2     2.021999048507   109.47174109   299.99994061

---------------------
BASIS SET INFORMATION
---------------------
There are 3 groups of distinct atoms

 Group   1 Type C   : 11s6p2d1f contracted to 5s3p2d1f pattern {62111/411/11/1}
 Group   2 Type N   : 11s6p2d1f contracted to 5s3p2d1f pattern {62111/411/11/1}
 Group   3 Type H   : 5s1p contracted to 3s1p pattern {311/1}

Atom   0C    basis set group =>   1
Atom   1N    basis set group =>   2
Atom   2C    basis set group =>   1
Atom   3C    basis set group =>   1
Atom   4C    basis set group =>   1
Atom   5N    basis set group =>   2
Atom   6H    basis set group =>   3
Atom   7H    basis set group =>   3
Atom   8H    basis set group =>   3
Atom   9H    basis set group =>   3
Atom  10H    basis set group =>   3
Atom  11H    basis set group =>   3
Atom  12H    basis set group =>   3
Atom  13H    basis set group =>   3
Atom  14H    basis set group =>   3
Atom  15H    basis set group =>   3
---------------------------------
AUXILIARY/J BASIS SET INFORMATION
---------------------------------
There are 3 groups of distinct atoms

 Group   1 Type C   : 12s5p4d2f1g contracted to 6s4p3d1f1g pattern {711111/2111/211/2/1}
 Group   2 Type N   : 12s5p4d2f1g contracted to 6s4p3d1f1g pattern {711111/2111/211/2/1}
 Group   3 Type H   : 5s2p1d contracted to 3s1p1d pattern {311/2/1}

Atom   0C    basis set group =>   1
Atom   1N    basis set group =>   2
Atom   2C    basis set group =>   1
Atom   3C    basis set group =>   1
Atom   4C    basis set group =>   1
Atom   5N    basis set group =>   2
Atom   6H    basis set group =>   3
Atom   7H    basis set group =>   3
Atom   8H    basis set group =>   3
Atom   9H    basis set group =>   3
Atom  10H    basis set group =>   3
Atom  11H    basis set group =>   3
Atom  12H    basis set group =>   3
Atom  13H    basis set group =>   3
Atom  14H    basis set group =>   3
Atom  15H    basis set group =>   3


           ************************************************************
           *        Program running with 4 parallel MPI-processes     *
           *              working on a common directory               *
           ************************************************************
------------------------------------------------------------------------------
                           ORCA GTO INTEGRAL CALCULATION
                           -- RI-GTO INTEGRALS CHOSEN --
------------------------------------------------------------------------------
------------------------------------------------------------------------------
                   ___                                                        
                  /   \      - P O W E R E D   B Y -                         
                 /     \                                                     
                 |  |  |   _    _      __       _____    __    __             
                 |  |  |  | |  | |    /  \     |  _  \  |  |  /  |          
                  \  \/   | |  | |   /    \    | | | |  |  | /  /          
                 / \  \   | |__| |  /  /\  \   | |_| |  |  |/  /          
                |  |  |   |  __  | /  /__\  \  |    /   |      \           
                |  |  |   | |  | | |   __   |  |    \   |  |\   \          
                \     /   | |  | | |  |  |  |  | |\  \  |  | \   \       
                 \___/    |_|  |_| |__|  |__|  |_| \__\ |__|  \__/        
                                                                              
                      - O R C A' S   B I G   F R I E N D -                    
                                      &                                       
                       - I N T E G R A L  F E E D E R -                       
                                                                              
 v1 FN, 2020, v2 2021                                                         
------------------------------------------------------------------------------


Reading SHARK input file TZVP_PBE0_C2_wt_dlpno_pos.SHARKINP.tmp ... ok
----------------------
SHARK INTEGRAL PACKAGE
----------------------

Number of atoms                             ...     16
Number of basis functions                   ...    246
Number of shells                            ...    106
Maximum angular momentum                    ...      3
Integral batch strategy                     ... SHARK/LIBINT Hybrid
RI-J (if used) integral strategy            ... SPLIT-RIJ (Revised 2003 algorithm where possible)
Printlevel                                  ...      1
Contraction scheme used                     ... SEGMENTED contraction
Coulomb Range Separation                    ... NOT USED
Exchange Range Separation                   ... NOT USED
Finite Nucleus Model                        ... NOT USED
Auxiliary Coulomb fitting basis             ... AVAILABLE
   # of basis functions in Aux-J            ...    404
   # of shells in Aux-J                     ...    140
   Maximum angular momentum in Aux-J        ...      4
Auxiliary J/K fitting basis                 ... NOT available
Auxiliary Correlation fitting basis         ... NOT available
Auxiliary 'external' fitting basis          ... NOT available
Integral threshold                          ...     2.500000e-11
Primitive cut-off                           ...     2.500000e-12
Primitive pair pre-selection threshold      ...     2.500000e-12

Calculating pre-screening integrals         ... done (  0.1 sec) Dimension = 106
Organizing shell pair data                  ... done (  0.0 sec)
Shell pair information
Total number of shell pairs                 ...      5671
Shell pairs after pre-screening             ...      5329
Total number of primitive shell pairs       ...     16452
Primitive shell pairs kept                  ...     12047
          la=0 lb=0:   1680 shell pairs
          la=1 lb=0:   1581 shell pairs
          la=1 lb=1:    388 shell pairs
          la=2 lb=0:    681 shell pairs
          la=2 lb=1:    325 shell pairs
          la=2 lb=2:     77 shell pairs
          la=3 lb=0:    343 shell pairs
          la=3 lb=1:    163 shell pairs
          la=3 lb=2:     70 shell pairs
          la=3 lb=3:     21 shell pairs

Calculating one electron integrals          ... done (  0.0 sec)
Calculating RI/J V-Matrix + Cholesky decomp.... done (  0.0 sec)
Calculating Nuclear repulsion               ... done (  0.0 sec) ENN=    248.613100636713 Eh

SHARK setup successfully completed in   0.2 seconds

Maximum memory used throughout the entire GTOINT-calculation: 13.9 MB


           ************************************************************
           *        Program running with 4 parallel MPI-processes     *
           *              working on a common directory               *
           ************************************************************
-------------------------------------------------------------------------------
                                 ORCA SCF
-------------------------------------------------------------------------------

------------
SCF SETTINGS
------------
Hamiltonian:
 Density Functional     Method          .... DFT(GTOs)
 Exchange Functional    Exchange        .... PBE
   PBE kappa parameter   XKappa         ....  0.804000
   PBE mue parameter    XMuePBE         ....  0.219520
 Correlation Functional Correlation     .... PBE
   PBE beta parameter  CBetaPBE         ....  0.066725
 LDA part of GGA corr.  LDAOpt          .... PW91-LDA
 Gradients option       PostSCFGGA      .... off
 Hybrid DFT is turned on
   Fraction HF Exchange ScalHFX         ....  0.250000
   Scaling of DF-GGA-X  ScalDFX         ....  0.750000
   Scaling of DF-GGA-C  ScalDFC         ....  1.000000
   Scaling of DF-LDA-C  ScalLDAC        ....  1.000000
   Perturbative correction              ....  0.000000
   Density functional embedding theory  .... OFF
   NL short-range parameter             ....  6.900000
 RI-approximation to the Coulomb term is turned on
   Number of AuxJ basis functions       .... 404
   RIJ-COSX (HFX calculated with COS-X)).... on


General Settings:
 Integral files         IntName         .... TZVP_PBE0_C2_wt_dlpno_pos
 Hartree-Fock type      HFTyp           .... RHF
 Total Charge           Charge          ....    0
 Multiplicity           Mult            ....    1
 Number of Electrons    NEL             ....   48
 Basis Dimension        Dim             ....  246
 Nuclear Repulsion      ENuc            ....    248.6131006367 Eh

Convergence Acceleration:
 DIIS                   CNVDIIS         .... on
   Start iteration      DIISMaxIt       ....    12
   Startup error        DIISStart       ....  0.200000
   # of expansion vecs  DIISMaxEq       ....     5
   Bias factor          DIISBfac        ....   1.050
   Max. coefficient     DIISMaxC        ....  10.000
 Trust-Rad. Augm. Hess. CNVTRAH         .... auto
   Auto Start mean grad. ratio tolernc. ....  1.125000
   Auto Start start iteration           ....    20
   Auto Start num. interpolation iter.  ....    10
   Max. Number of Micro iterations      ....    16
   Max. Number of Macro iterations      .... Maxiter - #DIIS iter
   Number of Davidson start vectors     ....     2
   Converg. threshold I  (grad. norm)   ....   1.000e-05
   Converg. threshold II (energy diff.) ....   1.000e-08
   Grad. Scal. Fac. for Micro threshold ....   0.100
   Minimum threshold for Micro iter.    ....   0.010
   NR start threshold (gradient norm)   ....   0.001
   Initial trust radius                 ....   0.400
   Minimum AH scaling param. (alpha)    ....   1.000
   Maximum AH scaling param. (alpha)    .... 1000.000
   Orbital update algorithm             .... Taylor
   White noise on init. David. guess    .... on
   Maximum white noise                  ....   0.010
   Quad. conv. algorithm                .... NR
 SOSCF                  CNVSOSCF        .... on
   Start iteration      SOSCFMaxIt      ....   150
   Startup grad/error   SOSCFStart      ....  0.003300
 Level Shifting         CNVShift        .... on
   Level shift para.    LevelShift      ....    0.2500
   Turn off err/grad.   ShiftErr        ....    0.0010
 Zerner damping         CNVZerner       .... off
 Static damping         CNVDamp         .... on
   Fraction old density DampFac         ....    0.7000
   Max. Damping (<1)    DampMax         ....    0.9800
   Min. Damping (>=0)   DampMin         ....    0.0000
   Turn off err/grad.   DampErr         ....    0.1000
 Fernandez-Rico         CNVRico         .... off

SCF Procedure:
 Maximum # iterations   MaxIter         ....   150
 SCF integral mode      SCFMode         .... Direct
   Integral package                     .... SHARK and LIBINT hybrid scheme
 Reset frequency        DirectResetFreq ....    20
 Integral Threshold     Thresh          ....  2.500e-11 Eh
 Primitive CutOff       TCut            ....  2.500e-12 Eh

Convergence Tolerance:
 Convergence Check Mode ConvCheckMode   .... Total+1el-Energy
 Convergence forced     ConvForced      .... 0
 Energy Change          TolE            ....  1.000e-08 Eh
 1-El. energy change                    ....  1.000e-05 Eh
 Orbital Gradient       TolG            ....  1.000e-05
 Orbital Rotation angle TolX            ....  1.000e-05
 DIIS Error             TolErr          ....  5.000e-07


Diagonalization of the overlap matrix:
Smallest eigenvalue                        ... 1.288e-04
Time for diagonalization                   ...    0.016 sec
Threshold for overlap eigenvalues          ... 1.000e-08
Number of eigenvalues below threshold      ... 0
Time for construction of square roots      ...    0.011 sec
Total time needed                          ...    0.028 sec

Time for model grid setup =    0.106 sec

------------------------------
INITIAL GUESS: MODEL POTENTIAL
------------------------------
Loading Hartree-Fock densities                     ... done
Calculating cut-offs                               ... done
Initializing the effective Hamiltonian             ... done
Setting up the integral package (SHARK)            ... done
Starting the Coulomb interaction                   ... done (   0.1 sec)
Reading the grid                                   ... done
Mapping shells                                     ... done
Starting the XC term evaluation                    ... done (   0.1 sec)
  promolecular density results
     # of electrons  =     47.993087329
     EX              =    -36.575984395
     EC              =     -1.576140114
     EX+EC           =    -38.152124509
Transforming the Hamiltonian                       ... done (   0.0 sec)
Diagonalizing the Hamiltonian                      ... done (   0.0 sec)
Back transforming the eigenvectors                 ... done (   0.0 sec)
Now organizing SCF variables                       ... done
                      ------------------
                      INITIAL GUESS DONE (   0.3 sec)
                      ------------------
-------------------
DFT GRID GENERATION
-------------------

General Integration Accuracy     IntAcc      ... 4.388
Radial Grid Type                 RadialGrid  ... OptM3 with GC (2021)
Angular Grid (max. ang.)         AngularGrid ... 4 (Lebedev-302)
Angular grid pruning method      GridPruning ... 4 (adaptive)
Weight generation scheme         WeightScheme... Becke
Basis function cutoff            BFCut       ... 1.0000e-11
Integration weight cutoff        WCut        ... 1.0000e-14
Angular grids for H and He will be reduced by one unit
Partially contracted basis set               ... off
Rotationally invariant grid construction     ... off

Total number of grid points                  ...    68363
Total number of batches                      ...     1076
Average number of points per batch           ...       63
Average number of grid points per atom       ...     4273
Time for grid setup =    0.457 sec

--------------------
COSX GRID GENERATION
--------------------

GRIDX 1
-------
General Integration Accuracy     IntAcc      ... 3.816
Radial Grid Type                 RadialGrid  ... OptM3 with GC (2021)
Angular Grid (max. ang.)         AngularGrid ... 1 (Lebedev-50)
Angular grid pruning method      GridPruning ... 4 (adaptive)
Weight generation scheme         WeightScheme... Becke
Basis function cutoff            BFCut       ... 1.0000e-11
Integration weight cutoff        WCut        ... 1.0000e-14
Angular grids for H and He will be reduced by one unit
Partially contracted basis set               ... on
Rotationally invariant grid construction     ... off

Total number of grid points                  ...     8769
Total number of batches                      ...      148
Average number of points per batch           ...       59
Average number of grid points per atom       ...      548
UseSFitting                                  ... on

GRIDX 2
-------
General Integration Accuracy     IntAcc      ... 4.020
Radial Grid Type                 RadialGrid  ... OptM3 with GC (2021)
Angular Grid (max. ang.)         AngularGrid ... 2 (Lebedev-110)
Angular grid pruning method      GridPruning ... 4 (adaptive)
Weight generation scheme         WeightScheme... Becke
Basis function cutoff            BFCut       ... 1.0000e-11
Integration weight cutoff        WCut        ... 1.0000e-14
Angular grids for H and He will be reduced by one unit
Partially contracted basis set               ... on
Rotationally invariant grid construction     ... off

Total number of grid points                  ...    18455
Total number of batches                      ...      299
Average number of points per batch           ...       61
Average number of grid points per atom       ...     1153
UseSFitting                                  ... on

GRIDX 3
-------
General Integration Accuracy     IntAcc      ... 4.338
Radial Grid Type                 RadialGrid  ... OptM3 with GC (2021)
Angular Grid (max. ang.)         AngularGrid ... 3 (Lebedev-194)
Angular grid pruning method      GridPruning ... 4 (adaptive)
Weight generation scheme         WeightScheme... Becke
Basis function cutoff            BFCut       ... 1.0000e-11
Integration weight cutoff        WCut        ... 1.0000e-14
Angular grids for H and He will be reduced by one unit
Partially contracted basis set               ... on
Rotationally invariant grid construction     ... off

Total number of grid points                  ...    40420
Total number of batches                      ...      639
Average number of points per batch           ...       63
Average number of grid points per atom       ...     2526
UseSFitting                                  ... on

Time for X-Grid setup             =    0.458 sec

--------------
SCF ITERATIONS
--------------
ITER       Energy         Delta-E        Max-DP      RMS-DP      [F,P]     Damp
               ***  Starting incremental Fock matrix formation  ***
  0   -267.3906258702   0.000000000000 0.05526707  0.00120683  0.2461527 0.7000
  1   -267.5274497857  -0.136823915532 0.04526525  0.00094209  0.1294352 0.7000
                               ***Turning on DIIS***
  2   -267.5850904079  -0.057640622191 0.07059355  0.00165518  0.0486157 0.0000
  3   -267.6639835375  -0.078893129613 0.03349432  0.00066697  0.0765112 0.0000
  4   -267.6873016598  -0.023318122258 0.00941266  0.00022789  0.0162758 0.0000
  5   -267.6884490888  -0.001147429019 0.00312683  0.00009624  0.0040967 0.0000
                      *** Initiating the SOSCF procedure ***
                           *** Shutting down DIIS ***
                      *** Re-Reading the Fockian *** 
                      *** Removing any level shift *** 
ITER      Energy       Delta-E        Grad      Rot      Max-DP    RMS-DP
  6   -267.68851759  -0.0000684994  0.000357  0.000357  0.001072  0.000041
               *** Restarting incremental Fock matrix formation ***
  7   -267.68851061   0.0000069749  0.000155  0.000639  0.001130  0.000034
  8   -267.68851165  -0.0000010377  0.000022  0.000166  0.000296  0.000008
  9   -267.68851164   0.0000000090  0.000034  0.000052  0.000090  0.000003
 10   -267.68851171  -0.0000000685  0.000006  0.000018  0.000031  0.000001
 11   -267.68851171  -0.0000000021  0.000005  0.000009  0.000014  0.000000
                  ***Gradient check signals convergence***
              ***Rediagonalizing the Fockian in SOSCF/NRSCF***

               *****************************************************
               *                     SUCCESS                       *
               *           SCF CONVERGED AFTER  12 CYCLES          *
               *****************************************************

Old exchange energy                            =     -9.422030679 Eh
New exchange energy                            =     -9.422034629 Eh
Exchange energy change after final integration =     -0.000003951 Eh
Total energy after final integration           =   -267.688515666 Eh
Final COS-X integration done in                =     4.005 sec

----------------
TOTAL SCF ENERGY
----------------

Total Energy       :         -267.68851567 Eh           -7284.17483 eV

Components:
Nuclear Repulsion  :          248.61310064 Eh            6765.10640 eV
Electronic Energy  :         -516.30161630 Eh          -14049.28123 eV
One Electron Energy:         -853.26338712 Eh          -23218.47717 eV
Two Electron Energy:          336.96177082 Eh            9169.19594 eV
Max COSX asymmetry :            0.00000192 Eh               0.00005 eV

Virial components:
Potential Energy   :         -534.62509906 Eh          -14547.88855 eV
Kinetic Energy     :          266.93658340 Eh            7263.71371 eV
Virial Ratio       :            2.00281689


DFT components:
N(Alpha)           :       24.000006478925 electrons
N(Beta)            :       24.000006478925 electrons
N(Total)           :       48.000012957850 electrons
E(X)               :      -28.151702858951 Eh       
E(C)               :       -1.583582677440 Eh       
E(XC)              :      -29.735285536391 Eh       
DFET-embed. en.    :        0.000000000000 Eh       

---------------
SCF CONVERGENCE
---------------

  Last Energy change         ...   -2.3052e-09  Tolerance :   1.0000e-08
  Last MAX-Density change    ...    1.5543e-15  Tolerance :   1.0000e-07
  Last RMS-Density change    ...    1.7229e-17  Tolerance :   5.0000e-09
  Last Orbital Gradient      ...    7.2593e-07  Tolerance :   1.0000e-05
  Last Orbital Rotation      ...    2.2227e-06  Tolerance :   1.0000e-05

             **** THE GBW FILE WAS UPDATED (TZVP_PBE0_C2_wt_dlpno_pos.gbw) ****
             **** DENSITY TZVP_PBE0_C2_wt_dlpno_pos.scfp WAS UPDATED ****
             **** ENERGY FILE WAS UPDATED (TZVP_PBE0_C2_wt_dlpno_pos.en.tmp) ****
             **** THE GBW FILE WAS UPDATED (TZVP_PBE0_C2_wt_dlpno_pos.gbw) ****
             **** DENSITY TZVP_PBE0_C2_wt_dlpno_pos.scfp WAS UPDATED ****
----------------
ORBITAL ENERGIES
----------------

  NO   OCC          E(Eh)            E(eV) 
   0   2.0000     -14.384668      -391.4267 
   1   2.0000     -14.378440      -391.2572 
   2   2.0000     -10.262699      -279.2622 
   3   2.0000     -10.250669      -278.9349 
   4   2.0000     -10.202687      -277.6292 
   5   2.0000     -10.130548      -275.6662 
   6   2.0000      -0.987972       -26.8841 
   7   2.0000      -0.903320       -24.5806 
   8   2.0000      -0.778056       -21.1720 
   9   2.0000      -0.737380       -20.0651 
  10   2.0000      -0.655746       -17.8437 
  11   2.0000      -0.580169       -15.7872 
  12   2.0000      -0.557552       -15.1718 
  13   2.0000      -0.525722       -14.3056 
  14   2.0000      -0.469777       -12.7833 
  15   2.0000      -0.458421       -12.4743 
  16   2.0000      -0.437865       -11.9149 
  17   2.0000      -0.411205       -11.1895 
  18   2.0000      -0.395272       -10.7559 
  19   2.0000      -0.383006       -10.4221 
  20   2.0000      -0.364573        -9.9205 
  21   2.0000      -0.357050        -9.7158 
  22   2.0000      -0.260940        -7.1006 
  23   2.0000      -0.182008        -4.9527 
  24   0.0000       0.031098         0.8462 
  25   0.0000       0.060649         1.6503 
  26   0.0000       0.071269         1.9393 
  27   0.0000       0.087406         2.3784 
  28   0.0000       0.099702         2.7130 
  29   0.0000       0.107281         2.9193 
  30   0.0000       0.120519         3.2795 
  31   0.0000       0.130904         3.5621 
  32   0.0000       0.139469         3.7951 
  33   0.0000       0.151362         4.1188 
  34   0.0000       0.158130         4.3029 
  35   0.0000       0.181948         4.9511 
  36   0.0000       0.191603         5.2138 
  37   0.0000       0.208622         5.6769 
  38   0.0000       0.222280         6.0486 
  39   0.0000       0.241135         6.5616 
  40   0.0000       0.259894         7.0721 
  41   0.0000       0.263758         7.1772 
  42   0.0000       0.288794         7.8585 
  43   0.0000       0.302125         8.2212 
  44   0.0000       0.316130         8.6023 
  45   0.0000       0.319317         8.6890 
  46   0.0000       0.334189         9.0938 
  47   0.0000       0.346168         9.4197 
  48   0.0000       0.383232        10.4283 
  49   0.0000       0.394098        10.7239 
  50   0.0000       0.406596        11.0640 
  51   0.0000       0.415566        11.3081 
  52   0.0000       0.421594        11.4722 
  53   0.0000       0.441219        12.0062 
  54   0.0000       0.453006        12.3269 
  55   0.0000       0.457552        12.4506 
  56   0.0000       0.468505        12.7487 
  57   0.0000       0.473197        12.8763 
  58   0.0000       0.482662        13.1339 
  59   0.0000       0.491224        13.3669 
  60   0.0000       0.512052        13.9336 
  61   0.0000       0.518097        14.0981 
  62   0.0000       0.544511        14.8169 
  63   0.0000       0.549220        14.9450 
  64   0.0000       0.565359        15.3842 
  65   0.0000       0.568491        15.4694 
  66   0.0000       0.587642        15.9906 
  67   0.0000       0.604026        16.4364 
  68   0.0000       0.617477        16.8024 
  69   0.0000       0.641415        17.4538 
  70   0.0000       0.642691        17.4885 
  71   0.0000       0.697342        18.9756 
  72   0.0000       0.702181        19.1073 
  73   0.0000       0.744683        20.2639 
  74   0.0000       0.757979        20.6257 
  75   0.0000       0.768622        20.9153 
  76   0.0000       0.823053        22.3964 
  77   0.0000       0.857380        23.3305 
  78   0.0000       0.875009        23.8102 
  79   0.0000       0.880124        23.9494 
  80   0.0000       0.941689        25.6247 
  81   0.0000       0.981493        26.7078 
  82   0.0000       0.993138        27.0247 
  83   0.0000       1.021547        27.7977 
  84   0.0000       1.043100        28.3842 
  85   0.0000       1.073779        29.2190 
  86   0.0000       1.081025        29.4162 
  87   0.0000       1.114306        30.3218 
  88   0.0000       1.138297        30.9746 
  89   0.0000       1.146198        31.1896 
  90   0.0000       1.186690        32.2915 
  91   0.0000       1.194187        32.4955 
  92   0.0000       1.204849        32.7856 
  93   0.0000       1.271104        34.5885 
  94   0.0000       1.289803        35.0973 
  95   0.0000       1.333511        36.2867 
  96   0.0000       1.364688        37.1350 
  97   0.0000       1.424349        38.7585 
  98   0.0000       1.462280        39.7907 
  99   0.0000       1.497062        40.7371 
 100   0.0000       1.514146        41.2020 
 101   0.0000       1.517819        41.3020 
 102   0.0000       1.538114        41.8542 
 103   0.0000       1.553253        42.2662 
 104   0.0000       1.569562        42.7099 
 105   0.0000       1.576653        42.9029 
 106   0.0000       1.578539        42.9542 
 107   0.0000       1.594040        43.3760 
 108   0.0000       1.596930        43.4547 
 109   0.0000       1.620844        44.1054 
 110   0.0000       1.661850        45.2212 
 111   0.0000       1.682781        45.7908 
 112   0.0000       1.687821        45.9280 
 113   0.0000       1.714746        46.6606 
 114   0.0000       1.723789        46.9067 
 115   0.0000       1.738097        47.2960 
 116   0.0000       1.768425        48.1213 
 117   0.0000       1.793606        48.8065 
 118   0.0000       1.798978        48.9527 
 119   0.0000       1.824699        49.6526 
 120   0.0000       1.875531        51.0358 
 121   0.0000       1.894883        51.5624 
 122   0.0000       1.921443        52.2851 
 123   0.0000       1.934219        52.6328 
 124   0.0000       1.945780        52.9474 
 125   0.0000       1.975628        53.7596 
 126   0.0000       2.006193        54.5913 
 127   0.0000       2.048545        55.7438 
 128   0.0000       2.080472        56.6125 
 129   0.0000       2.099537        57.1313 
 130   0.0000       2.130280        57.9679 
 131   0.0000       2.186002        59.4841 
 132   0.0000       2.228271        60.6343 
 133   0.0000       2.260185        61.5028 
 134   0.0000       2.266865        61.6845 
 135   0.0000       2.338231        63.6265 
 136   0.0000       2.341169        63.7064 
 137   0.0000       2.362223        64.2793 
 138   0.0000       2.370426        64.5026 
 139   0.0000       2.386523        64.9406 
 140   0.0000       2.412509        65.6477 
 141   0.0000       2.426837        66.0376 
 142   0.0000       2.449172        66.6453 
 143   0.0000       2.486725        67.6672 
 144   0.0000       2.501197        68.0610 
 145   0.0000       2.513538        68.3968 
 146   0.0000       2.539913        69.1145 
 147   0.0000       2.579180        70.1830 
 148   0.0000       2.606513        70.9268 
 149   0.0000       2.628990        71.5385 
 150   0.0000       2.639884        71.8349 
 151   0.0000       2.644135        71.9506 
 152   0.0000       2.682906        73.0056 
 153   0.0000       2.697614        73.4058 
 154   0.0000       2.710743        73.7631 
 155   0.0000       2.727577        74.2212 
 156   0.0000       2.746222        74.7285 
 157   0.0000       2.751202        74.8640 
 158   0.0000       2.789576        75.9082 
 159   0.0000       2.830923        77.0333 
 160   0.0000       2.881391        78.4066 
 161   0.0000       2.907969        79.1298 
 162   0.0000       2.931826        79.7790 
 163   0.0000       2.986293        81.2612 
 164   0.0000       3.003178        81.7206 
 165   0.0000       3.029521        82.4375 
 166   0.0000       3.043603        82.8207 
 167   0.0000       3.056582        83.1738 
 168   0.0000       3.077278        83.7370 
 169   0.0000       3.120490        84.9129 
 170   0.0000       3.135095        85.3103 
 171   0.0000       3.167251        86.1853 
 172   0.0000       3.183832        86.6365 
 173   0.0000       3.208615        87.3109 
 174   0.0000       3.224429        87.7412 
 175   0.0000       3.243647        88.2641 
 176   0.0000       3.257673        88.6458 
 177   0.0000       3.275618        89.1341 
 178   0.0000       3.289509        89.5121 
 179   0.0000       3.316402        90.2439 
 180   0.0000       3.342168        90.9450 
 181   0.0000       3.360357        91.4400 
 182   0.0000       3.379725        91.9670 
 183   0.0000       3.388420        92.2036 
 184   0.0000       3.421637        93.1075 
 185   0.0000       3.465746        94.3077 
 186   0.0000       3.471842        94.4736 
 187   0.0000       3.482671        94.7683 
 188   0.0000       3.553228        96.6883 
 189   0.0000       3.570185        97.1497 
 190   0.0000       3.623461        98.5994 
 191   0.0000       3.646946        99.2384 
 192   0.0000       3.732582       101.5687 
 193   0.0000       3.762661       102.3872 
 194   0.0000       3.797686       103.3403 
 195   0.0000       3.804017       103.5126 
 196   0.0000       3.825871       104.1072 
 197   0.0000       3.869215       105.2867 
 198   0.0000       3.892542       105.9214 
 199   0.0000       3.908181       106.3470 
 200   0.0000       3.952546       107.5542 
 201   0.0000       4.005655       108.9994 
 202   0.0000       4.076043       110.9148 
 203   0.0000       4.112582       111.9090 
 204   0.0000       4.210379       114.5702 
 205   0.0000       4.231942       115.1570 
 206   0.0000       4.286885       116.6521 
 207   0.0000       4.353388       118.4617 
 208   0.0000       4.381378       119.2234 
 209   0.0000       4.421722       120.3212 
 210   0.0000       4.444124       120.9308 
 211   0.0000       4.473944       121.7422 
 212   0.0000       4.515192       122.8646 
 213   0.0000       4.561879       124.1350 
 214   0.0000       4.572541       124.4252 
 215   0.0000       4.635496       126.1383 
 216   0.0000       4.683688       127.4496 
 217   0.0000       4.752484       129.3217 
 218   0.0000       4.766508       129.7033 
 219   0.0000       4.784889       130.2035 
 220   0.0000       4.811177       130.9188 
 221   0.0000       4.924378       133.9991 
 222   0.0000       4.962340       135.0321 
 223   0.0000       4.968304       135.1944 
 224   0.0000       5.084704       138.3618 
 225   0.0000       5.118122       139.2712 
 226   0.0000       5.153523       140.2345 
 227   0.0000       5.186326       141.1271 
 228   0.0000       5.238993       142.5602 
 229   0.0000       5.277502       143.6081 
 230   0.0000       5.294975       144.0836 
 231   0.0000       5.366786       146.0377 
 232   0.0000       5.384221       146.5121 
 233   0.0000       5.419870       147.4822 
 234   0.0000       5.489030       149.3641 
 235   0.0000       5.640584       153.4881 
 236   0.0000       5.752805       156.5418 
 237   0.0000       5.952004       161.9623 
 238   0.0000       6.017434       163.7427 
 239   0.0000       6.154772       167.4799 
 240   0.0000      22.492232       612.0447 
 241   0.0000      22.589649       614.6956 
 242   0.0000      22.771802       619.6522 
 243   0.0000      23.472851       638.7288 
 244   0.0000      32.085337       873.0864 
 245   0.0000      32.671638       889.0405 

                    ********************************
                    * MULLIKEN POPULATION ANALYSIS *
                    ********************************

-----------------------
MULLIKEN ATOMIC CHARGES
-----------------------
   0 C :   -0.137123
   1 N :   -0.318980
   2 C :   -0.319042
   3 C :    0.387286
   4 C :   -0.563547
   5 N :   -0.505132
   6 H :    0.217792
   7 H :    0.247467
   8 H :    0.192362
   9 H :    0.117017
  10 H :    0.088541
  11 H :    0.135151
  12 H :    0.113959
  13 H :    0.114795
  14 H :    0.130419
  15 H :    0.099036
Sum of atomic charges:   -0.0000000

--------------------------------
MULLIKEN REDUCED ORBITAL CHARGES
--------------------------------
  0 C s       :     3.196260  s :     3.196260
      pz      :     0.788436  p :     2.810888
      px      :     0.977746
      py      :     1.044705
      dz2     :     0.026502  d :     0.121896
      dxz     :     0.040692
      dyz     :     0.016820
      dx2y2   :     0.027822
      dxy     :     0.010060
      f0      :     0.001584  f :     0.008080
      f+1     :     0.002011
      f-1     :     0.001488
      f+2     :     0.000895
      f-2     :     0.000641
      f+3     :     0.000771
      f-3     :     0.000691
  1 N s       :     3.423490  s :     3.423490
      pz      :     1.069237  p :     3.827434
      px      :     1.585726
      py      :     1.172471
      dz2     :     0.020114  d :     0.063836
      dxz     :     0.015331
      dyz     :     0.015106
      dx2y2   :     0.007718
      dxy     :     0.005568
      f0      :     0.000993  f :     0.004221
      f+1     :     0.000697
      f-1     :     0.000617
      f+2     :     0.000458
      f-2     :     0.000512
      f+3     :     0.000633
      f-3     :     0.000312
  2 C s       :     3.210302  s :     3.210302
      pz      :     1.038322  p :     3.052867
      px      :     0.984992
      py      :     1.029553
      dz2     :     0.012115  d :     0.052491
      dxz     :     0.010742
      dyz     :     0.003418
      dx2y2   :     0.019556
      dxy     :     0.006660
      f0      :     0.000464  f :     0.003382
      f+1     :     0.000582
      f-1     :     0.000394
      f+2     :     0.000455
      f-2     :     0.000219
      f+3     :     0.000652
      f-3     :     0.000616
  3 C s       :     2.990734  s :     2.990734
      pz      :     0.679708  p :     2.393213
      px      :     0.841369
      py      :     0.872136
      dz2     :     0.037224  d :     0.211078
      dxz     :     0.053723
      dyz     :     0.042995
      dx2y2   :     0.059348
      dxy     :     0.017788
      f0      :     0.003938  f :     0.017690
      f+1     :     0.002626
      f-1     :     0.002468
      f+2     :     0.002879
      f-2     :     0.003155
      f+3     :     0.000990
      f-3     :     0.001634
  4 C s       :     3.250332  s :     3.250332
      pz      :     1.083204  p :     3.266547
      px      :     1.074656
      py      :     1.108686
      dz2     :     0.004837  d :     0.041306
      dxz     :     0.008192
      dyz     :     0.006797
      dx2y2   :     0.013625
      dxy     :     0.007854
      f0      :     0.000494  f :     0.005363
      f+1     :     0.000637
      f-1     :     0.000456
      f+2     :     0.000414
      f-2     :     0.001084
      f+3     :     0.000888
      f-3     :     0.001390
  5 N s       :     3.453315  s :     3.453315
      pz      :     1.149635  p :     4.011629
      px      :     1.373750
      py      :     1.488244
      dz2     :     0.010006  d :     0.036819
      dxz     :     0.011627
      dyz     :     0.005376
      dx2y2   :     0.003875
      dxy     :     0.005935
      f0      :     0.000600  f :     0.003369
      f+1     :     0.000752
      f-1     :     0.000453
      f+2     :     0.000331
      f-2     :     0.000369
      f+3     :     0.000522
      f-3     :     0.000342
  6 H s       :     0.744239  s :     0.744239
      pz      :     0.005777  p :     0.037969
      px      :     0.015314
      py      :     0.016879
  7 H s       :     0.714602  s :     0.714602
      pz      :     0.014686  p :     0.037931
      px      :     0.012683
      py      :     0.010562
  8 H s       :     0.768390  s :     0.768390
      pz      :     0.006105  p :     0.039247
      px      :     0.015198
      py      :     0.017944
  9 H s       :     0.856764  s :     0.856764
      pz      :     0.010364  p :     0.026219
      px      :     0.008793
      py      :     0.007062
 10 H s       :     0.885351  s :     0.885351
      pz      :     0.010320  p :     0.026108
      px      :     0.006754
      py      :     0.009034
 11 H s       :     0.842904  s :     0.842904
      pz      :     0.003750  p :     0.021945
      px      :     0.004491
      py      :     0.013704
 12 H s       :     0.865148  s :     0.865148
      pz      :     0.006106  p :     0.020893
      px      :     0.010270
      py      :     0.004517
 13 H s       :     0.863158  s :     0.863158
      pz      :     0.011758  p :     0.022048
      px      :     0.005022
      py      :     0.005268
 14 H s       :     0.847407  s :     0.847407
      pz      :     0.006952  p :     0.022174
      px      :     0.010087
      py      :     0.005135
 15 H s       :     0.879059  s :     0.879059
      pz      :     0.004642  p :     0.021905
      px      :     0.004805
      py      :     0.012458


                     *******************************
                     * LOEWDIN POPULATION ANALYSIS *
                     *******************************

----------------------
LOEWDIN ATOMIC CHARGES
----------------------
   0 C :   -0.301697
   1 N :    0.114228
   2 C :   -0.310724
   3 C :   -0.463654
   4 C :   -0.332543
   5 N :   -0.034073
   6 H :    0.158655
   7 H :    0.170172
   8 H :    0.172389
   9 H :    0.102692
  10 H :    0.101941
  11 H :    0.141986
  12 H :    0.128397
  13 H :    0.118803
  14 H :    0.120592
  15 H :    0.112835

-------------------------------
LOEWDIN REDUCED ORBITAL CHARGES
-------------------------------
  0 C s       :     2.785886  s :     2.785886
      pz      :     0.891271  p :     2.992290
      px      :     1.048056
      py      :     1.052963
      dz2     :     0.106003  d :     0.470198
      dxz     :     0.151070
      dyz     :     0.064968
      dx2y2   :     0.105218
      dxy     :     0.042939
      f0      :     0.009419  f :     0.053322
      f+1     :     0.011056
      f-1     :     0.011124
      f+2     :     0.006256
      f-2     :     0.006530
      f+3     :     0.004877
      f-3     :     0.004061
  1 N s       :     2.914884  s :     2.914884
      pz      :     1.141393  p :     3.725284
      px      :     1.390584
      py      :     1.193307
      dz2     :     0.079135  d :     0.230117
      dxz     :     0.048398
      dyz     :     0.056070
      dx2y2   :     0.024253
      dxy     :     0.022261
      f0      :     0.003904  f :     0.015488
      f+1     :     0.002432
      f-1     :     0.002517
      f+2     :     0.002350
      f-2     :     0.002385
      f+3     :     0.001444
      f-3     :     0.000455
  2 C s       :     2.825679  s :     2.825679
      pz      :     1.063460  p :     3.200792
      px      :     1.066416
      py      :     1.070916
      dz2     :     0.059864  d :     0.258820
      dxz     :     0.053341
      dyz     :     0.019475
      dx2y2   :     0.087947
      dxy     :     0.038193
      f0      :     0.002536  f :     0.025432
      f+1     :     0.002901
      f-1     :     0.003527
      f+2     :     0.003440
      f-2     :     0.004289
      f+3     :     0.004559
      f-3     :     0.004180
  3 C s       :     2.696695  s :     2.696695
      pz      :     0.891308  p :     2.795051
      px      :     0.935776
      py      :     0.967967
      dz2     :     0.166018  d :     0.857039
      dxz     :     0.207442
      dyz     :     0.213841
      dx2y2   :     0.189410
      dxy     :     0.080328
      f0      :     0.026327  f :     0.114868
      f+1     :     0.017440
      f-1     :     0.017601
      f+2     :     0.020604
      f-2     :     0.019453
      f+3     :     0.006658
      f-3     :     0.006785
  4 C s       :     2.795449  s :     2.795449
      pz      :     1.035759  p :     3.276983
      px      :     1.102065
      py      :     1.139159
      dz2     :     0.032935  d :     0.228545
      dxz     :     0.060240
      dyz     :     0.052633
      dx2y2   :     0.041773
      dxy     :     0.040965
      f0      :     0.004074  f :     0.031566
      f+1     :     0.003592
      f-1     :     0.004425
      f+2     :     0.001721
      f-2     :     0.005403
      f+3     :     0.006203
      f-3     :     0.006148
  5 N s       :     2.987074  s :     2.987074
      pz      :     1.174735  p :     3.892187
      px      :     1.330812
      py      :     1.386641
      dz2     :     0.044869  d :     0.144230
      dxz     :     0.046235
      dyz     :     0.022618
      dx2y2   :     0.009523
      dxy     :     0.020986
      f0      :     0.002478  f :     0.010582
      f+1     :     0.001879
      f-1     :     0.001705
      f+2     :     0.001821
      f-2     :     0.001233
      f+3     :     0.000937
      f-3     :     0.000530
  6 H s       :     0.731712  s :     0.731712
      pz      :     0.016478  p :     0.109633
      px      :     0.042959
      py      :     0.050196
  7 H s       :     0.718379  s :     0.718379
      pz      :     0.041088  p :     0.111449
      px      :     0.040457
      py      :     0.029904
  8 H s       :     0.718697  s :     0.718697
      pz      :     0.017496  p :     0.108914
      px      :     0.039488
      py      :     0.051931
  9 H s       :     0.817556  s :     0.817556
      pz      :     0.030942  p :     0.079752
      px      :     0.026896
      py      :     0.021914
 10 H s       :     0.819394  s :     0.819394
      pz      :     0.032216  p :     0.078665
      px      :     0.021113
      py      :     0.025336
 11 H s       :     0.795873  s :     0.795873
      pz      :     0.010310  p :     0.062141
      px      :     0.013856
      py      :     0.037975
 12 H s       :     0.812310  s :     0.812310
      pz      :     0.016619  p :     0.059293
      px      :     0.027999
      py      :     0.014675
 13 H s       :     0.815731  s :     0.815731
      pz      :     0.033795  p :     0.065467
      px      :     0.014951
      py      :     0.016721
 14 H s       :     0.813247  s :     0.813247
      pz      :     0.021639  p :     0.066161
      px      :     0.028437
      py      :     0.016085
 15 H s       :     0.821854  s :     0.821854
      pz      :     0.014583  p :     0.065312
      px      :     0.015117
      py      :     0.035611


                      *****************************
                      * MAYER POPULATION ANALYSIS *
                      *****************************

  NA   - Mulliken gross atomic population
  ZA   - Total nuclear charge
  QA   - Mulliken gross atomic charge
  VA   - Mayer's total valence
  BVA  - Mayer's bonded valence
  FA   - Mayer's free valence

  ATOM       NA         ZA         QA         VA         BVA        FA
  0 C      6.1371     6.0000    -0.1371     3.9307     3.9307    -0.0000
  1 N      7.3190     7.0000    -0.3190     3.1195     3.1195    -0.0000
  2 C      6.3190     6.0000    -0.3190     3.8546     3.8546    -0.0000
  3 C      5.6127     6.0000     0.3873     3.9349     3.9349    -0.0000
  4 C      6.5635     6.0000    -0.5635     3.8428     3.8428    -0.0000
  5 N      7.5051     7.0000    -0.5051     3.0381     3.0381    -0.0000
  6 H      0.7822     1.0000     0.2178     0.9649     0.9649    -0.0000
  7 H      0.7525     1.0000     0.2475     0.9480     0.9480    -0.0000
  8 H      0.8076     1.0000     0.1924     0.9707     0.9707    -0.0000
  9 H      0.8830     1.0000     0.1170     0.9837     0.9837    -0.0000
 10 H      0.9115     1.0000     0.0885     1.0028     1.0028    -0.0000
 11 H      0.8648     1.0000     0.1352     0.9875     0.9875     0.0000
 12 H      0.8860     1.0000     0.1140     0.9685     0.9685     0.0000
 13 H      0.8852     1.0000     0.1148     0.9775     0.9775    -0.0000
 14 H      0.8696     1.0000     0.1304     0.9787     0.9787     0.0000
 15 H      0.9010     1.0000     0.0990     0.9876     0.9876    -0.0000

  Mayer bond orders larger than 0.100000
B(  0-C ,  1-N ) :   0.9466 B(  0-C ,  2-C ) :   0.9947 B(  0-C , 11-H ) :   0.9589 
B(  0-C , 12-H ) :   0.9678 B(  1-N ,  3-C ) :   1.1631 B(  1-N ,  8-H ) :   0.9199 
B(  2-C , 13-H ) :   0.9677 B(  2-C , 14-H ) :   0.9707 B(  2-C , 15-H ) :   0.9713 
B(  3-C ,  4-C ) :   1.6596 B(  3-C ,  5-N ) :   1.0942 B(  4-C ,  9-H ) :   0.9787 
B(  4-C , 10-H ) :   1.0007 B(  5-N ,  6-H ) :   0.9255 B(  5-N ,  7-H ) :   0.9150 


-------
TIMINGS
-------

Total SCF time: 0 days 0 hours 0 min 29 sec 

Total time                  ....      29.501 sec
Sum of individual times     ....      29.261 sec  ( 99.2%)

Fock matrix formation       ....      27.748 sec  ( 94.1%)
  Split-RI-J                ....       2.111 sec  (  7.6% of F)
  Chain of spheres X        ....      20.910 sec  ( 75.4% of F)
  XC integration            ....       4.527 sec  ( 16.3% of F)
    Basis function eval.    ....       1.489 sec  ( 32.9% of XC)
    Density eval.           ....       1.154 sec  ( 25.5% of XC)
    XC-Functional eval.     ....       0.222 sec  (  4.9% of XC)
    XC-Potential eval.      ....       1.406 sec  ( 31.1% of XC)
Diagonalization             ....       0.110 sec  (  0.4%)
Density matrix formation    ....       0.008 sec  (  0.0%)
Population analysis         ....       0.014 sec  (  0.0%)
Initial guess               ....       0.232 sec  (  0.8%)
Orbital Transformation      ....       0.000 sec  (  0.0%)
Orbital Orthonormalization  ....       0.000 sec  (  0.0%)
DIIS solution               ....       0.062 sec  (  0.2%)
SOSCF solution              ....       0.065 sec  (  0.2%)
Grid generation             ....       1.022 sec  (  3.5%)

Maximum memory used throughout the entire SCF-calculation: 73.8 MB


-------------------------------------------------------------------------------
                          DFT DISPERSION CORRECTION                            
                                                                               
                              DFTD3 V3.1  Rev 1                                
                          USING Becke-Johnson damping                          
-------------------------------------------------------------------------------
The PBE0 functional is recognized
Active option DFTDOPT                   ...         4   

molecular C6(AA) [au] = 1935.728242 


            DFT-D V3
 parameters
 s6 scaling factor         :     1.0000 
 a1 scaling factor         :     0.4145 
 s8 scaling factor         :     1.2177 
 a2 scaling factor         :     4.8593 
 ad hoc parameters k1-k3   :    16.0000     1.3333    -4.0000 

 Edisp/kcal,au: -6.778396025051  -0.010802060498 
 E6   /kcal   :  -4.418167208 
 E8   /kcal   :  -2.360228817 
 % E8         :  34.819871961 

-------------------------   ----------------
Dispersion correction           -0.010802060
-------------------------   ----------------


-------------------------   --------------------
FINAL SINGLE POINT ENERGY      -267.699317726092
-------------------------   --------------------


                            ***************************************
                            *     ORCA property calculations      *
                            ***************************************

                                    ---------------------
                                    Active property flags
                                    ---------------------
   (+) Dipole Moment


------------------------------------------------------------------------------
                       ORCA ELECTRIC PROPERTIES CALCULATION
------------------------------------------------------------------------------

Dipole Moment Calculation                       ... on
Quadrupole Moment Calculation                   ... off
Polarizability Calculation                      ... off
GBWName                                         ... TZVP_PBE0_C2_wt_dlpno_pos.gbw
Electron density file                           ... TZVP_PBE0_C2_wt_dlpno_pos.scfp
The origin for moment calculation is the CENTER OF MASS  = ( 8.834220, -2.993528 -8.257115)

-------------
DIPOLE MOMENT
-------------
                                X             Y             Z
Electronic contribution:      2.44462      -0.14082       3.53196
Nuclear contribution   :     -2.10948      -0.95026      -3.53375
                        -----------------------------------------
Total Dipole Moment    :      0.33514      -1.09108      -0.00180
                        -----------------------------------------
Magnitude (a.u.)       :      1.14140
Magnitude (Debye)      :      2.90120



--------------------
Rotational spectrum 
--------------------
 
Rotational constants in cm-1:     0.255209     0.072067     0.062929 
Rotational constants in MHz :  7650.964615  2160.525743  1886.569524 

 Dipole components along the rotational axes: 
x,y,z [a.u.] :    -0.126066    -0.997671     0.539947 
x,y,z [Debye]:    -0.320434    -2.535879     1.372437 

 

Timings for individual modules:

Sum of individual times         ...       33.902 sec (=   0.565 min)
GTO integral calculation        ...        2.562 sec (=   0.043 min)   7.6 %
SCF iterations                  ...       31.340 sec (=   0.522 min)  92.4 %
                             ****ORCA TERMINATED NORMALLY****
TOTAL RUN TIME: 0 days 0 hours 0 minutes 34 seconds 413 msec
