
                                        *****************
                                        * O   R   C   A *
                                        *****************

                                            #,                                       
                                            ###                                      
                                            ####                                     
                                            #####                                    
                                            ######                                   
                                           ########,                                 
                                     ,,################,,,,,                         
                               ,,#################################,,                 
                          ,,##########################################,,             
                       ,#########################################, ''#####,          
                    ,#############################################,,   '####,        
                  ,##################################################,,,,####,       
                ,###########''''           ''''###############################       
              ,#####''   ,,,,##########,,,,          '''####'''          '####       
            ,##' ,,,,###########################,,,                        '##       
           ' ,,###''''                  '''############,,,                           
         ,,##''                                '''############,,,,        ,,,,,,###''
      ,#''                                            '''#######################'''  
     '                                                          ''''####''''         
             ,#######,   #######,   ,#######,      ##                                
            ,#'     '#,  ##    ##  ,#'     '#,    #''#        ######   ,####,        
            ##       ##  ##   ,#'  ##            #'  '#       #        #'  '#        
            ##       ##  #######   ##           ,######,      #####,   #    #        
            '#,     ,#'  ##    ##  '#,     ,#' ,#      #,         ##   #,  ,#        
             '#######'   ##     ##  '#######'  #'      '#     #####' # '####'        



                  #######################################################
                  #                        -***-                        #
                  #          Department of theory and spectroscopy      #
                  #    Directorship and core code : Frank Neese         #
                  #        Max Planck Institute fuer Kohlenforschung    #
                  #                Kaiser Wilhelm Platz 1               #
                  #                 D-45470 Muelheim/Ruhr               #
                  #                      Germany                        #
                  #                                                     #
                  #                  All rights reserved                #
                  #                        -***-                        #
                  #######################################################


                         Program Version 5.0.0 -  RELEASE  -
                                (SVN: $Rev: 19529$)
                ($Date: 2021-06-28 11:36:33 +0200 (Mo, 28 Jun 2021) $)


 With contributions from (in alphabetic order):
   Daniel Aravena         : Magnetic Suceptibility
   Michael Atanasov       : Ab Initio Ligand Field Theory (pilot matlab implementation)
   Alexander A. Auer      : GIAO ZORA, VPT2 properties, NMR spectrum
   Ute Becker             : Parallelization
   Giovanni Bistoni       : ED, misc. LED, open-shell LED, HFLD
   Martin Brehm           : Molecular dynamics
   Dmytro Bykov           : SCF Hessian
   Vijay G. Chilkuri      : MRCI spin determinant printing, contributions to CSF-ICE
   Dipayan Datta          : RHF DLPNO-CCSD density
   Achintya Kumar Dutta   : EOM-CC, STEOM-CC
   Dmitry Ganyushin       : Spin-Orbit,Spin-Spin,Magnetic field MRCI
   Miquel Garcia          : C-PCM Hessian, Gaussian charge scheme
   Yang Guo               : DLPNO-NEVPT2, F12-NEVPT2, CIM, IAO-localization
   Andreas Hansen         : Spin unrestricted coupled pair/coupled cluster methods
   Benjamin Helmich-Paris : MC-RPA, TRAH-SCF, COSX integrals
   Lee Huntington         : MR-EOM, pCC
   Robert Izsak           : Overlap fitted RIJCOSX, COSX-SCS-MP3, EOM
   Marcus Kettner         : VPT2
   Christian Kollmar      : KDIIS, OOCD, Brueckner-CCSD(T), CCSD density, CASPT2, CASPT2-K
   Simone Kossmann        : Meta GGA functionals, TD-DFT gradient, OOMP2, MP2 Hessian
   Martin Krupicka        : Initial AUTO-CI
   Lucas Lang             : DCDCAS
   Marvin Lechner         : AUTO-CI (C++ implementation), FIC-MRCC
   Dagmar Lenk            : GEPOL surface, SMD
   Dimitrios Liakos       : Extrapolation schemes; Compound Job, initial MDCI parallelization
   Dimitrios Manganas     : Further ROCIS development; embedding schemes
   Dimitrios Pantazis     : SARC Basis sets
   Anastasios Papadopoulos: AUTO-CI, single reference methods and gradients
   Taras Petrenko         : DFT Hessian,TD-DFT gradient, ASA, ECA, R-Raman, ABS, FL, XAS/XES, NRVS
   Peter Pinski           : DLPNO-MP2, DLPNO-MP2 Gradient
   Christoph Reimann      : Effective Core Potentials
   Marius Retegan         : Local ZFS, SOC
   Christoph Riplinger    : Optimizer, TS searches, QM/MM, DLPNO-CCSD(T), (RO)-DLPNO pert. Triples
   Tobias Risthaus        : Range-separated hybrids, TD-DFT gradient, RPA, STAB
   Michael Roemelt        : Original ROCIS implementation
   Masaaki Saitow         : Open-shell DLPNO-CCSD energy and density
   Barbara Sandhoefer     : DKH picture change effects
   Avijit Sen             : IP-ROCIS
   Kantharuban Sivalingam : CASSCF convergence, NEVPT2, FIC-MRCI
   Bernardo de Souza      : ESD, SOC TD-DFT
   Georgi Stoychev        : AutoAux, RI-MP2 NMR
   Willem Van den Heuvel  : Paramagnetic NMR
   Boris Wezisla          : Elementary symmetry handling
   Frank Wennmohs         : Technical directorship


 We gratefully acknowledge several colleagues who have allowed us to
 interface, adapt or use parts of their codes:
   Stefan Grimme, W. Hujo, H. Kruse, P. Pracht,  : VdW corrections, initial TS optimization,
                  C. Bannwarth, S. Ehlert          DFT functionals, gCP, sTDA/sTD-DF
   Ed Valeev, F. Pavosevic, A. Kumar             : LibInt (2-el integral package), F12 methods
   Garnet Chan, S. Sharma, J. Yang, R. Olivares  : DMRG
   Ulf Ekstrom                                   : XCFun DFT Library
   Mihaly Kallay                                 : mrcc  (arbitrary order and MRCC methods)
   Jiri Pittner, Ondrej Demel                    : Mk-CCSD
   Frank Weinhold                                : gennbo (NPA and NBO analysis)
   Christopher J. Cramer and Donald G. Truhlar   : smd solvation model
   Lars Goerigk                                  : TD-DFT with DH, B97 family of functionals
   V. Asgeirsson, H. Jonsson                     : NEB implementation
   FAccTs GmbH                                   : IRC, NEB, NEB-TS, DLPNO-Multilevel, CI-OPT
                                                   MM, QMMM, 2- and 3-layer-ONIOM, Crystal-QMMM,
                                                   LR-CPCM, SF, NACMEs, symmetry and pop. for TD-DFT,
                                                   nearIR, NL-DFT gradient (VV10), updates on ESD,
                                                   ML-optimized integration grids
   S Lehtola, MJT Oliveira, MAL Marques          : LibXC Library
   Liviu Ungur et al                             : ANISO software


 Your calculation uses the libint2 library for the computation of 2-el integrals
 For citations please refer to: http://libint.valeyev.net

 Your ORCA version has been built with support for libXC version: 5.1.0
 For citations please refer to: https://tddft.org/programs/libxc/

 This ORCA versions uses:
   CBLAS   interface :  Fast vector & matrix operations
   LAPACKE interface :  Fast linear algebra routines
   SCALAPACK package :  Parallel linear algebra routines
   Shared memory     :  Shared parallel matrices
   BLAS/LAPACK       :  OpenBLAS 0.3.15  USE64BITINT DYNAMIC_ARCH NO_AFFINITY Haswell SINGLE_THREADED
        Core in use  :  Haswell
   Copyright (c) 2011-2014, The OpenBLAS Project


Your calculation utilizes the atom-pairwise dispersion correction
with the Becke-Johnson damping scheme (D3BJ)
Cite in your paper:
S.Grimme, S.Ehrlich, L.Goerigk, J Comput Chem, (2011), 32, 1456–1465 
S.Grimme, J.Antony, S.Ehrlich and H.Krieg, J.Chem.Phys., 132, (2010), 154104 
   

================================================================================

----- Orbital basis set information -----
Your calculation utilizes the basis: def2-TZVPD
   F. Weigend and R. Ahlrichs, Phys. Chem. Chem. Phys. 7, 3297 (2005).
   D. Rappoport and F. Furche, J. Chem. Phys. 133 134105 (2010).

----- AuxJ basis set information -----
Your calculation utilizes the auxiliary basis: def2/J
   F. Weigend, Phys. Chem. Chem. Phys. 8, 1057 (2006).

================================================================================
                                        WARNINGS
                       Please study these warnings very carefully!
================================================================================



WARNING: Found flag for RIJCOSX approximation but no HF exchange needed!
  ===> : RIJCOSX  will be disabled and Split-RI-J is turned on

INFO   : the flag for use of the SHARK integral package has been found!

================================================================================
                                       INPUT FILE
================================================================================
NAME = TZVPD_PBE_C1_wt_dlpno_neg.com
|  1> !PBE D3BJ RIJCOSX def2-TZVPD def2/J TightSCF
|  2> *xyz 0 1 
|  3> C         -1.10433        0.25137       -2.86006
|  4> C         -0.71189        0.84252       -4.21834
|  5> H          0.15463        1.49980       -4.13091
|  6> H         -1.53813        1.45922       -4.58267
|  7> C         -0.39762       -0.20587       -5.28802
|  8> F          0.61717       -0.00535       -5.99827
|  9> O         -1.13317       -1.22138       -5.34147
| 10> H         -1.95489       -0.38644       -2.98099
| 11> H         -1.34603        1.04362       -2.18269
| 12> H         -0.28606       -0.31581       -2.46809
| 13> *
| 14> 
| 15> %MaxCore 64000
| 16> 
| 17> %pal nprocs 4
| 18> end  
| 19> 
| 20> %scf
| 21>   MaxIter 150
| 22> end
| 23> 
| 24> 
| 25>                          ****END OF INPUT****
================================================================================

                       ****************************
                       * Single Point Calculation *
                       ****************************

---------------------------------
CARTESIAN COORDINATES (ANGSTROEM)
---------------------------------
  C     -1.104330    0.251370   -2.860060
  C     -0.711890    0.842520   -4.218340
  H      0.154630    1.499800   -4.130910
  H     -1.538130    1.459220   -4.582670
  C     -0.397620   -0.205870   -5.288020
  F      0.617170   -0.005350   -5.998270
  O     -1.133170   -1.221380   -5.341470
  H     -1.954890   -0.386440   -2.980990
  H     -1.346030    1.043620   -2.182690
  H     -0.286060   -0.315810   -2.468090

----------------------------
CARTESIAN COORDINATES (A.U.)
----------------------------
  NO LB      ZA    FRAG     MASS         X           Y           Z
   0 C     6.0000    0    12.011   -2.086881    0.475020   -5.404730
   1 C     6.0000    0    12.011   -1.345277    1.592132   -7.971507
   2 H     1.0000    0     1.008    0.292208    2.834211   -7.806289
   3 H     1.0000    0     1.008   -2.906644    2.757526   -8.659991
   4 C     6.0000    0    12.011   -0.751393   -0.389038   -9.992910
   5 F     9.0000    0    18.998    1.166282   -0.010110  -11.335088
   6 O     8.0000    0    15.999   -2.141381   -2.308074  -10.093915
   7 H     1.0000    0     1.008   -3.694207   -0.730266   -5.633255
   8 H     1.0000    0     1.008   -2.543628    1.972156   -4.124686
   9 H     1.0000    0     1.008   -0.540575   -0.596794   -4.664014

--------------------------------
INTERNAL COORDINATES (ANGSTROEM)
--------------------------------
 C      0   0   0     0.000000000000     0.00000000     0.00000000
 C      1   0   0     1.532446421413     0.00000000     0.00000000
 H      2   1   0     1.091108570996   111.39101663     0.00000000
 H      2   1   3     1.093493382010   108.62483049   242.78581503
 C      2   1   3     1.530392932354   114.06966130   122.30526750
 F      5   2   1     1.254775707846   116.88744745   223.97731069
 O      5   2   1     1.255050303813   117.62698629    40.66741348
 H      1   2   3     1.069989707708   109.47163010   180.00032036
 H      1   2   3     1.070004238029   109.47113029    59.99961782
 H      1   2   3     1.069999731869   109.47118987   300.00094368

---------------------------
INTERNAL COORDINATES (A.U.)
---------------------------
 C      0   0   0     0.000000000000     0.00000000     0.00000000
 C      1   0   0     2.895904051377     0.00000000     0.00000000
 H      2   1   0     2.061896381556   111.39101663     0.00000000
 H      2   1   3     2.066403021255   108.62483049   242.78581503
 C      2   1   3     2.892023519438   114.06966130   122.30526750
 F      5   2   1     2.371182447326   116.88744745   223.97731069
 O      5   2   1     2.371701358500   117.62698629    40.66741348
 H      1   2   3     2.021987513682   109.47163010   180.00032036
 H      1   2   3     2.022014972010   109.47113029    59.99961782
 H      1   2   3     2.022006456602   109.47118987   300.00094368

---------------------
BASIS SET INFORMATION
---------------------
There are 4 groups of distinct atoms

 Group   1 Type C   : 12s6p3d1f contracted to 6s3p3d1f pattern {621111/411/111/1}
 Group   2 Type H   : 5s2p contracted to 3s2p pattern {311/11}
 Group   3 Type F   : 12s7p3d1f contracted to 6s4p3d1f pattern {621111/4111/111/1}
 Group   4 Type O   : 12s7p3d1f contracted to 6s4p3d1f pattern {621111/4111/111/1}

Atom   0C    basis set group =>   1
Atom   1C    basis set group =>   1
Atom   2H    basis set group =>   2
Atom   3H    basis set group =>   2
Atom   4C    basis set group =>   1
Atom   5F    basis set group =>   3
Atom   6O    basis set group =>   4
Atom   7H    basis set group =>   2
Atom   8H    basis set group =>   2
Atom   9H    basis set group =>   2
---------------------------------
AUXILIARY/J BASIS SET INFORMATION
---------------------------------
There are 4 groups of distinct atoms

 Group   1 Type C   : 12s5p4d2f1g contracted to 6s4p3d1f1g pattern {711111/2111/211/2/1}
 Group   2 Type H   : 5s2p1d contracted to 3s1p1d pattern {311/2/1}
 Group   3 Type F   : 12s5p4d2f1g contracted to 6s4p3d1f1g pattern {711111/2111/211/2/1}
 Group   4 Type O   : 12s5p4d2f1g contracted to 6s4p3d1f1g pattern {711111/2111/211/2/1}

Atom   0C    basis set group =>   1
Atom   1C    basis set group =>   1
Atom   2H    basis set group =>   2
Atom   3H    basis set group =>   2
Atom   4C    basis set group =>   1
Atom   5F    basis set group =>   3
Atom   6O    basis set group =>   4
Atom   7H    basis set group =>   2
Atom   8H    basis set group =>   2
Atom   9H    basis set group =>   2


           ************************************************************
           *        Program running with 4 parallel MPI-processes     *
           *              working on a common directory               *
           ************************************************************
------------------------------------------------------------------------------
                           ORCA GTO INTEGRAL CALCULATION
                           -- RI-GTO INTEGRALS CHOSEN --
------------------------------------------------------------------------------
------------------------------------------------------------------------------
                   ___                                                        
                  /   \      - P O W E R E D   B Y -                         
                 /     \                                                     
                 |  |  |   _    _      __       _____    __    __             
                 |  |  |  | |  | |    /  \     |  _  \  |  |  /  |          
                  \  \/   | |  | |   /    \    | | | |  |  | /  /          
                 / \  \   | |__| |  /  /\  \   | |_| |  |  |/  /          
                |  |  |   |  __  | /  /__\  \  |    /   |      \           
                |  |  |   | |  | | |   __   |  |    \   |  |\   \          
                \     /   | |  | | |  |  |  |  | |\  \  |  | \   \       
                 \___/    |_|  |_| |__|  |__|  |_| \__\ |__|  \__/        
                                                                              
                      - O R C A' S   B I G   F R I E N D -                    
                                      &                                       
                       - I N T E G R A L  F E E D E R -                       
                                                                              
 v1 FN, 2020, v2 2021                                                         
------------------------------------------------------------------------------


Reading SHARK input file TZVPD_PBE_C1_wt_dlpno_neg.SHARKINP.tmp ... ok
----------------------
SHARK INTEGRAL PACKAGE
----------------------

Number of atoms                             ...     10
Number of basis functions                   ...    236
Number of shells                            ...     92
Maximum angular momentum                    ...      3
Integral batch strategy                     ... SHARK/LIBINT Hybrid
RI-J (if used) integral strategy            ... SPLIT-RIJ (Revised 2003 algorithm where possible)
Printlevel                                  ...      1
Contraction scheme used                     ... SEGMENTED contraction
Coulomb Range Separation                    ... NOT USED
Exchange Range Separation                   ... NOT USED
Finite Nucleus Model                        ... NOT USED
Auxiliary Coulomb fitting basis             ... AVAILABLE
   # of basis functions in Aux-J            ...    300
   # of shells in Aux-J                     ...    100
   Maximum angular momentum in Aux-J        ...      4
Auxiliary J/K fitting basis                 ... NOT available
Auxiliary Correlation fitting basis         ... NOT available
Auxiliary 'external' fitting basis          ... NOT available
Integral threshold                          ...     2.500000e-11
Primitive cut-off                           ...     2.500000e-12
Primitive pair pre-selection threshold      ...     2.500000e-12

Calculating pre-screening integrals         ... done (  0.1 sec) Dimension = 92
Organizing shell pair data                  ... done (  0.0 sec)
Shell pair information
Total number of shell pairs                 ...      4278
Shell pairs after pre-screening             ...      4151
Total number of primitive shell pairs       ...     11003
Primitive shell pairs kept                  ...      8901
          la=0 lb=0:    974 shell pairs
          la=1 lb=0:   1188 shell pairs
          la=1 lb=1:    376 shell pairs
          la=2 lb=0:    655 shell pairs
          la=2 lb=1:    401 shell pairs
          la=2 lb=2:    119 shell pairs
          la=3 lb=0:    214 shell pairs
          la=3 lb=1:    134 shell pairs
          la=3 lb=2:     75 shell pairs
          la=3 lb=3:     15 shell pairs

Calculating one electron integrals          ... done (  0.0 sec)
Calculating RI/J V-Matrix + Cholesky decomp.... done (  0.0 sec)
Calculating Nuclear repulsion               ... done (  0.0 sec) ENN=    176.456334722981 Eh

SHARK setup successfully completed in   0.2 seconds

Maximum memory used throughout the entire GTOINT-calculation: 13.9 MB


           ************************************************************
           *        Program running with 4 parallel MPI-processes     *
           *              working on a common directory               *
           ************************************************************
-------------------------------------------------------------------------------
                                 ORCA SCF
-------------------------------------------------------------------------------

------------
SCF SETTINGS
------------
Hamiltonian:
 Density Functional     Method          .... DFT(GTOs)
 Exchange Functional    Exchange        .... PBE
   PBE kappa parameter   XKappa         ....  0.804000
   PBE mue parameter    XMuePBE         ....  0.219520
 Correlation Functional Correlation     .... PBE
   PBE beta parameter  CBetaPBE         ....  0.066725
 LDA part of GGA corr.  LDAOpt          .... PW91-LDA
 Gradients option       PostSCFGGA      .... off
   Density functional embedding theory  .... OFF
   NL short-range parameter             ....  6.400000
 RI-approximation to the Coulomb term is turned on
   Number of AuxJ basis functions       .... 300


General Settings:
 Integral files         IntName         .... TZVPD_PBE_C1_wt_dlpno_neg
 Hartree-Fock type      HFTyp           .... RHF
 Total Charge           Charge          ....    0
 Multiplicity           Mult            ....    1
 Number of Electrons    NEL             ....   40
 Basis Dimension        Dim             ....  236
 Nuclear Repulsion      ENuc            ....    176.4563347230 Eh

Convergence Acceleration:
 DIIS                   CNVDIIS         .... on
   Start iteration      DIISMaxIt       ....    12
   Startup error        DIISStart       ....  0.200000
   # of expansion vecs  DIISMaxEq       ....     5
   Bias factor          DIISBfac        ....   1.050
   Max. coefficient     DIISMaxC        ....  10.000
 Trust-Rad. Augm. Hess. CNVTRAH         .... auto
   Auto Start mean grad. ratio tolernc. ....  1.125000
   Auto Start start iteration           ....    20
   Auto Start num. interpolation iter.  ....    10
   Max. Number of Micro iterations      ....    16
   Max. Number of Macro iterations      .... Maxiter - #DIIS iter
   Number of Davidson start vectors     ....     2
   Converg. threshold I  (grad. norm)   ....   1.000e-05
   Converg. threshold II (energy diff.) ....   1.000e-08
   Grad. Scal. Fac. for Micro threshold ....   0.100
   Minimum threshold for Micro iter.    ....   0.010
   NR start threshold (gradient norm)   ....   0.001
   Initial trust radius                 ....   0.400
   Minimum AH scaling param. (alpha)    ....   1.000
   Maximum AH scaling param. (alpha)    .... 1000.000
   Orbital update algorithm             .... Taylor
   White noise on init. David. guess    .... on
   Maximum white noise                  ....   0.010
   Quad. conv. algorithm                .... NR
 SOSCF                  CNVSOSCF        .... on
   Start iteration      SOSCFMaxIt      ....   150
   Startup grad/error   SOSCFStart      ....  0.003300
 Level Shifting         CNVShift        .... on
   Level shift para.    LevelShift      ....    0.2500
   Turn off err/grad.   ShiftErr        ....    0.0010
 Zerner damping         CNVZerner       .... off
 Static damping         CNVDamp         .... on
   Fraction old density DampFac         ....    0.7000
   Max. Damping (<1)    DampMax         ....    0.9800
   Min. Damping (>=0)   DampMin         ....    0.0000
   Turn off err/grad.   DampErr         ....    0.1000
 Fernandez-Rico         CNVRico         .... off

SCF Procedure:
 Maximum # iterations   MaxIter         ....   150
 SCF integral mode      SCFMode         .... Direct
   Integral package                     .... SHARK and LIBINT hybrid scheme
 Reset frequency        DirectResetFreq ....    20
 Integral Threshold     Thresh          ....  2.500e-11 Eh
 Primitive CutOff       TCut            ....  2.500e-12 Eh

Convergence Tolerance:
 Convergence Check Mode ConvCheckMode   .... Total+1el-Energy
 Convergence forced     ConvForced      .... 0
 Energy Change          TolE            ....  1.000e-08 Eh
 1-El. energy change                    ....  1.000e-05 Eh
 Orbital Gradient       TolG            ....  1.000e-05
 Orbital Rotation angle TolX            ....  1.000e-05
 DIIS Error             TolErr          ....  5.000e-07


Diagonalization of the overlap matrix:
Smallest eigenvalue                        ... 1.078e-05
Time for diagonalization                   ...    0.017 sec
Threshold for overlap eigenvalues          ... 1.000e-08
Number of eigenvalues below threshold      ... 0
Time for construction of square roots      ...    0.010 sec
Total time needed                          ...    0.028 sec

Time for model grid setup =    0.079 sec

------------------------------
INITIAL GUESS: MODEL POTENTIAL
------------------------------
Loading Hartree-Fock densities                     ... done
Calculating cut-offs                               ... done
Initializing the effective Hamiltonian             ... done
Setting up the integral package (SHARK)            ... done
Starting the Coulomb interaction                   ... done (   0.1 sec)
Reading the grid                                   ... done
Mapping shells                                     ... done
Starting the XC term evaluation                    ... done (   0.1 sec)
  promolecular density results
     # of electrons  =     39.998203193
     EX              =    -34.958310720
     EC              =     -1.330131537
     EX+EC           =    -36.288442256
Transforming the Hamiltonian                       ... done (   0.0 sec)
Diagonalizing the Hamiltonian                      ... done (   0.0 sec)
Back transforming the eigenvectors                 ... done (   0.0 sec)
Now organizing SCF variables                       ... done
                      ------------------
                      INITIAL GUESS DONE (   0.3 sec)
                      ------------------
-------------------
DFT GRID GENERATION
-------------------

General Integration Accuracy     IntAcc      ... 4.388
Radial Grid Type                 RadialGrid  ... OptM3 with GC (2021)
Angular Grid (max. ang.)         AngularGrid ... 4 (Lebedev-302)
Angular grid pruning method      GridPruning ... 4 (adaptive)
Weight generation scheme         WeightScheme... Becke
Basis function cutoff            BFCut       ... 1.0000e-11
Integration weight cutoff        WCut        ... 1.0000e-14
Angular grids for H and He will be reduced by one unit
Partially contracted basis set               ... off
Rotationally invariant grid construction     ... off

Total number of grid points                  ...    49089
Total number of batches                      ...      771
Average number of points per batch           ...       63
Average number of grid points per atom       ...     4909
Time for grid setup =    0.347 sec

--------------
SCF ITERATIONS
--------------
ITER       Energy         Delta-E        Max-DP      RMS-DP      [F,P]     Damp
               ***  Starting incremental Fock matrix formation  ***
  0   -291.9783089584   0.000000000000 0.06597429  0.00166639  0.2863842 0.7000
  1   -292.0889732164  -0.110664258058 0.03285120  0.00092318  0.0835116 0.7000
                               ***Turning on DIIS***
  2   -292.1132001180  -0.024226901525 0.07595545  0.00139316  0.0431659 0.0000
  3   -292.1773534348  -0.064153316861 0.03111407  0.00061311  0.0541701 0.0000
  4   -292.1844924123  -0.007138977516 0.01679195  0.00024019  0.0411267 0.0000
  5   -292.1876580855  -0.003165673140 0.00290752  0.00009335  0.0076202 0.0000
                      *** Initiating the SOSCF procedure ***
                           *** Shutting down DIIS ***
                      *** Re-Reading the Fockian *** 
                      *** Removing any level shift *** 
ITER      Energy       Delta-E        Grad      Rot      Max-DP    RMS-DP
  6   -292.18783486  -0.0001767729  0.000768  0.000768  0.001108  0.000040
               *** Restarting incremental Fock matrix formation ***
  7   -292.18785436  -0.0000195064  0.000310  0.001291  0.001133  0.000033
  8   -292.18784797   0.0000063948  0.000758  0.000930  0.000649  0.000013
  9   -292.18785625  -0.0000082767  0.000251  0.000641  0.000585  0.000011
 10   -292.18785379   0.0000024558  0.000488  0.000464  0.000366  0.000007
 11   -292.18785677  -0.0000029841  0.000034  0.000065  0.000191  0.000002
 12   -292.18785676   0.0000000197  0.000040  0.000036  0.000047  0.000001
                  ***Gradient check signals convergence***
              ***Rediagonalizing the Fockian in SOSCF/NRSCF***

               *****************************************************
               *                     SUCCESS                       *
               *           SCF CONVERGED AFTER  13 CYCLES          *
               *****************************************************


----------------
TOTAL SCF ENERGY
----------------

Total Energy       :         -292.18785680 Eh           -7950.83580 eV

Components:
Nuclear Repulsion  :          176.45633472 Eh            4801.62098 eV
Electronic Energy  :         -468.64419152 Eh          -12752.45677 eV
One Electron Energy:         -749.36101348 Eh          -20391.14984 eV
Two Electron Energy:          280.71682196 Eh            7638.69307 eV

Virial components:
Potential Energy   :         -583.33897013 Eh          -15873.46037 eV
Kinetic Energy     :          291.15111333 Eh            7922.62457 eV
Virial Ratio       :            2.00356084


DFT components:
N(Alpha)           :       19.999962587241 electrons
N(Beta)            :       19.999962587241 electrons
N(Total)           :       39.999925174483 electrons
E(X)               :      -35.533406307486 Eh       
E(C)               :       -1.332386205141 Eh       
E(XC)              :      -36.865792512627 Eh       
DFET-embed. en.    :        0.000000000000 Eh       

---------------
SCF CONVERGENCE
---------------

  Last Energy change         ...   -4.2319e-08  Tolerance :   1.0000e-08
  Last MAX-Density change    ...    4.4106e-05  Tolerance :   1.0000e-07
  Last RMS-Density change    ...    7.6906e-07  Tolerance :   5.0000e-09
  Last Orbital Gradient      ...    1.3450e-06  Tolerance :   1.0000e-05
  Last Orbital Rotation      ...    4.7694e-06  Tolerance :   1.0000e-05

             **** THE GBW FILE WAS UPDATED (TZVPD_PBE_C1_wt_dlpno_neg.gbw) ****
             **** DENSITY TZVPD_PBE_C1_wt_dlpno_neg.scfp WAS UPDATED ****
             **** ENERGY FILE WAS UPDATED (TZVPD_PBE_C1_wt_dlpno_neg.en.tmp) ****
             **** THE GBW FILE WAS UPDATED (TZVPD_PBE_C1_wt_dlpno_neg.gbw) ****
             **** DENSITY TZVPD_PBE_C1_wt_dlpno_neg.scfp WAS UPDATED ****
----------------
ORBITAL ENERGIES
----------------

  NO   OCC          E(Eh)            E(eV) 
   0   2.0000     -24.326987      -661.9710 
   1   2.0000     -18.754688      -510.3410 
   2   2.0000     -10.048366      -273.4299 
   3   2.0000      -9.913106      -269.7493 
   4   2.0000      -9.882503      -268.9166 
   5   2.0000      -1.216541       -33.1038 
   6   2.0000      -0.946448       -25.7542 
   7   2.0000      -0.726766       -19.7763 
   8   2.0000      -0.625434       -17.0189 
   9   2.0000      -0.575028       -15.6473 
  10   2.0000      -0.489554       -13.3214 
  11   2.0000      -0.475261       -12.9325 
  12   2.0000      -0.450741       -12.2653 
  13   2.0000      -0.416266       -11.3272 
  14   2.0000      -0.383962       -10.4481 
  15   2.0000      -0.352477        -9.5914 
  16   2.0000      -0.332045        -9.0354 
  17   2.0000      -0.329234        -8.9589 
  18   2.0000      -0.308526        -8.3954 
  19   2.0000      -0.245490        -6.6801 
  20   0.0000      -0.068041        -1.8515 
  21   0.0000      -0.014280        -0.3886 
  22   0.0000       0.014017         0.3814 
  23   0.0000       0.025245         0.6870 
  24   0.0000       0.033429         0.9097 
  25   0.0000       0.059936         1.6309 
  26   0.0000       0.067333         1.8322 
  27   0.0000       0.067973         1.8496 
  28   0.0000       0.083349         2.2680 
  29   0.0000       0.083757         2.2791 
  30   0.0000       0.104337         2.8392 
  31   0.0000       0.108106         2.9417 
  32   0.0000       0.118958         3.2370 
  33   0.0000       0.130667         3.5556 
  34   0.0000       0.134012         3.6467 
  35   0.0000       0.143615         3.9080 
  36   0.0000       0.151713         4.1283 
  37   0.0000       0.170264         4.6331 
  38   0.0000       0.182779         4.9737 
  39   0.0000       0.186392         5.0720 
  40   0.0000       0.198276         5.3954 
  41   0.0000       0.212994         5.7959 
  42   0.0000       0.217820         5.9272 
  43   0.0000       0.234850         6.3906 
  44   0.0000       0.242387         6.5957 
  45   0.0000       0.251366         6.8400 
  46   0.0000       0.255712         6.9583 
  47   0.0000       0.261540         7.1169 
  48   0.0000       0.271724         7.3940 
  49   0.0000       0.277151         7.5417 
  50   0.0000       0.281452         7.6587 
  51   0.0000       0.290540         7.9060 
  52   0.0000       0.294795         8.0218 
  53   0.0000       0.304096         8.2749 
  54   0.0000       0.311065         8.4645 
  55   0.0000       0.321827         8.7574 
  56   0.0000       0.329348         8.9620 
  57   0.0000       0.337026         9.1710 
  58   0.0000       0.350128         9.5275 
  59   0.0000       0.361522         9.8375 
  60   0.0000       0.371064        10.0972 
  61   0.0000       0.375059        10.2059 
  62   0.0000       0.382442        10.4068 
  63   0.0000       0.393227        10.7002 
  64   0.0000       0.401573        10.9274 
  65   0.0000       0.414379        11.2758 
  66   0.0000       0.419670        11.4198 
  67   0.0000       0.427079        11.6214 
  68   0.0000       0.438076        11.9207 
  69   0.0000       0.440137        11.9767 
  70   0.0000       0.452732        12.3195 
  71   0.0000       0.473484        12.8841 
  72   0.0000       0.485367        13.2075 
  73   0.0000       0.508755        13.8439 
  74   0.0000       0.520095        14.1525 
  75   0.0000       0.538261        14.6468 
  76   0.0000       0.552536        15.0353 
  77   0.0000       0.569073        15.4853 
  78   0.0000       0.579064        15.7571 
  79   0.0000       0.589094        16.0301 
  80   0.0000       0.604309        16.4441 
  81   0.0000       0.611349        16.6356 
  82   0.0000       0.622355        16.9352 
  83   0.0000       0.637361        17.3435 
  84   0.0000       0.646139        17.5823 
  85   0.0000       0.654819        17.8185 
  86   0.0000       0.657840        17.9007 
  87   0.0000       0.663948        18.0669 
  88   0.0000       0.672540        18.3008 
  89   0.0000       0.673763        18.3340 
  90   0.0000       0.678669        18.4675 
  91   0.0000       0.693042        18.8586 
  92   0.0000       0.731823        19.9139 
  93   0.0000       0.743733        20.2380 
  94   0.0000       0.763155        20.7665 
  95   0.0000       0.771063        20.9817 
  96   0.0000       0.801118        21.7995 
  97   0.0000       0.810912        22.0660 
  98   0.0000       0.850455        23.1421 
  99   0.0000       0.875848        23.8330 
 100   0.0000       0.887951        24.1624 
 101   0.0000       0.912742        24.8370 
 102   0.0000       0.921730        25.0816 
 103   0.0000       0.929618        25.2962 
 104   0.0000       0.976150        26.5624 
 105   0.0000       0.993179        27.0258 
 106   0.0000       1.018633        27.7184 
 107   0.0000       1.063752        28.9462 
 108   0.0000       1.085099        29.5271 
 109   0.0000       1.120957        30.5028 
 110   0.0000       1.164029        31.6749 
 111   0.0000       1.171099        31.8672 
 112   0.0000       1.180931        32.1348 
 113   0.0000       1.210671        32.9440 
 114   0.0000       1.224517        33.3208 
 115   0.0000       1.254908        34.1478 
 116   0.0000       1.269139        34.5350 
 117   0.0000       1.310656        35.6648 
 118   0.0000       1.327605        36.1260 
 119   0.0000       1.414468        38.4896 
 120   0.0000       1.470487        40.0140 
 121   0.0000       1.573437        42.8154 
 122   0.0000       1.639840        44.6223 
 123   0.0000       1.668578        45.4043 
 124   0.0000       1.704729        46.3880 
 125   0.0000       1.711671        46.5769 
 126   0.0000       1.741439        47.3870 
 127   0.0000       1.754717        47.7483 
 128   0.0000       1.763899        47.9981 
 129   0.0000       1.772234        48.2249 
 130   0.0000       1.794096        48.8198 
 131   0.0000       1.815771        49.4096 
 132   0.0000       1.855513        50.4911 
 133   0.0000       1.889241        51.4089 
 134   0.0000       1.938972        52.7621 
 135   0.0000       1.947868        53.0042 
 136   0.0000       1.957492        53.2661 
 137   0.0000       2.013426        54.7881 
 138   0.0000       2.070132        56.3311 
 139   0.0000       2.096942        57.0607 
 140   0.0000       2.158695        58.7411 
 141   0.0000       2.174627        59.1746 
 142   0.0000       2.229233        60.6605 
 143   0.0000       2.282810        62.1184 
 144   0.0000       2.301427        62.6250 
 145   0.0000       2.340561        63.6899 
 146   0.0000       2.344479        63.7965 
 147   0.0000       2.375025        64.6277 
 148   0.0000       2.425782        66.0089 
 149   0.0000       2.445336        66.5410 
 150   0.0000       2.461918        66.9922 
 151   0.0000       2.471628        67.2564 
 152   0.0000       2.513392        68.3929 
 153   0.0000       2.548756        69.3552 
 154   0.0000       2.591706        70.5239 
 155   0.0000       2.615087        71.1601 
 156   0.0000       2.623238        71.3819 
 157   0.0000       2.660442        72.3943 
 158   0.0000       2.682001        72.9810 
 159   0.0000       2.734124        74.3993 
 160   0.0000       2.742870        74.6373 
 161   0.0000       2.810511        76.4779 
 162   0.0000       2.817171        76.6591 
 163   0.0000       2.900240        78.9195 
 164   0.0000       2.948494        80.2326 
 165   0.0000       2.971134        80.8487 
 166   0.0000       3.028160        82.4004 
 167   0.0000       3.058427        83.2240 
 168   0.0000       3.077550        83.7444 
 169   0.0000       3.115164        84.7679 
 170   0.0000       3.121586        84.9427 
 171   0.0000       3.145627        85.5969 
 172   0.0000       3.172851        86.3377 
 173   0.0000       3.218220        87.5722 
 174   0.0000       3.229376        87.8758 
 175   0.0000       3.250249        88.4438 
 176   0.0000       3.267133        88.9032 
 177   0.0000       3.330362        90.6238 
 178   0.0000       3.331993        90.6681 
 179   0.0000       3.363478        91.5249 
 180   0.0000       3.384233        92.0897 
 181   0.0000       3.406051        92.6834 
 182   0.0000       3.453085        93.9632 
 183   0.0000       3.468706        94.3883 
 184   0.0000       3.505984        95.4027 
 185   0.0000       3.512100        95.5691 
 186   0.0000       3.545611        96.4810 
 187   0.0000       3.645714        99.2049 
 188   0.0000       3.743318       101.8608 
 189   0.0000       3.757430       102.2449 
 190   0.0000       3.848607       104.7259 
 191   0.0000       3.875453       105.4564 
 192   0.0000       3.888362       105.8077 
 193   0.0000       3.978686       108.2656 
 194   0.0000       3.996641       108.7541 
 195   0.0000       4.068205       110.7015 
 196   0.0000       4.140564       112.6705 
 197   0.0000       4.196603       114.1954 
 198   0.0000       4.362864       118.7196 
 199   0.0000       4.418961       120.2460 
 200   0.0000       4.480596       121.9232 
 201   0.0000       4.539549       123.5274 
 202   0.0000       4.592519       124.9688 
 203   0.0000       4.623828       125.8208 
 204   0.0000       4.793444       130.4362 
 205   0.0000       4.851174       132.0072 
 206   0.0000       5.054156       137.5306 
 207   0.0000       5.078336       138.1886 
 208   0.0000       5.321100       144.7945 
 209   0.0000       5.387899       146.6122 
 210   0.0000       5.536534       150.6567 
 211   0.0000       5.864776       159.5887 
 212   0.0000       6.092949       165.7976 
 213   0.0000       6.152347       167.4139 
 214   0.0000       6.364460       173.1858 
 215   0.0000       6.442003       175.2958 
 216   0.0000       6.634554       180.5354 
 217   0.0000       6.678410       181.7288 
 218   0.0000       6.730716       183.1521 
 219   0.0000       6.755270       183.8202 
 220   0.0000       6.929212       188.5534 
 221   0.0000       6.982812       190.0120 
 222   0.0000       7.072439       192.4508 
 223   0.0000       7.250413       197.2938 
 224   0.0000       7.416208       201.8053 
 225   0.0000       7.691001       209.2828 
 226   0.0000       8.330476       226.6838 
 227   0.0000       8.386095       228.1972 
 228   0.0000       8.656226       235.5479 
 229   0.0000       8.857934       241.0366 
 230   0.0000       9.064605       246.6605 
 231   0.0000      22.295764       606.6986 
 232   0.0000      22.340652       607.9200 
 233   0.0000      23.128787       629.3663 
 234   0.0000      43.770798      1191.0640 
 235   0.0000      57.012632      1551.3926 

                    ********************************
                    * MULLIKEN POPULATION ANALYSIS *
                    ********************************

-----------------------
MULLIKEN ATOMIC CHARGES
-----------------------
   0 C :   -0.808873
   1 C :    0.034643
   2 H :    0.168162
   3 H :    0.153258
   4 C :    0.353961
   5 F :   -0.154658
   6 O :   -0.429128
   7 H :    0.232076
   8 H :    0.206944
   9 H :    0.243614
Sum of atomic charges:    0.0000000

--------------------------------
MULLIKEN REDUCED ORBITAL CHARGES
--------------------------------
  0 C s       :     3.235426  s :     3.235426
      pz      :     1.040475  p :     3.493803
      px      :     1.252127
      py      :     1.201201
      dz2     :     0.013016  d :     0.076616
      dxz     :     0.009830
      dyz     :     0.025856
      dx2y2   :     0.002972
      dxy     :     0.024942
      f0      :     0.000773  f :     0.003028
      f+1     :     0.000388
      f-1     :     0.000635
      f+2     :     0.000287
      f-2     :     0.000602
      f+3     :     0.000001
      f-3     :     0.000342
  1 C s       :     2.949719  s :     2.949719
      pz      :     0.963067  p :     2.978792
      px      :     1.092123
      py      :     0.923602
      dz2     :     0.021614  d :     0.031747
      dxz     :    -0.008719
      dyz     :     0.009196
      dx2y2   :    -0.017283
      dxy     :     0.026939
      f0      :     0.000992  f :     0.005098
      f+1     :     0.000563
      f-1     :     0.001139
      f+2     :     0.000737
      f-2     :     0.001000
      f+3     :     0.000134
      f-3     :     0.000532
  2 H s       :     0.782461  s :     0.782461
      pz      :     0.014564  p :     0.049377
      px      :     0.024000
      py      :     0.010813
  3 H s       :     0.798822  s :     0.798822
      pz      :     0.016902  p :     0.047920
      px      :     0.025663
      py      :     0.005355
  4 C s       :     3.202329  s :     3.202329
      pz      :     0.738834  p :     2.096186
      px      :     0.625547
      py      :     0.731805
      dz2     :     0.057765  d :     0.320317
      dxz     :     0.042458
      dyz     :     0.071903
      dx2y2   :     0.071980
      dxy     :     0.076211
      f0      :     0.002896  f :     0.027207
      f+1     :     0.004909
      f-1     :     0.001541
      f+2     :     0.002707
      f-2     :     0.005626
      f+3     :     0.003489
      f-3     :     0.006040
  5 F s       :     3.990236  s :     3.990236
      pz      :     1.712620  p :     5.143331
      px      :     1.564118
      py      :     1.866593
      dz2     :     0.005237  d :     0.020222
      dxz     :     0.004295
      dyz     :     0.003059
      dx2y2   :     0.004188
      dxy     :     0.003445
      f0      :     0.000081  f :     0.000868
      f+1     :     0.000198
      f-1     :     0.000020
      f+2     :     0.000203
      f-2     :     0.000140
      f+3     :     0.000118
      f-3     :     0.000107
  6 O s       :     3.971803  s :     3.971803
      pz      :     1.612514  p :     4.426283
      px      :     1.457288
      py      :     1.356480
      dz2     :     0.003070  d :     0.029431
      dxz     :     0.003628
      dyz     :     0.006184
      dx2y2   :     0.009558
      dxy     :     0.006991
      f0      :     0.000215  f :     0.001611
      f+1     :     0.000101
      f-1     :     0.000149
      f+2     :     0.000037
      f-2     :     0.000285
      f+3     :     0.000338
      f-3     :     0.000485
  7 H s       :     0.695673  s :     0.695673
      pz      :     0.007112  p :     0.072251
      px      :     0.040971
      py      :     0.024167
  8 H s       :     0.721304  s :     0.721304
      pz      :     0.027688  p :     0.071752
      px      :     0.018996
      py      :     0.025068
  9 H s       :     0.692234  s :     0.692234
      pz      :     0.014567  p :     0.064152
      px      :     0.028678
      py      :     0.020907


                     *******************************
                     * LOEWDIN POPULATION ANALYSIS *
                     *******************************

----------------------
LOEWDIN ATOMIC CHARGES
----------------------
   0 C :   -0.088490
   1 C :   -0.160980
   2 H :    0.107194
   3 H :    0.121434
   4 C :   -0.517421
   5 F :    0.225749
   6 O :    0.100290
   7 H :    0.070368
   8 H :    0.068055
   9 H :    0.073801

-------------------------------
LOEWDIN REDUCED ORBITAL CHARGES
-------------------------------
  0 C s       :     2.727908  s :     2.727908
      pz      :     0.931204  p :     2.886967
      px      :     0.982472
      py      :     0.973291
      dz2     :     0.098966  d :     0.446974
      dxz     :     0.092844
      dyz     :     0.138070
      dx2y2   :     0.026132
      dxy     :     0.090963
      f0      :     0.005690  f :     0.026640
      f+1     :     0.004672
      f-1     :     0.004103
      f+2     :     0.004719
      f-2     :     0.003047
      f+3     :     0.000998
      f-3     :     0.003411
  1 C s       :     2.683203  s :     2.683203
      pz      :     0.907573  p :     2.759800
      px      :     0.939124
      py      :     0.913103
      dz2     :     0.175284  d :     0.680648
      dxz     :     0.132070
      dyz     :     0.179289
      dx2y2   :     0.051890
      dxy     :     0.142115
      f0      :     0.006815  f :     0.037329
      f+1     :     0.005644
      f-1     :     0.006655
      f+2     :     0.006851
      f-2     :     0.005021
      f+3     :     0.001715
      f-3     :     0.004627
  2 H s       :     0.682170  s :     0.682170
      pz      :     0.053897  p :     0.210636
      px      :     0.086681
      py      :     0.070058
  3 H s       :     0.673158  s :     0.673158
      pz      :     0.057447  p :     0.205408
      px      :     0.082040
      py      :     0.065921
  4 C s       :     2.649828  s :     2.649828
      pz      :     0.745778  p :     2.357591
      px      :     0.753686
      py      :     0.858127
      dz2     :     0.215781  d :     1.333043
      dxz     :     0.244437
      dyz     :     0.249376
      dx2y2   :     0.314253
      dxy     :     0.309197
      f0      :     0.020370  f :     0.176959
      f+1     :     0.029665
      f-1     :     0.011063
      f+2     :     0.024047
      f-2     :     0.030641
      f+3     :     0.023869
      f-3     :     0.037304
  5 F s       :     3.512798  s :     3.512798
      pz      :     1.675632  p :     5.037959
      px      :     1.616962
      py      :     1.745365
      dz2     :     0.039533  d :     0.221259
      dxz     :     0.062629
      dyz     :     0.028447
      dx2y2   :     0.040386
      dxy     :     0.050265
      f0      :     0.000194  f :     0.002235
      f+1     :     0.000503
      f-1     :     0.000042
      f+2     :     0.000504
      f-2     :     0.000397
      f+3     :     0.000277
      f-3     :     0.000318
  6 O s       :     3.380182  s :     3.380182
      pz      :     1.447555  p :     4.301599
      px      :     1.415155
      py      :     1.438889
      dz2     :     0.028985  d :     0.212617
      dxz     :     0.022287
      dyz     :     0.043715
      dx2y2   :     0.056399
      dxy     :     0.061231
      f0      :     0.000531  f :     0.005312
      f+1     :     0.000422
      f-1     :     0.000676
      f+2     :     0.000099
      f-2     :     0.000757
      f+3     :     0.001557
      f-3     :     0.001270
  7 H s       :     0.693634  s :     0.693634
      pz      :     0.065091  p :     0.235998
      px      :     0.091771
      py      :     0.079136
  8 H s       :     0.705878  s :     0.705878
      pz      :     0.074901  p :     0.226068
      px      :     0.063607
      py      :     0.087559
  9 H s       :     0.702561  s :     0.702561
      pz      :     0.060469  p :     0.223637
      px      :     0.089664
      py      :     0.073504


                      *****************************
                      * MAYER POPULATION ANALYSIS *
                      *****************************

  NA   - Mulliken gross atomic population
  ZA   - Total nuclear charge
  QA   - Mulliken gross atomic charge
  VA   - Mayer's total valence
  BVA  - Mayer's bonded valence
  FA   - Mayer's free valence

  ATOM       NA         ZA         QA         VA         BVA        FA
  0 C      6.8089     6.0000    -0.8089     3.9520     3.9520     0.0000
  1 C      5.9654     6.0000     0.0346     3.6594     3.6594    -0.0000
  2 H      0.8318     1.0000     0.1682     1.0622     1.0622    -0.0000
  3 H      0.8467     1.0000     0.1533     1.0506     1.0506     0.0000
  4 C      5.6460     6.0000     0.3540     4.0591     4.0591     0.0000
  5 F      9.1547     9.0000    -0.1547     1.2124     1.2124    -0.0000
  6 O      8.4291     8.0000    -0.4291     1.9691     1.9691    -0.0000
  7 H      0.7679     1.0000     0.2321     1.0900     1.0900     0.0000
  8 H      0.7931     1.0000     0.2069     1.1102     1.1102     0.0000
  9 H      0.7564     1.0000     0.2436     1.0682     1.0682     0.0000

  Mayer bond orders larger than 0.100000
B(  0-C ,  1-C ) :   0.8095 B(  0-C ,  4-C ) :   0.1264 B(  0-C ,  7-H ) :   0.9918 
B(  0-C ,  8-H ) :   0.9817 B(  0-C ,  9-H ) :   0.9481 B(  1-C ,  2-H ) :   0.9685 
B(  1-C ,  3-H ) :   0.9109 B(  1-C ,  4-C ) :   0.9601 B(  4-C ,  5-F ) :   1.0665 
B(  4-C ,  6-O ) :   1.7969 

-------
TIMINGS
-------

Total SCF time: 0 days 0 hours 0 min 6 sec 

Total time                  ....       6.747 sec
Sum of individual times     ....       6.532 sec  ( 96.8%)

Fock matrix formation       ....       5.672 sec  ( 84.1%)
  Split-RI-J                ....       1.362 sec  ( 24.0% of F)
  XC integration            ....       4.259 sec  ( 75.1% of F)
    Basis function eval.    ....       1.177 sec  ( 27.6% of XC)
    Density eval.           ....       1.069 sec  ( 25.1% of XC)
    XC-Functional eval.     ....       0.169 sec  (  4.0% of XC)
    XC-Potential eval.      ....       1.652 sec  ( 38.8% of XC)
Diagonalization             ....       0.099 sec  (  1.5%)
Density matrix formation    ....       0.007 sec  (  0.1%)
Population analysis         ....       0.013 sec  (  0.2%)
Initial guess               ....       0.189 sec  (  2.8%)
Orbital Transformation      ....       0.000 sec  (  0.0%)
Orbital Orthonormalization  ....       0.000 sec  (  0.0%)
DIIS solution               ....       0.055 sec  (  0.8%)
SOSCF solution              ....       0.071 sec  (  1.0%)
Grid generation             ....       0.426 sec  (  6.3%)

Maximum memory used throughout the entire SCF-calculation: 22.5 MB


-------------------------------------------------------------------------------
                          DFT DISPERSION CORRECTION                            
                                                                               
                              DFTD3 V3.1  Rev 1                                
                          USING Becke-Johnson damping                          
-------------------------------------------------------------------------------
The PBE functional is recognized
Active option DFTDOPT                   ...         4   

molecular C6(AA) [au] = 808.452268 


            DFT-D V3
 parameters
 s6 scaling factor         :     1.0000 
 a1 scaling factor         :     0.4289 
 s8 scaling factor         :     0.7875 
 a2 scaling factor         :     4.4407 
 ad hoc parameters k1-k3   :    16.0000     1.3333    -4.0000 

 Edisp/kcal,au: -3.894393491675  -0.006206110405 
 E6   /kcal   :  -2.794164616 
 E8   /kcal   :  -1.100228875 
 % E8         :  28.251610361 

-------------------------   ----------------
Dispersion correction           -0.006206110
-------------------------   ----------------


-------------------------   --------------------
FINAL SINGLE POINT ENERGY      -292.194062907835
-------------------------   --------------------


                            ***************************************
                            *     ORCA property calculations      *
                            ***************************************

                                    ---------------------
                                    Active property flags
                                    ---------------------
   (+) Dipole Moment


------------------------------------------------------------------------------
                       ORCA ELECTRIC PROPERTIES CALCULATION
------------------------------------------------------------------------------

Dipole Moment Calculation                       ... on
Quadrupole Moment Calculation                   ... off
Polarizability Calculation                      ... off
GBWName                                         ... TZVPD_PBE_C1_wt_dlpno_neg.gbw
Electron density file                           ... TZVPD_PBE_C1_wt_dlpno_neg.scfp
The origin for moment calculation is the CENTER OF MASS  = (-0.944124, -0.140349 -9.052961)

-------------
DIPOLE MOMENT
-------------
                                X             Y             Z
Electronic contribution:      3.59754      -2.40323      -7.73400
Nuclear contribution   :     -3.36368       3.36392       8.24820
                        -----------------------------------------
Total Dipole Moment    :      0.23386       0.96069       0.51419
                        -----------------------------------------
Magnitude (a.u.)       :      1.11445
Magnitude (Debye)      :      2.83271



--------------------
Rotational spectrum 
--------------------
 
Rotational constants in cm-1:     0.315013     0.126712     0.098430 
Rotational constants in MHz :  9443.861322  3798.734540  2950.846388 

 Dipole components along the rotational axes: 
x,y,z [a.u.] :     0.591477    -0.936458    -0.123314 
x,y,z [Debye]:     1.503415    -2.380287    -0.313439 

 

Timings for individual modules:

Sum of individual times         ...       11.183 sec (=   0.186 min)
GTO integral calculation        ...        2.437 sec (=   0.041 min)  21.8 %
SCF iterations                  ...        8.745 sec (=   0.146 min)  78.2 %
                             ****ORCA TERMINATED NORMALLY****
TOTAL RUN TIME: 0 days 0 hours 0 minutes 11 seconds 718 msec
