
                                        *****************
                                        * O   R   C   A *
                                        *****************

                                            #,                                       
                                            ###                                      
                                            ####                                     
                                            #####                                    
                                            ######                                   
                                           ########,                                 
                                     ,,################,,,,,                         
                               ,,#################################,,                 
                          ,,##########################################,,             
                       ,#########################################, ''#####,          
                    ,#############################################,,   '####,        
                  ,##################################################,,,,####,       
                ,###########''''           ''''###############################       
              ,#####''   ,,,,##########,,,,          '''####'''          '####       
            ,##' ,,,,###########################,,,                        '##       
           ' ,,###''''                  '''############,,,                           
         ,,##''                                '''############,,,,        ,,,,,,###''
      ,#''                                            '''#######################'''  
     '                                                          ''''####''''         
             ,#######,   #######,   ,#######,      ##                                
            ,#'     '#,  ##    ##  ,#'     '#,    #''#        ######   ,####,        
            ##       ##  ##   ,#'  ##            #'  '#       #        #'  '#        
            ##       ##  #######   ##           ,######,      #####,   #    #        
            '#,     ,#'  ##    ##  '#,     ,#' ,#      #,         ##   #,  ,#        
             '#######'   ##     ##  '#######'  #'      '#     #####' # '####'        



                  #######################################################
                  #                        -***-                        #
                  #          Department of theory and spectroscopy      #
                  #    Directorship and core code : Frank Neese         #
                  #        Max Planck Institute fuer Kohlenforschung    #
                  #                Kaiser Wilhelm Platz 1               #
                  #                 D-45470 Muelheim/Ruhr               #
                  #                      Germany                        #
                  #                                                     #
                  #                  All rights reserved                #
                  #                        -***-                        #
                  #######################################################


                         Program Version 5.0.0 -  RELEASE  -
                                (SVN: $Rev: 19529$)
                ($Date: 2021-06-28 11:36:33 +0200 (Mo, 28 Jun 2021) $)


 With contributions from (in alphabetic order):
   Daniel Aravena         : Magnetic Suceptibility
   Michael Atanasov       : Ab Initio Ligand Field Theory (pilot matlab implementation)
   Alexander A. Auer      : GIAO ZORA, VPT2 properties, NMR spectrum
   Ute Becker             : Parallelization
   Giovanni Bistoni       : ED, misc. LED, open-shell LED, HFLD
   Martin Brehm           : Molecular dynamics
   Dmytro Bykov           : SCF Hessian
   Vijay G. Chilkuri      : MRCI spin determinant printing, contributions to CSF-ICE
   Dipayan Datta          : RHF DLPNO-CCSD density
   Achintya Kumar Dutta   : EOM-CC, STEOM-CC
   Dmitry Ganyushin       : Spin-Orbit,Spin-Spin,Magnetic field MRCI
   Miquel Garcia          : C-PCM Hessian, Gaussian charge scheme
   Yang Guo               : DLPNO-NEVPT2, F12-NEVPT2, CIM, IAO-localization
   Andreas Hansen         : Spin unrestricted coupled pair/coupled cluster methods
   Benjamin Helmich-Paris : MC-RPA, TRAH-SCF, COSX integrals
   Lee Huntington         : MR-EOM, pCC
   Robert Izsak           : Overlap fitted RIJCOSX, COSX-SCS-MP3, EOM
   Marcus Kettner         : VPT2
   Christian Kollmar      : KDIIS, OOCD, Brueckner-CCSD(T), CCSD density, CASPT2, CASPT2-K
   Simone Kossmann        : Meta GGA functionals, TD-DFT gradient, OOMP2, MP2 Hessian
   Martin Krupicka        : Initial AUTO-CI
   Lucas Lang             : DCDCAS
   Marvin Lechner         : AUTO-CI (C++ implementation), FIC-MRCC
   Dagmar Lenk            : GEPOL surface, SMD
   Dimitrios Liakos       : Extrapolation schemes; Compound Job, initial MDCI parallelization
   Dimitrios Manganas     : Further ROCIS development; embedding schemes
   Dimitrios Pantazis     : SARC Basis sets
   Anastasios Papadopoulos: AUTO-CI, single reference methods and gradients
   Taras Petrenko         : DFT Hessian,TD-DFT gradient, ASA, ECA, R-Raman, ABS, FL, XAS/XES, NRVS
   Peter Pinski           : DLPNO-MP2, DLPNO-MP2 Gradient
   Christoph Reimann      : Effective Core Potentials
   Marius Retegan         : Local ZFS, SOC
   Christoph Riplinger    : Optimizer, TS searches, QM/MM, DLPNO-CCSD(T), (RO)-DLPNO pert. Triples
   Tobias Risthaus        : Range-separated hybrids, TD-DFT gradient, RPA, STAB
   Michael Roemelt        : Original ROCIS implementation
   Masaaki Saitow         : Open-shell DLPNO-CCSD energy and density
   Barbara Sandhoefer     : DKH picture change effects
   Avijit Sen             : IP-ROCIS
   Kantharuban Sivalingam : CASSCF convergence, NEVPT2, FIC-MRCI
   Bernardo de Souza      : ESD, SOC TD-DFT
   Georgi Stoychev        : AutoAux, RI-MP2 NMR
   Willem Van den Heuvel  : Paramagnetic NMR
   Boris Wezisla          : Elementary symmetry handling
   Frank Wennmohs         : Technical directorship


 We gratefully acknowledge several colleagues who have allowed us to
 interface, adapt or use parts of their codes:
   Stefan Grimme, W. Hujo, H. Kruse, P. Pracht,  : VdW corrections, initial TS optimization,
                  C. Bannwarth, S. Ehlert          DFT functionals, gCP, sTDA/sTD-DF
   Ed Valeev, F. Pavosevic, A. Kumar             : LibInt (2-el integral package), F12 methods
   Garnet Chan, S. Sharma, J. Yang, R. Olivares  : DMRG
   Ulf Ekstrom                                   : XCFun DFT Library
   Mihaly Kallay                                 : mrcc  (arbitrary order and MRCC methods)
   Jiri Pittner, Ondrej Demel                    : Mk-CCSD
   Frank Weinhold                                : gennbo (NPA and NBO analysis)
   Christopher J. Cramer and Donald G. Truhlar   : smd solvation model
   Lars Goerigk                                  : TD-DFT with DH, B97 family of functionals
   V. Asgeirsson, H. Jonsson                     : NEB implementation
   FAccTs GmbH                                   : IRC, NEB, NEB-TS, DLPNO-Multilevel, CI-OPT
                                                   MM, QMMM, 2- and 3-layer-ONIOM, Crystal-QMMM,
                                                   LR-CPCM, SF, NACMEs, symmetry and pop. for TD-DFT,
                                                   nearIR, NL-DFT gradient (VV10), updates on ESD,
                                                   ML-optimized integration grids
   S Lehtola, MJT Oliveira, MAL Marques          : LibXC Library
   Liviu Ungur et al                             : ANISO software


 Your calculation uses the libint2 library for the computation of 2-el integrals
 For citations please refer to: http://libint.valeyev.net

 Your ORCA version has been built with support for libXC version: 5.1.0
 For citations please refer to: https://tddft.org/programs/libxc/

 This ORCA versions uses:
   CBLAS   interface :  Fast vector & matrix operations
   LAPACKE interface :  Fast linear algebra routines
   SCALAPACK package :  Parallel linear algebra routines
   Shared memory     :  Shared parallel matrices
   BLAS/LAPACK       :  OpenBLAS 0.3.15  USE64BITINT DYNAMIC_ARCH NO_AFFINITY Haswell SINGLE_THREADED
        Core in use  :  Haswell
   Copyright (c) 2011-2014, The OpenBLAS Project




***************************************
The coordinates will be read from file: D6.xyz
***************************************


Your calculation utilizes the atom-pairwise dispersion correction
with the Becke-Johnson damping scheme (D3BJ)
Cite in your paper:
S.Grimme, S.Ehrlich, L.Goerigk, J Comput Chem, (2011), 32, 1456–1465 
S.Grimme, J.Antony, S.Ehrlich and H.Krieg, J.Chem.Phys., 132, (2010), 154104 
   

================================================================================

----- Orbital basis set information -----
Your calculation utilizes the basis: def2-TZVPD
   F. Weigend and R. Ahlrichs, Phys. Chem. Chem. Phys. 7, 3297 (2005).
   D. Rappoport and F. Furche, J. Chem. Phys. 133 134105 (2010).

----- AuxJ basis set information -----
Your calculation utilizes the auxiliary basis: def2/J
   F. Weigend, Phys. Chem. Chem. Phys. 8, 1057 (2006).

================================================================================
                                        WARNINGS
                       Please study these warnings very carefully!
================================================================================



WARNING: Found flag for RIJCOSX approximation but no HF exchange needed!
  ===> : RIJCOSX  will be disabled and Split-RI-J is turned on

INFO   : the flag for use of the SHARK integral package has been found!

================================================================================
                                       INPUT FILE
================================================================================
NAME = 28Oct_TZVPD_PBE_D6_wb97.com
|  1> !PBE D3BJ RIJCOSX def2-TZVPD def2/J TightSCF xyzfile                                                                                         
|  2> 
|  3> *xyzfile 0 1 D6.xyz
|  4> 
|  5> %MaxCore 64000
|  6> 
|  7> %pal nprocs 4                                                                                                                                                  
|  8> end  
|  9> 
| 10> %scf
| 11>   MaxIter 150
| 12> end
| 13> 
| 14> 
| 15>                          ****END OF INPUT****
================================================================================

                       ****************************
                       * Single Point Calculation *
                       ****************************

---------------------------------
CARTESIAN COORDINATES (ANGSTROEM)
---------------------------------
  C      2.234473   -2.989754   -2.397622
  N      2.756799   -2.945553   -3.765029
  C     -1.104325    0.251374   -2.860056
  C     -0.711893    0.842517   -4.218344
  H      0.154626    1.499800   -4.130909
  H     -1.538134    1.459222   -4.582671
  C     -0.397624   -0.205875   -5.288018
  C      1.987208   -2.590451   -4.818975
  N      0.743221   -3.017493   -4.913524
  C      2.499636   -1.848598   -5.803241
  H      3.309780   -1.292818   -5.558947
  H      1.801025   -1.304298   -6.289129
  H      3.716116   -2.628797   -3.829533
  H      0.395828   -3.627747   -4.185024
  H      0.039201   -2.454383   -5.371367
  O      0.617165   -0.005348   -5.998273
  F     -1.133173   -1.221380   -5.341465
  C      2.191199   -1.619503   -1.715492
  H      2.872783   -3.666368   -1.828014
  H      1.246188   -3.447444   -2.407842
  C      1.298729   -0.554314   -2.359773
  H      1.872917   -1.787955   -0.681310
  H      3.216809   -1.238432   -1.654428
  C     -0.196255   -0.863365   -2.325763
  H      1.612531   -0.371346   -3.393065
  H      1.480944    0.388638   -1.834444
  H     -0.404105   -1.761825   -2.909448
  H     -0.490439   -1.087880   -1.294131
  H     -1.143842    1.066711   -2.129680
  H     -2.114401   -0.156834   -2.930323

----------------------------
CARTESIAN COORDINATES (A.U.)
----------------------------
  NO LB      ZA    FRAG     MASS         X           Y           Z
   0 C     6.0000    0    12.011    4.222543   -5.649816   -4.530848
   1 N     7.0000    0    14.007    5.209595   -5.566289   -7.114873
   2 C     6.0000    0    12.011   -2.086873    0.475028   -5.404722
   3 C     6.0000    0    12.011   -1.345283    1.592127   -7.971516
   4 H     1.0000    0     1.008    0.292200    2.834211   -7.806286
   5 H     1.0000    0     1.008   -2.906652    2.757530   -8.659992
   6 C     6.0000    0    12.011   -0.751401   -0.389047   -9.992907
   7 C     6.0000    0    12.011    3.755279   -4.895244   -9.106543
   8 N     7.0000    0    14.007    1.404485   -5.702235   -9.285215
   9 C     6.0000    0    12.011    4.723627   -3.493344  -10.966537
  10 H     1.0000    0     1.008    6.254578   -2.443072  -10.504887
  11 H     1.0000    0     1.008    3.403445   -2.464767  -11.884731
  12 H     1.0000    0     1.008    7.022441   -4.967706   -7.236769
  13 H     1.0000    0     1.008    0.748006   -6.855448   -7.908548
  14 H     1.0000    0     1.008    0.074080   -4.638111  -10.150413
  15 O     8.0000    0    15.999    1.166273   -0.010106  -11.335093
  16 F     9.0000    0    18.998   -2.141387   -2.308074  -10.093907
  17 C     6.0000    0    12.011    4.140767   -3.060418   -3.241811
  18 H     1.0000    0     1.008    5.428773   -6.928432   -3.454445
  19 H     1.0000    0     1.008    2.354955   -6.514725   -4.550162
  20 C     6.0000    0    12.011    2.454243   -1.047501   -4.459324
  21 H     1.0000    0     1.008    3.539301   -3.378746   -1.287489
  22 H     1.0000    0     1.008    6.078888   -2.340297   -3.126415
  23 C     6.0000    0    12.011   -0.370868   -1.631524   -4.395056
  24 H     1.0000    0     1.008    3.047241   -0.701741   -6.411963
  25 H     1.0000    0     1.008    2.798579    0.734420   -3.466597
  26 H     1.0000    0     1.008   -0.763647   -3.329367   -5.498059
  27 H     1.0000    0     1.008   -0.926795   -2.055796   -2.445553
  28 H     1.0000    0     1.008   -2.161548    2.015792   -4.024513
  29 H     1.0000    0     1.008   -3.995640   -0.296373   -5.537508

--------------------------------
INTERNAL COORDINATES (ANGSTROEM)
--------------------------------
 C      0   0   0     0.000000000000     0.00000000     0.00000000
 N      1   0   0     1.464438225876     0.00000000     0.00000000
 C      1   2   0     4.676145129276    98.12927291     0.00000000
 C      3   1   2     1.532449663024    99.91462131   348.31309700
 H      4   3   1     1.091109561698   111.39025959   283.89265125
 H      4   3   1     1.093495439559   108.62484397   166.67912614
 C      4   3   1     1.530389765639   114.06976040    46.19796968
 C      2   1   3     1.352468525377   122.18202950   332.12698446
 N      8   2   1     1.318638167115   120.50800772   318.92382051
 C      8   2   1     1.334806580019   120.13920908   141.74971933
 H     10   8   2     1.012375870590   115.74621574   337.06348414
 H     10   8   2     1.010151241361   112.87083799   206.24146608
 H      2   1   3     1.012316375193   114.01286739   115.96418648
 H      9   8   2     1.011832723100   117.87797810   358.89717874
 H      9   8   2     1.011116910562   120.59529148   149.18306403
 O      7   4   3     1.254778981721   116.88713641   223.97730908
 F      7   4   3     1.255045716386   117.62699891    40.66785663
 C      1   2   3     1.531261091561   113.51716415   306.50017999
 H      1   2   3     1.090733497968   107.31452929   184.97158571
 H      1   2   3     1.089170204566   109.12058142    70.56520786
 C     18   1   2     1.531740549402   116.83240064    61.84859762
 H     18   1   2     1.095086016226   106.93324123   184.96028215
 H     18   1   2     1.095819174782   108.03263762   298.48283650
 C     21  18   1     1.526973371423   114.85536009    65.69540509
 H     21  18   1     1.095281264436   110.24604822   301.31032456
 H     21  18   1     1.094683112767   107.46873106   187.23902369
 H     24  21  18     1.091383863395   109.94769458   296.45428662
 H     24  21  18     1.096000392918   108.97875853    52.80812729
 H      3   1   2     1.095346916976   118.40828837   231.18872133
 H      3   1   2     1.091707330182   114.06755658   104.31710724

---------------------------
INTERNAL COORDINATES (A.U.)
---------------------------
 C      0   0   0     0.000000000000     0.00000000     0.00000000
 N      1   0   0     2.767387186951     0.00000000     0.00000000
 C      1   2   0     8.836633656801    98.12927291     0.00000000
 C      3   1   2     2.895910177136    99.91462131   348.31309700
 H      4   3   1     2.061898253712   111.39025959   283.89265125
 H      4   3   1     2.066406909459   108.62484397   166.67912614
 C      4   3   1     2.892017535214   114.06976040    46.19796968
 C      2   1   3     2.555795117711   122.18202950   332.12698446
 N      8   2   1     2.491865005583   120.50800772   318.92382051
 C      8   2   1     2.522418877992   120.13920908   141.74971933
 H     10   8   2     1.913113140005   115.74621574   337.06348414
 H     10   8   2     1.908909200014   112.87083799   206.24146608
 H      2   1   3     1.913000709999   114.01286739   115.96418648
 H      9   8   2     1.912086739998   117.87797810   358.89717874
 H      9   8   2     1.910734050338   120.59529148   149.18306403
 O      7   4   3     2.371188634054   116.88713641   223.97730908
 F      7   4   3     2.371692689521   117.62699891    40.66785663
 C      1   2   3     2.893664102580   113.51716415   306.50017999
 H      1   2   3     2.061187596254   107.31452929   184.97158571
 H      1   2   3     2.058233399856   109.12058142    70.56520786
 C     18   1   2     2.894570146592   116.83240064    61.84859762
 H     18   1   2     2.069412663755   106.93324123   184.96028215
 H     18   1   2     2.070798132638   108.03263762   298.48283650
 C     21  18   1     2.885561485780   114.85536009    65.69540509
 H     21  18   1     2.069781629399   110.24604822   301.31032456
 H     21  18   1     2.068651286558   107.46873106   187.23902369
 H     24  21  18     2.062416608797   109.94769458   296.45428662
 H     24  21  18     2.071140585285   108.97875853    52.80812729
 H      3   1   2     2.069905694719   118.40828837   231.18872133
 H      3   1   2     2.063027872438   114.06755658   104.31710724

---------------------
BASIS SET INFORMATION
---------------------
There are 5 groups of distinct atoms

 Group   1 Type C   : 12s6p3d1f contracted to 6s3p3d1f pattern {621111/411/111/1}
 Group   2 Type N   : 12s6p3d1f contracted to 6s3p3d1f pattern {621111/411/111/1}
 Group   3 Type H   : 5s2p contracted to 3s2p pattern {311/11}
 Group   4 Type O   : 12s7p3d1f contracted to 6s4p3d1f pattern {621111/4111/111/1}
 Group   5 Type F   : 12s7p3d1f contracted to 6s4p3d1f pattern {621111/4111/111/1}

Atom   0C    basis set group =>   1
Atom   1N    basis set group =>   2
Atom   2C    basis set group =>   1
Atom   3C    basis set group =>   1
Atom   4H    basis set group =>   3
Atom   5H    basis set group =>   3
Atom   6C    basis set group =>   1
Atom   7C    basis set group =>   1
Atom   8N    basis set group =>   2
Atom   9C    basis set group =>   1
Atom  10H    basis set group =>   3
Atom  11H    basis set group =>   3
Atom  12H    basis set group =>   3
Atom  13H    basis set group =>   3
Atom  14H    basis set group =>   3
Atom  15O    basis set group =>   4
Atom  16F    basis set group =>   5
Atom  17C    basis set group =>   1
Atom  18H    basis set group =>   3
Atom  19H    basis set group =>   3
Atom  20C    basis set group =>   1
Atom  21H    basis set group =>   3
Atom  22H    basis set group =>   3
Atom  23C    basis set group =>   1
Atom  24H    basis set group =>   3
Atom  25H    basis set group =>   3
Atom  26H    basis set group =>   3
Atom  27H    basis set group =>   3
Atom  28H    basis set group =>   3
Atom  29H    basis set group =>   3
---------------------------------
AUXILIARY/J BASIS SET INFORMATION
---------------------------------
There are 5 groups of distinct atoms

 Group   1 Type C   : 12s5p4d2f1g contracted to 6s4p3d1f1g pattern {711111/2111/211/2/1}
 Group   2 Type N   : 12s5p4d2f1g contracted to 6s4p3d1f1g pattern {711111/2111/211/2/1}
 Group   3 Type H   : 5s2p1d contracted to 3s1p1d pattern {311/2/1}
 Group   4 Type O   : 12s5p4d2f1g contracted to 6s4p3d1f1g pattern {711111/2111/211/2/1}
 Group   5 Type F   : 12s5p4d2f1g contracted to 6s4p3d1f1g pattern {711111/2111/211/2/1}

Atom   0C    basis set group =>   1
Atom   1N    basis set group =>   2
Atom   2C    basis set group =>   1
Atom   3C    basis set group =>   1
Atom   4H    basis set group =>   3
Atom   5H    basis set group =>   3
Atom   6C    basis set group =>   1
Atom   7C    basis set group =>   1
Atom   8N    basis set group =>   2
Atom   9C    basis set group =>   1
Atom  10H    basis set group =>   3
Atom  11H    basis set group =>   3
Atom  12H    basis set group =>   3
Atom  13H    basis set group =>   3
Atom  14H    basis set group =>   3
Atom  15O    basis set group =>   4
Atom  16F    basis set group =>   5
Atom  17C    basis set group =>   1
Atom  18H    basis set group =>   3
Atom  19H    basis set group =>   3
Atom  20C    basis set group =>   1
Atom  21H    basis set group =>   3
Atom  22H    basis set group =>   3
Atom  23C    basis set group =>   1
Atom  24H    basis set group =>   3
Atom  25H    basis set group =>   3
Atom  26H    basis set group =>   3
Atom  27H    basis set group =>   3
Atom  28H    basis set group =>   3
Atom  29H    basis set group =>   3


           ************************************************************
           *        Program running with 4 parallel MPI-processes     *
           *              working on a common directory               *
           ************************************************************
------------------------------------------------------------------------------
                           ORCA GTO INTEGRAL CALCULATION
                           -- RI-GTO INTEGRALS CHOSEN --
------------------------------------------------------------------------------
------------------------------------------------------------------------------
                   ___                                                        
                  /   \      - P O W E R E D   B Y -                         
                 /     \                                                     
                 |  |  |   _    _      __       _____    __    __             
                 |  |  |  | |  | |    /  \     |  _  \  |  |  /  |          
                  \  \/   | |  | |   /    \    | | | |  |  | /  /          
                 / \  \   | |__| |  /  /\  \   | |_| |  |  |/  /          
                |  |  |   |  __  | /  /__\  \  |    /   |      \           
                |  |  |   | |  | | |   __   |  |    \   |  |\   \          
                \     /   | |  | | |  |  |  |  | |\  \  |  | \   \       
                 \___/    |_|  |_| |__|  |__|  |_| \__\ |__|  \__/        
                                                                              
                      - O R C A' S   B I G   F R I E N D -                    
                                      &                                       
                       - I N T E G R A L  F E E D E R -                       
                                                                              
 v1 FN, 2020, v2 2021                                                         
------------------------------------------------------------------------------


Reading SHARK input file 28Oct_TZVPD_PBE_D6_wb97.SHARKINP.tmp ... ok
----------------------
SHARK INTEGRAL PACKAGE
----------------------

Number of atoms                             ...     30
Number of basis functions                   ...    640
Number of shells                            ...    256
Maximum angular momentum                    ...      3
Integral batch strategy                     ... SHARK/LIBINT Hybrid
RI-J (if used) integral strategy            ... SPLIT-RIJ (Revised 2003 algorithm where possible)
Printlevel                                  ...      1
Contraction scheme used                     ... SEGMENTED contraction
Coulomb Range Separation                    ... NOT USED
Exchange Range Separation                   ... NOT USED
Finite Nucleus Model                        ... NOT USED
Auxiliary Coulomb fitting basis             ... AVAILABLE
   # of basis functions in Aux-J            ...    824
   # of shells in Aux-J                     ...    280
   Maximum angular momentum in Aux-J        ...      4
Auxiliary J/K fitting basis                 ... NOT available
Auxiliary Correlation fitting basis         ... NOT available
Auxiliary 'external' fitting basis          ... NOT available
Integral threshold                          ...     2.500000e-11
Primitive cut-off                           ...     2.500000e-12
Primitive pair pre-selection threshold      ...     2.500000e-12

Calculating pre-screening integrals         ... done (  0.2 sec) Dimension = 256
Organizing shell pair data                  ... done (  0.3 sec)
Shell pair information
Total number of shell pairs                 ...     32896
Shell pairs after pre-screening             ...     29936
Total number of primitive shell pairs       ...     83365
Primitive shell pairs kept                  ...     57885
          la=0 lb=0:   7319 shell pairs
          la=1 lb=0:   8879 shell pairs
          la=1 lb=1:   2709 shell pairs
          la=2 lb=0:   4622 shell pairs
          la=2 lb=1:   2783 shell pairs
          la=2 lb=2:    745 shell pairs
          la=3 lb=0:   1419 shell pairs
          la=3 lb=1:    901 shell pairs
          la=3 lb=2:    477 shell pairs
          la=3 lb=3:     82 shell pairs

Calculating one electron integrals          ... done (  0.1 sec)
Calculating RI/J V-Matrix + Cholesky decomp.... done (  0.1 sec)
Calculating Nuclear repulsion               ... done (  0.0 sec) ENN=    908.600360763038 Eh

SHARK setup successfully completed in   0.8 seconds

Maximum memory used throughout the entire GTOINT-calculation: 43.3 MB


           ************************************************************
           *        Program running with 4 parallel MPI-processes     *
           *              working on a common directory               *
           ************************************************************
-------------------------------------------------------------------------------
                                 ORCA SCF
-------------------------------------------------------------------------------

------------
SCF SETTINGS
------------
Hamiltonian:
 Density Functional     Method          .... DFT(GTOs)
 Exchange Functional    Exchange        .... PBE
   PBE kappa parameter   XKappa         ....  0.804000
   PBE mue parameter    XMuePBE         ....  0.219520
 Correlation Functional Correlation     .... PBE
   PBE beta parameter  CBetaPBE         ....  0.066725
 LDA part of GGA corr.  LDAOpt          .... PW91-LDA
 Gradients option       PostSCFGGA      .... off
   Density functional embedding theory  .... OFF
   NL short-range parameter             ....  6.400000
 RI-approximation to the Coulomb term is turned on
   Number of AuxJ basis functions       .... 824


General Settings:
 Integral files         IntName         .... 28Oct_TZVPD_PBE_D6_wb97
 Hartree-Fock type      HFTyp           .... RHF
 Total Charge           Charge          ....    0
 Multiplicity           Mult            ....    1
 Number of Electrons    NEL             ....  102
 Basis Dimension        Dim             ....  640
 Nuclear Repulsion      ENuc            ....    908.6003607630 Eh

Convergence Acceleration:
 DIIS                   CNVDIIS         .... on
   Start iteration      DIISMaxIt       ....    12
   Startup error        DIISStart       ....  0.200000
   # of expansion vecs  DIISMaxEq       ....     5
   Bias factor          DIISBfac        ....   1.050
   Max. coefficient     DIISMaxC        ....  10.000
 Trust-Rad. Augm. Hess. CNVTRAH         .... auto
   Auto Start mean grad. ratio tolernc. ....  1.125000
   Auto Start start iteration           ....    20
   Auto Start num. interpolation iter.  ....    10
   Max. Number of Micro iterations      ....    16
   Max. Number of Macro iterations      .... Maxiter - #DIIS iter
   Number of Davidson start vectors     ....     2
   Converg. threshold I  (grad. norm)   ....   1.000e-05
   Converg. threshold II (energy diff.) ....   1.000e-08
   Grad. Scal. Fac. for Micro threshold ....   0.100
   Minimum threshold for Micro iter.    ....   0.010
   NR start threshold (gradient norm)   ....   0.001
   Initial trust radius                 ....   0.400
   Minimum AH scaling param. (alpha)    ....   1.000
   Maximum AH scaling param. (alpha)    .... 1000.000
   Orbital update algorithm             .... Taylor
   White noise on init. David. guess    .... on
   Maximum white noise                  ....   0.010
   Quad. conv. algorithm                .... NR
 SOSCF                  CNVSOSCF        .... on
   Start iteration      SOSCFMaxIt      ....   150
   Startup grad/error   SOSCFStart      ....  0.003300
 Level Shifting         CNVShift        .... on
   Level shift para.    LevelShift      ....    0.2500
   Turn off err/grad.   ShiftErr        ....    0.0010
 Zerner damping         CNVZerner       .... off
 Static damping         CNVDamp         .... on
   Fraction old density DampFac         ....    0.7000
   Max. Damping (<1)    DampMax         ....    0.9800
   Min. Damping (>=0)   DampMin         ....    0.0000
   Turn off err/grad.   DampErr         ....    0.1000
 Fernandez-Rico         CNVRico         .... off

SCF Procedure:
 Maximum # iterations   MaxIter         ....   150
 SCF integral mode      SCFMode         .... Direct
   Integral package                     .... SHARK and LIBINT hybrid scheme
 Reset frequency        DirectResetFreq ....    20
 Integral Threshold     Thresh          ....  2.500e-11 Eh
 Primitive CutOff       TCut            ....  2.500e-12 Eh

Convergence Tolerance:
 Convergence Check Mode ConvCheckMode   .... Total+1el-Energy
 Convergence forced     ConvForced      .... 0
 Energy Change          TolE            ....  1.000e-08 Eh
 1-El. energy change                    ....  1.000e-05 Eh
 Orbital Gradient       TolG            ....  1.000e-05
 Orbital Rotation angle TolX            ....  1.000e-05
 DIIS Error             TolErr          ....  5.000e-07


Diagonalization of the overlap matrix:
Smallest eigenvalue                        ... 1.812e-06
Time for diagonalization                   ...    0.104 sec
Threshold for overlap eigenvalues          ... 1.000e-08
Number of eigenvalues below threshold      ... 0
Time for construction of square roots      ...    0.108 sec
Total time needed                          ...    0.216 sec

Time for model grid setup =    0.398 sec

------------------------------
INITIAL GUESS: MODEL POTENTIAL
------------------------------
Loading Hartree-Fock densities                     ... done
Calculating cut-offs                               ... done
Initializing the effective Hamiltonian             ... done
Setting up the integral package (SHARK)            ... done
Starting the Coulomb interaction                   ... done (   0.7 sec)
Reading the grid                                   ... done
Mapping shells                                     ... done
Starting the XC term evaluation                    ... done (   0.9 sec)
  promolecular density results
     # of electrons  =    101.994236329
     EX              =    -82.415086652
     EC              =     -3.428625235
     EX+EC           =    -85.843711886
Transforming the Hamiltonian                       ... done (   0.1 sec)
Diagonalizing the Hamiltonian                      ... done (   0.1 sec)
Back transforming the eigenvectors                 ... done (   0.0 sec)
Now organizing SCF variables                       ... done
                      ------------------
                      INITIAL GUESS DONE (   2.2 sec)
                      ------------------
-------------------
DFT GRID GENERATION
-------------------

General Integration Accuracy     IntAcc      ... 4.388
Radial Grid Type                 RadialGrid  ... OptM3 with GC (2021)
Angular Grid (max. ang.)         AngularGrid ... 4 (Lebedev-302)
Angular grid pruning method      GridPruning ... 4 (adaptive)
Weight generation scheme         WeightScheme... Becke
Basis function cutoff            BFCut       ... 1.0000e-11
Integration weight cutoff        WCut        ... 1.0000e-14
Angular grids for H and He will be reduced by one unit
Partially contracted basis set               ... off
Rotationally invariant grid construction     ... off

Total number of grid points                  ...   137136
Total number of batches                      ...     2159
Average number of points per batch           ...       63
Average number of grid points per atom       ...     4571
Time for grid setup =    1.433 sec

--------------
SCF ITERATIONS
--------------
ITER       Energy         Delta-E        Max-DP      RMS-DP      [F,P]     Damp
               ***  Starting incremental Fock matrix formation  ***
  0   -636.6226130090   0.000000000000 0.86055384  0.00405741  0.2650667 0.7000
  1   -636.8951557037  -0.272542694699 0.91072284  0.00394556  0.1036684 0.7000
                               ***Turning on DIIS***
  2   -636.9726216935  -0.077465989810 1.32482512  0.00653087  0.0496148 0.0000
  3   -637.1108923371  -0.138270643613 0.98590646  0.00358540  0.0771458 0.0000
  4   -637.1463667155  -0.035474378335 0.37185006  0.00140985  0.0541564 0.0000
  5   -637.1528298794  -0.006463163875 0.10994640  0.00062018  0.0078723 0.0000
  6   -637.1531104907  -0.000280611357 0.08339461  0.00040141  0.0039920 0.0000
                      *** Initiating the SOSCF procedure ***
                           *** Shutting down DIIS ***
                      *** Re-Reading the Fockian *** 
                      *** Removing any level shift *** 
ITER      Energy       Delta-E        Grad      Rot      Max-DP    RMS-DP
  7   -637.15316103  -0.0000505414  0.000565  0.000565  0.099061  0.000534
               *** Restarting incremental Fock matrix formation ***
  8   -637.15317567  -0.0000146400  0.000234  0.004204  0.023561  0.000103
  9   -637.15316687   0.0000087973  0.000399  0.002380  0.016326  0.000070
 10   -637.15317897  -0.0000120996  0.000069  0.000394  0.002902  0.000019
 11   -637.15317769   0.0000012799  0.000197  0.000245  0.001281  0.000012
 12   -637.15317921  -0.0000015154  0.000031  0.000129  0.002601  0.000017
 13   -637.15317903   0.0000001811  0.000082  0.000109  0.002355  0.000009
 14   -637.15317923  -0.0000002060  0.000005  0.000023  0.002774  0.000018
 15   -637.15317924  -0.0000000004  0.000007  0.000013  0.001066  0.000008
                  ***Gradient check signals convergence***
              ***Rediagonalizing the Fockian in SOSCF/NRSCF***

               *****************************************************
               *                     SUCCESS                       *
               *           SCF CONVERGED AFTER  16 CYCLES          *
               *****************************************************


----------------
TOTAL SCF ENERGY
----------------

Total Energy       :         -637.15317923 Eh          -17337.81944 eV

Components:
Nuclear Repulsion  :          908.60036076 Eh           24724.27277 eV
Electronic Energy  :        -1545.75353999 Eh          -42062.09222 eV
One Electron Energy:        -2671.69366728 Eh          -72700.48071 eV
Two Electron Energy:         1125.94012728 Eh           30638.38849 eV

Virial components:
Potential Energy   :        -1272.46555238 Eh          -34625.54801 eV
Kinetic Energy     :          635.31237315 Eh           17287.72856 eV
Virial Ratio       :            2.00289748


DFT components:
N(Alpha)           :       50.999901369353 electrons
N(Beta)            :       50.999901369353 electrons
N(Total)           :      101.999802738706 electrons
E(X)               :      -84.147193860323 Eh       
E(C)               :       -3.413179754162 Eh       
E(XC)              :      -87.560373614486 Eh       
DFET-embed. en.    :        0.000000000000 Eh       

---------------
SCF CONVERGENCE
---------------

  Last Energy change         ...    4.0338e-09  Tolerance :   1.0000e-08
  Last MAX-Density change    ...    2.7157e-03  Tolerance :   1.0000e-07
  Last RMS-Density change    ...    1.7535e-05  Tolerance :   5.0000e-09
  Last Orbital Gradient      ...    7.3051e-07  Tolerance :   1.0000e-05
  Last Orbital Rotation      ...    5.8210e-06  Tolerance :   1.0000e-05

             **** THE GBW FILE WAS UPDATED (28Oct_TZVPD_PBE_D6_wb97.gbw) ****
             **** DENSITY 28Oct_TZVPD_PBE_D6_wb97.scfp WAS UPDATED ****
             **** ENERGY FILE WAS UPDATED (28Oct_TZVPD_PBE_D6_wb97.en.tmp) ****
             **** THE GBW FILE WAS UPDATED (28Oct_TZVPD_PBE_D6_wb97.gbw) ****
             **** DENSITY 28Oct_TZVPD_PBE_D6_wb97.scfp WAS UPDATED ****
----------------
ORBITAL ENERGIES
----------------

  NO   OCC          E(Eh)            E(eV) 
   0   2.0000     -24.345000      -662.4611 
   1   2.0000     -18.763217      -510.5731 
   2   2.0000     -13.981538      -380.4570 
   3   2.0000     -13.975708      -380.2983 
   4   2.0000     -10.053352      -273.5656 
   5   2.0000      -9.916556      -269.8432 
   6   2.0000      -9.914944      -269.7993 
   7   2.0000      -9.911446      -269.7041 
   8   2.0000      -9.902021      -269.4477 
   9   2.0000      -9.890325      -269.1294 
  10   2.0000      -9.886478      -269.0247 
  11   2.0000      -9.884415      -268.9686 
  12   2.0000      -9.776912      -266.0433 
  13   2.0000      -1.238213       -33.6935 
  14   2.0000      -0.957785       -26.0627 
  15   2.0000      -0.880613       -23.9627 
  16   2.0000      -0.806122       -21.9357 
  17   2.0000      -0.757058       -20.6006 
  18   2.0000      -0.718657       -19.5557 
  19   2.0000      -0.674493       -18.3539 
  20   2.0000      -0.643566       -17.5123 
  21   2.0000      -0.618081       -16.8188 
  22   2.0000      -0.599392       -16.3103 
  23   2.0000      -0.557337       -15.1659 
  24   2.0000      -0.546947       -14.8832 
  25   2.0000      -0.524236       -14.2652 
  26   2.0000      -0.505836       -13.7645 
  27   2.0000      -0.496382       -13.5072 
  28   2.0000      -0.479909       -13.0590 
  29   2.0000      -0.454062       -12.3556 
  30   2.0000      -0.442586       -12.0434 
  31   2.0000      -0.432396       -11.7661 
  32   2.0000      -0.423478       -11.5234 
  33   2.0000      -0.413394       -11.2490 
  34   2.0000      -0.398476       -10.8431 
  35   2.0000      -0.391102       -10.6424 
  36   2.0000      -0.368291       -10.0217 
  37   2.0000      -0.362625        -9.8675 
  38   2.0000      -0.344845        -9.3837 
  39   2.0000      -0.340646        -9.2695 
  40   2.0000      -0.337373        -9.1804 
  41   2.0000      -0.329242        -8.9591 
  42   2.0000      -0.324424        -8.8280 
  43   2.0000      -0.315855        -8.5949 
  44   2.0000      -0.295265        -8.0346 
  45   2.0000      -0.293929        -7.9982 
  46   2.0000      -0.292952        -7.9716 
  47   2.0000      -0.286172        -7.7871 
  48   2.0000      -0.240742        -6.5509 
  49   2.0000      -0.207238        -5.6392 
  50   2.0000      -0.130262        -3.5446 
  51   0.0000      -0.075371        -2.0510 
  52   0.0000      -0.024324        -0.6619 
  53   0.0000      -0.009716        -0.2644 
  54   0.0000      -0.008096        -0.2203 
  55   0.0000       0.003501         0.0953 
  56   0.0000       0.018415         0.5011 
  57   0.0000       0.020940         0.5698 
  58   0.0000       0.023808         0.6479 
  59   0.0000       0.030911         0.8411 
  60   0.0000       0.039840         1.0841 
  61   0.0000       0.048453         1.3185 
  62   0.0000       0.053749         1.4626 
  63   0.0000       0.055169         1.5012 
  64   0.0000       0.060453         1.6450 
  65   0.0000       0.066754         1.8165 
  66   0.0000       0.070501         1.9184 
  67   0.0000       0.080058         2.1785 
  68   0.0000       0.086081         2.3424 
  69   0.0000       0.092454         2.5158 
  70   0.0000       0.094733         2.5778 
  71   0.0000       0.097336         2.6487 
  72   0.0000       0.104533         2.8445 
  73   0.0000       0.105752         2.8777 
  74   0.0000       0.109249         2.9728 
  75   0.0000       0.116118         3.1597 
  76   0.0000       0.124353         3.3838 
  77   0.0000       0.126117         3.4318 
  78   0.0000       0.132916         3.6168 
  79   0.0000       0.133613         3.6358 
  80   0.0000       0.140810         3.8316 
  81   0.0000       0.143552         3.9063 
  82   0.0000       0.147086         4.0024 
  83   0.0000       0.154683         4.2092 
  84   0.0000       0.158448         4.3116 
  85   0.0000       0.162987         4.4351 
  86   0.0000       0.165065         4.4916 
  87   0.0000       0.170892         4.6502 
  88   0.0000       0.175882         4.7860 
  89   0.0000       0.180386         4.9086 
  90   0.0000       0.183938         5.0052 
  91   0.0000       0.186299         5.0694 
  92   0.0000       0.188599         5.1320 
  93   0.0000       0.189670         5.1612 
  94   0.0000       0.199612         5.4317 
  95   0.0000       0.202789         5.5182 
  96   0.0000       0.204064         5.5529 
  97   0.0000       0.209563         5.7025 
  98   0.0000       0.213660         5.8140 
  99   0.0000       0.216041         5.8788 
 100   0.0000       0.221512         6.0276 
 101   0.0000       0.223141         6.0720 
 102   0.0000       0.225448         6.1348 
 103   0.0000       0.229707         6.2506 
 104   0.0000       0.234812         6.3896 
 105   0.0000       0.238084         6.4786 
 106   0.0000       0.244678         6.6580 
 107   0.0000       0.246941         6.7196 
 108   0.0000       0.249314         6.7842 
 109   0.0000       0.252689         6.8760 
 110   0.0000       0.258666         7.0387 
 111   0.0000       0.264015         7.1842 
 112   0.0000       0.266320         7.2469 
 113   0.0000       0.270349         7.3566 
 114   0.0000       0.272708         7.4208 
 115   0.0000       0.276055         7.5118 
 116   0.0000       0.278462         7.5773 
 117   0.0000       0.282155         7.6778 
 118   0.0000       0.283139         7.7046 
 119   0.0000       0.289972         7.8905 
 120   0.0000       0.291216         7.9244 
 121   0.0000       0.296436         8.0664 
 122   0.0000       0.304104         8.2751 
 123   0.0000       0.306447         8.3388 
 124   0.0000       0.306810         8.3487 
 125   0.0000       0.311747         8.4831 
 126   0.0000       0.313293         8.5251 
 127   0.0000       0.317481         8.6391 
 128   0.0000       0.321960         8.7610 
 129   0.0000       0.322905         8.7867 
 130   0.0000       0.329172         8.9572 
 131   0.0000       0.333259         9.0684 
 132   0.0000       0.336420         9.1545 
 133   0.0000       0.342058         9.3079 
 134   0.0000       0.345375         9.3981 
 135   0.0000       0.350473         9.5369 
 136   0.0000       0.351053         9.5526 
 137   0.0000       0.356492         9.7007 
 138   0.0000       0.357280         9.7221 
 139   0.0000       0.359281         9.7765 
 140   0.0000       0.364676         9.9233 
 141   0.0000       0.365704         9.9513 
 142   0.0000       0.370800        10.0900 
 143   0.0000       0.379848        10.3362 
 144   0.0000       0.381869        10.3912 
 145   0.0000       0.385276        10.4839 
 146   0.0000       0.389338        10.5944 
 147   0.0000       0.391524        10.6539 
 148   0.0000       0.396801        10.7975 
 149   0.0000       0.398861        10.8535 
 150   0.0000       0.402168        10.9436 
 151   0.0000       0.404991        11.0204 
 152   0.0000       0.408890        11.1265 
 153   0.0000       0.410196        11.1620 
 154   0.0000       0.414169        11.2701 
 155   0.0000       0.419904        11.4262 
 156   0.0000       0.426416        11.6034 
 157   0.0000       0.432965        11.7816 
 158   0.0000       0.433882        11.8065 
 159   0.0000       0.441097        12.0028 
 160   0.0000       0.444104        12.0847 
 161   0.0000       0.447897        12.1879 
 162   0.0000       0.452306        12.3079 
 163   0.0000       0.453583        12.3426 
 164   0.0000       0.463309        12.6073 
 165   0.0000       0.465406        12.6643 
 166   0.0000       0.469445        12.7743 
 167   0.0000       0.472819        12.8661 
 168   0.0000       0.475176        12.9302 
 169   0.0000       0.478877        13.0309 
 170   0.0000       0.481889        13.1129 
 171   0.0000       0.485039        13.1986 
 172   0.0000       0.488063        13.2809 
 173   0.0000       0.491566        13.3762 
 174   0.0000       0.498081        13.5535 
 175   0.0000       0.500057        13.6073 
 176   0.0000       0.506154        13.7732 
 177   0.0000       0.512311        13.9407 
 178   0.0000       0.514473        13.9995 
 179   0.0000       0.519055        14.1242 
 180   0.0000       0.520932        14.1753 
 181   0.0000       0.529510        14.4087 
 182   0.0000       0.534568        14.5463 
 183   0.0000       0.539544        14.6817 
 184   0.0000       0.544774        14.8241 
 185   0.0000       0.546356        14.8671 
 186   0.0000       0.548410        14.9230 
 187   0.0000       0.553408        15.0590 
 188   0.0000       0.563759        15.3407 
 189   0.0000       0.569456        15.4957 
 190   0.0000       0.573675        15.6105 
 191   0.0000       0.575136        15.6503 
 192   0.0000       0.577504        15.7147 
 193   0.0000       0.580780        15.8038 
 194   0.0000       0.584111        15.8945 
 195   0.0000       0.592085        16.1115 
 196   0.0000       0.597407        16.2563 
 197   0.0000       0.598907        16.2971 
 198   0.0000       0.602171        16.3859 
 199   0.0000       0.607975        16.5439 
 200   0.0000       0.613339        16.6898 
 201   0.0000       0.617982        16.8162 
 202   0.0000       0.621336        16.9074 
 203   0.0000       0.628443        17.1008 
 204   0.0000       0.633969        17.2512 
 205   0.0000       0.635857        17.3025 
 206   0.0000       0.638492        17.3742 
 207   0.0000       0.641223        17.4486 
 208   0.0000       0.643256        17.5039 
 209   0.0000       0.645563        17.5667 
 210   0.0000       0.653239        17.7755 
 211   0.0000       0.657071        17.8798 
 212   0.0000       0.664775        18.0895 
 213   0.0000       0.667686        18.1687 
 214   0.0000       0.669843        18.2274 
 215   0.0000       0.672954        18.3120 
 216   0.0000       0.676169        18.3995 
 217   0.0000       0.683912        18.6102 
 218   0.0000       0.689062        18.7503 
 219   0.0000       0.692793        18.8519 
 220   0.0000       0.693870        18.8812 
 221   0.0000       0.702417        19.1137 
 222   0.0000       0.705952        19.2099 
 223   0.0000       0.710597        19.3363 
 224   0.0000       0.714328        19.4378 
 225   0.0000       0.718429        19.5495 
 226   0.0000       0.723124        19.6772 
 227   0.0000       0.729493        19.8505 
 228   0.0000       0.732428        19.9304 
 229   0.0000       0.735841        20.0233 
 230   0.0000       0.741350        20.1732 
 231   0.0000       0.750895        20.4329 
 232   0.0000       0.756037        20.5728 
 233   0.0000       0.761423        20.7194 
 234   0.0000       0.764541        20.8042 
 235   0.0000       0.770306        20.9611 
 236   0.0000       0.775565        21.1042 
 237   0.0000       0.782930        21.3046 
 238   0.0000       0.788441        21.4546 
 239   0.0000       0.790533        21.5115 
 240   0.0000       0.795160        21.6374 
 241   0.0000       0.797216        21.6933 
 242   0.0000       0.805465        21.9178 
 243   0.0000       0.810058        22.0428 
 244   0.0000       0.810987        22.0681 
 245   0.0000       0.820076        22.3154 
 246   0.0000       0.821729        22.3604 
 247   0.0000       0.831191        22.6179 
 248   0.0000       0.839492        22.8437 
 249   0.0000       0.841726        22.9045 
 250   0.0000       0.844110        22.9694 
 251   0.0000       0.858248        23.3541 
 252   0.0000       0.863013        23.4838 
 253   0.0000       0.868425        23.6311 
 254   0.0000       0.870413        23.6851 
 255   0.0000       0.881098        23.9759 
 256   0.0000       0.888097        24.1663 
 257   0.0000       0.895167        24.3587 
 258   0.0000       0.907525        24.6950 
 259   0.0000       0.911096        24.7922 
 260   0.0000       0.917654        24.9706 
 261   0.0000       0.920691        25.0533 
 262   0.0000       0.932578        25.3767 
 263   0.0000       0.938512        25.5382 
 264   0.0000       0.943214        25.6662 
 265   0.0000       0.952514        25.9192 
 266   0.0000       0.955839        26.0097 
 267   0.0000       0.962444        26.1894 
 268   0.0000       0.969865        26.3914 
 269   0.0000       0.977118        26.5887 
 270   0.0000       0.982684        26.7402 
 271   0.0000       0.987289        26.8655 
 272   0.0000       0.995747        27.0957 
 273   0.0000       1.002479        27.2788 
 274   0.0000       1.006639        27.3920 
 275   0.0000       1.017161        27.6783 
 276   0.0000       1.024858        27.8878 
 277   0.0000       1.026196        27.9242 
 278   0.0000       1.039199        28.2780 
 279   0.0000       1.049019        28.5453 
 280   0.0000       1.060598        28.8603 
 281   0.0000       1.068767        29.0826 
 282   0.0000       1.078349        29.3434 
 283   0.0000       1.093065        29.7438 
 284   0.0000       1.101485        29.9729 
 285   0.0000       1.105459        30.0811 
 286   0.0000       1.114227        30.3197 
 287   0.0000       1.132233        30.8096 
 288   0.0000       1.137432        30.9511 
 289   0.0000       1.153753        31.3952 
 290   0.0000       1.162616        31.6364 
 291   0.0000       1.174859        31.9695 
 292   0.0000       1.179982        32.1089 
 293   0.0000       1.190514        32.3955 
 294   0.0000       1.204467        32.7752 
 295   0.0000       1.207416        32.8555 
 296   0.0000       1.211675        32.9713 
 297   0.0000       1.217570        33.1318 
 298   0.0000       1.241117        33.7725 
 299   0.0000       1.258267        34.2392 
 300   0.0000       1.260668        34.3045 
 301   0.0000       1.265160        34.4268 
 302   0.0000       1.273731        34.6600 
 303   0.0000       1.285327        34.9755 
 304   0.0000       1.293715        35.2038 
 305   0.0000       1.309786        35.6411 
 306   0.0000       1.312624        35.7183 
 307   0.0000       1.332186        36.2506 
 308   0.0000       1.337073        36.3836 
 309   0.0000       1.343640        36.5623 
 310   0.0000       1.351799        36.7843 
 311   0.0000       1.363473        37.1020 
 312   0.0000       1.369100        37.2551 
 313   0.0000       1.381057        37.5805 
 314   0.0000       1.394406        37.9437 
 315   0.0000       1.399211        38.0745 
 316   0.0000       1.403994        38.2046 
 317   0.0000       1.414232        38.4832 
 318   0.0000       1.419194        38.6182 
 319   0.0000       1.439909        39.1819 
 320   0.0000       1.443217        39.2719 
 321   0.0000       1.456236        39.6262 
 322   0.0000       1.473225        40.0885 
 323   0.0000       1.479342        40.2550 
 324   0.0000       1.497101        40.7382 
 325   0.0000       1.502915        40.8964 
 326   0.0000       1.513354        41.1804 
 327   0.0000       1.527540        41.5665 
 328   0.0000       1.543678        42.0056 
 329   0.0000       1.572080        42.7785 
 330   0.0000       1.580987        43.0208 
 331   0.0000       1.582340        43.0576 
 332   0.0000       1.618686        44.0467 
 333   0.0000       1.626775        44.2668 
 334   0.0000       1.669901        45.4403 
 335   0.0000       1.691276        46.0220 
 336   0.0000       1.723836        46.9080 
 337   0.0000       1.735948        47.2375 
 338   0.0000       1.754713        47.7482 
 339   0.0000       1.763843        47.9966 
 340   0.0000       1.770894        48.1885 
 341   0.0000       1.775509        48.3140 
 342   0.0000       1.777004        48.3547 
 343   0.0000       1.792742        48.7830 
 344   0.0000       1.802782        49.0562 
 345   0.0000       1.808387        49.2087 
 346   0.0000       1.811456        49.2922 
 347   0.0000       1.819928        49.5228 
 348   0.0000       1.826589        49.7040 
 349   0.0000       1.833225        49.8846 
 350   0.0000       1.839388        50.0523 
 351   0.0000       1.842693        50.1422 
 352   0.0000       1.846087        50.2346 
 353   0.0000       1.862692        50.6864 
 354   0.0000       1.868407        50.8419 
 355   0.0000       1.875646        51.0389 
 356   0.0000       1.888502        51.3887 
 357   0.0000       1.891495        51.4702 
 358   0.0000       1.893733        51.5311 
 359   0.0000       1.915545        52.1246 
 360   0.0000       1.918042        52.1926 
 361   0.0000       1.925941        52.4075 
 362   0.0000       1.949790        53.0565 
 363   0.0000       1.955319        53.2069 
 364   0.0000       1.963399        53.4268 
 365   0.0000       1.980543        53.8933 
 366   0.0000       1.985489        54.0279 
 367   0.0000       1.997910        54.3659 
 368   0.0000       2.007839        54.6361 
 369   0.0000       2.019702        54.9589 
 370   0.0000       2.026488        55.1436 
 371   0.0000       2.041040        55.5395 
 372   0.0000       2.048629        55.7460 
 373   0.0000       2.059395        56.0390 
 374   0.0000       2.082349        56.6636 
 375   0.0000       2.096252        57.0419 
 376   0.0000       2.097666        57.0804 
 377   0.0000       2.106893        57.3315 
 378   0.0000       2.135687        58.1150 
 379   0.0000       2.145894        58.3927 
 380   0.0000       2.151026        58.5324 
 381   0.0000       2.162254        58.8379 
 382   0.0000       2.169601        59.0379 
 383   0.0000       2.187852        59.5345 
 384   0.0000       2.201769        59.9132 
 385   0.0000       2.207734        60.0755 
 386   0.0000       2.212875        60.2154 
 387   0.0000       2.223293        60.4989 
 388   0.0000       2.245426        61.1011 
 389   0.0000       2.246862        61.1402 
 390   0.0000       2.254960        61.3606 
 391   0.0000       2.275041        61.9070 
 392   0.0000       2.282261        62.1035 
 393   0.0000       2.313202        62.9454 
 394   0.0000       2.327023        63.3215 
 395   0.0000       2.335272        63.5460 
 396   0.0000       2.341025        63.7025 
 397   0.0000       2.348304        63.9006 
 398   0.0000       2.379719        64.7554 
 399   0.0000       2.384840        64.8948 
 400   0.0000       2.391906        65.0871 
 401   0.0000       2.397383        65.2361 
 402   0.0000       2.420241        65.8581 
 403   0.0000       2.429158        66.1008 
 404   0.0000       2.446024        66.5597 
 405   0.0000       2.471437        67.2512 
 406   0.0000       2.477782        67.4239 
 407   0.0000       2.490199        67.7618 
 408   0.0000       2.494269        67.8725 
 409   0.0000       2.509471        68.2862 
 410   0.0000       2.523382        68.6647 
 411   0.0000       2.533218        68.9324 
 412   0.0000       2.538103        69.0653 
 413   0.0000       2.548511        69.3485 
 414   0.0000       2.563980        69.7694 
 415   0.0000       2.571976        69.9870 
 416   0.0000       2.581293        70.2406 
 417   0.0000       2.586513        70.3826 
 418   0.0000       2.592691        70.5507 
 419   0.0000       2.609544        71.0093 
 420   0.0000       2.620888        71.3180 
 421   0.0000       2.629185        71.5438 
 422   0.0000       2.641069        71.8671 
 423   0.0000       2.651912        72.1622 
 424   0.0000       2.658887        72.3520 
 425   0.0000       2.668924        72.6251 
 426   0.0000       2.675963        72.8167 
 427   0.0000       2.679729        72.9191 
 428   0.0000       2.690135        73.2023 
 429   0.0000       2.691757        73.2464 
 430   0.0000       2.697894        73.4134 
 431   0.0000       2.715116        73.8821 
 432   0.0000       2.724781        74.1451 
 433   0.0000       2.744548        74.6829 
 434   0.0000       2.753849        74.9360 
 435   0.0000       2.764698        75.2312 
 436   0.0000       2.774475        75.4973 
 437   0.0000       2.782681        75.7206 
 438   0.0000       2.794255        76.0355 
 439   0.0000       2.798877        76.1613 
 440   0.0000       2.805119        76.3312 
 441   0.0000       2.832364        77.0725 
 442   0.0000       2.835278        77.1518 
 443   0.0000       2.852233        77.6132 
 444   0.0000       2.857812        77.7650 
 445   0.0000       2.865648        77.9783 
 446   0.0000       2.878423        78.3259 
 447   0.0000       2.898791        78.8801 
 448   0.0000       2.903952        79.0205 
 449   0.0000       2.907581        79.1193 
 450   0.0000       2.931481        79.7697 
 451   0.0000       2.946541        80.1794 
 452   0.0000       2.952011        80.3283 
 453   0.0000       2.957249        80.4708 
 454   0.0000       2.980634        81.1072 
 455   0.0000       2.988400        81.3185 
 456   0.0000       2.995364        81.5080 
 457   0.0000       3.013422        81.9994 
 458   0.0000       3.038820        82.6905 
 459   0.0000       3.045998        82.8858 
 460   0.0000       3.055344        83.1401 
 461   0.0000       3.072104        83.5962 
 462   0.0000       3.092993        84.1646 
 463   0.0000       3.098792        84.3224 
 464   0.0000       3.119978        84.8989 
 465   0.0000       3.128660        85.1352 
 466   0.0000       3.147742        85.6544 
 467   0.0000       3.168545        86.2205 
 468   0.0000       3.186098        86.6981 
 469   0.0000       3.187897        86.7471 
 470   0.0000       3.197258        87.0018 
 471   0.0000       3.214816        87.4796 
 472   0.0000       3.226219        87.7899 
 473   0.0000       3.232155        87.9514 
 474   0.0000       3.238577        88.1262 
 475   0.0000       3.252954        88.5174 
 476   0.0000       3.254211        88.5516 
 477   0.0000       3.270319        88.9899 
 478   0.0000       3.281709        89.2998 
 479   0.0000       3.291472        89.5655 
 480   0.0000       3.298425        89.7547 
 481   0.0000       3.309586        90.0584 
 482   0.0000       3.317146        90.2641 
 483   0.0000       3.325055        90.4793 
 484   0.0000       3.330843        90.6368 
 485   0.0000       3.335289        90.7578 
 486   0.0000       3.344871        91.0186 
 487   0.0000       3.347342        91.0858 
 488   0.0000       3.361604        91.4739 
 489   0.0000       3.379544        91.9621 
 490   0.0000       3.388053        92.1936 
 491   0.0000       3.395984        92.4094 
 492   0.0000       3.407137        92.7129 
 493   0.0000       3.411328        92.8270 
 494   0.0000       3.415527        92.9412 
 495   0.0000       3.426089        93.2286 
 496   0.0000       3.440387        93.6177 
 497   0.0000       3.442740        93.6817 
 498   0.0000       3.448742        93.8450 
 499   0.0000       3.464837        94.2830 
 500   0.0000       3.476420        94.5982 
 501   0.0000       3.492181        95.0271 
 502   0.0000       3.500019        95.2404 
 503   0.0000       3.507363        95.4402 
 504   0.0000       3.527099        95.9772 
 505   0.0000       3.540029        96.3291 
 506   0.0000       3.542775        96.4038 
 507   0.0000       3.546697        96.5105 
 508   0.0000       3.563136        96.9579 
 509   0.0000       3.571812        97.1939 
 510   0.0000       3.587604        97.6237 
 511   0.0000       3.604697        98.0888 
 512   0.0000       3.606943        98.1499 
 513   0.0000       3.631897        98.8289 
 514   0.0000       3.634832        98.9088 
 515   0.0000       3.641145        99.0806 
 516   0.0000       3.647605        99.2564 
 517   0.0000       3.669837        99.8613 
 518   0.0000       3.684973       100.2732 
 519   0.0000       3.700275       100.6896 
 520   0.0000       3.709637       100.9444 
 521   0.0000       3.719612       101.2158 
 522   0.0000       3.733739       101.6002 
 523   0.0000       3.758726       102.2801 
 524   0.0000       3.777002       102.7774 
 525   0.0000       3.785949       103.0209 
 526   0.0000       3.828502       104.1788 
 527   0.0000       3.855206       104.9055 
 528   0.0000       3.872516       105.3765 
 529   0.0000       3.879312       105.5615 
 530   0.0000       3.889279       105.8327 
 531   0.0000       3.916841       106.5827 
 532   0.0000       3.931301       106.9761 
 533   0.0000       3.938146       107.1624 
 534   0.0000       3.954276       107.6013 
 535   0.0000       3.971231       108.0627 
 536   0.0000       3.993004       108.6552 
 537   0.0000       3.999851       108.8415 
 538   0.0000       4.018488       109.3486 
 539   0.0000       4.020456       109.4022 
 540   0.0000       4.043929       110.0409 
 541   0.0000       4.053776       110.3089 
 542   0.0000       4.075386       110.8969 
 543   0.0000       4.088994       111.2672 
 544   0.0000       4.107252       111.7640 
 545   0.0000       4.148120       112.8761 
 546   0.0000       4.153017       113.0093 
 547   0.0000       4.172642       113.5434 
 548   0.0000       4.185664       113.8977 
 549   0.0000       4.212095       114.6169 
 550   0.0000       4.240290       115.3841 
 551   0.0000       4.281170       116.4966 
 552   0.0000       4.305591       117.1611 
 553   0.0000       4.323805       117.6567 
 554   0.0000       4.327484       117.7568 
 555   0.0000       4.357988       118.5869 
 556   0.0000       4.380035       119.1868 
 557   0.0000       4.409001       119.9750 
 558   0.0000       4.424416       120.3945 
 559   0.0000       4.438017       120.7646 
 560   0.0000       4.477722       121.8450 
 561   0.0000       4.521435       123.0345 
 562   0.0000       4.557379       124.0126 
 563   0.0000       4.563494       124.1790 
 564   0.0000       4.603102       125.2568 
 565   0.0000       4.616081       125.6100 
 566   0.0000       4.642012       126.3156 
 567   0.0000       4.652806       126.6093 
 568   0.0000       4.681678       127.3949 
 569   0.0000       4.694606       127.7467 
 570   0.0000       4.720873       128.4615 
 571   0.0000       4.737082       128.9025 
 572   0.0000       4.756470       129.4301 
 573   0.0000       4.766607       129.7060 
 574   0.0000       4.804858       130.7468 
 575   0.0000       4.820851       131.1820 
 576   0.0000       4.861396       132.2853 
 577   0.0000       4.888387       133.0198 
 578   0.0000       4.895487       133.2130 
 579   0.0000       4.933855       134.2570 
 580   0.0000       4.961490       135.0090 
 581   0.0000       4.965246       135.1112 
 582   0.0000       4.978121       135.4616 
 583   0.0000       5.004729       136.1856 
 584   0.0000       5.061834       137.7395 
 585   0.0000       5.086166       138.4016 
 586   0.0000       5.110749       139.0705 
 587   0.0000       5.128604       139.5564 
 588   0.0000       5.134623       139.7202 
 589   0.0000       5.162655       140.4830 
 590   0.0000       5.212788       141.8472 
 591   0.0000       5.263359       143.2233 
 592   0.0000       5.287960       143.8927 
 593   0.0000       5.348553       145.5415 
 594   0.0000       5.376603       146.3048 
 595   0.0000       5.417554       147.4191 
 596   0.0000       5.433798       147.8612 
 597   0.0000       5.441412       148.0683 
 598   0.0000       5.458795       148.5414 
 599   0.0000       5.502989       149.7439 
 600   0.0000       5.544990       150.8868 
 601   0.0000       5.610769       152.6768 
 602   0.0000       5.649437       153.7290 
 603   0.0000       5.779140       157.2584 
 604   0.0000       5.904307       160.6644 
 605   0.0000       5.925913       161.2523 
 606   0.0000       6.029932       164.0828 
 607   0.0000       6.103921       166.0961 
 608   0.0000       6.164200       167.7364 
 609   0.0000       6.210688       169.0014 
 610   0.0000       6.476740       176.2411 
 611   0.0000       6.509911       177.1437 
 612   0.0000       6.673134       181.5852 
 613   0.0000       6.715835       182.7472 
 614   0.0000       6.773002       184.3027 
 615   0.0000       6.785971       184.6557 
 616   0.0000       6.947057       189.0390 
 617   0.0000       7.029209       191.2745 
 618   0.0000       7.118920       193.7157 
 619   0.0000       7.270364       197.8367 
 620   0.0000       7.428469       202.1389 
 621   0.0000       7.692563       209.3253 
 622   0.0000       8.446820       229.8497 
 623   0.0000       8.461570       230.2510 
 624   0.0000       8.718153       237.2330 
 625   0.0000       8.874160       241.4782 
 626   0.0000       9.102391       247.6887 
 627   0.0000      22.438603       610.5854 
 628   0.0000      22.490980       612.0107 
 629   0.0000      22.507766       612.4675 
 630   0.0000      22.556347       613.7894 
 631   0.0000      22.591130       614.7359 
 632   0.0000      22.661618       616.6540 
 633   0.0000      22.694359       617.5449 
 634   0.0000      23.246352       632.5654 
 635   0.0000      23.359484       635.6439 
 636   0.0000      32.339317       879.9975 
 637   0.0000      32.555292       885.8745 
 638   0.0000      44.035148      1198.2573 
 639   0.0000      57.446136      1563.1888 

                    ********************************
                    * MULLIKEN POPULATION ANALYSIS *
                    ********************************

-----------------------
MULLIKEN ATOMIC CHARGES
-----------------------
   0 C :   -0.501266
   1 N :   -0.041307
   2 C :   -0.297435
   3 C :   -0.176975
   4 H :    0.181213
   5 H :    0.151828
   6 C :    0.430230
   7 C :   -0.039838
   8 N :   -0.241223
   9 C :   -1.105509
  10 H :    0.228129
  11 H :    0.550184
  12 H :    0.223684
  13 H :    0.253822
  14 H :    0.256676
  15 O :   -0.471709
  16 F :   -0.279128
  17 C :   -0.365807
  18 H :    0.105793
  19 H :    0.222708
  20 C :   -0.133552
  21 H :    0.168566
  22 H :    0.144769
  23 C :   -0.254696
  24 H :    0.216034
  25 H :    0.198294
  26 H :    0.104207
  27 H :    0.144437
  28 H :    0.117323
  29 H :    0.210551
Sum of atomic charges:   -0.0000000

--------------------------------
MULLIKEN REDUCED ORBITAL CHARGES
--------------------------------
  0 C s       :     3.420022  s :     3.420022
      pz      :     0.883930  p :     3.005810
      px      :     1.042765
      py      :     1.079115
      dz2     :     0.016545  d :     0.067790
      dxz     :     0.028649
      dyz     :     0.035464
      dx2y2   :    -0.020528
      dxy     :     0.007659
      f0      :     0.001521  f :     0.007644
      f+1     :     0.001062
      f-1     :     0.002226
      f+2     :     0.000642
      f-2     :     0.001049
      f+3     :     0.000578
      f-3     :     0.000565
  1 N s       :     3.413644  s :     3.413644
      pz      :     0.941230  p :     3.540970
      px      :     0.988689
      py      :     1.611051
      dz2     :     0.039180  d :     0.083082
      dxz     :     0.017900
      dyz     :     0.022339
      dx2y2   :    -0.005513
      dxy     :     0.009176
      f0      :     0.000767  f :     0.003610
      f+1     :     0.000598
      f-1     :     0.000514
      f+2     :     0.000625
      f-2     :     0.000316
      f+3     :     0.000328
      f-3     :     0.000463
  2 C s       :     3.020856  s :     3.020856
      pz      :     1.028668  p :     3.180817
      px      :     1.111965
      py      :     1.040184
      dz2     :    -0.009742  d :     0.090605
      dxz     :    -0.010857
      dyz     :     0.089617
      dx2y2   :     0.024304
      dxy     :    -0.002717
      f0      :     0.000869  f :     0.005157
      f+1     :     0.000749
      f-1     :     0.001034
      f+2     :     0.000552
      f-2     :     0.000689
      f+3     :     0.000383
      f-3     :     0.000880
  3 C s       :     3.047462  s :     3.047462
      pz      :     1.006575  p :     3.043143
      px      :     1.071471
      py      :     0.965096
      dz2     :     0.040656  d :     0.081390
      dxz     :     0.016920
      dyz     :     0.021820
      dx2y2   :    -0.025264
      dxy     :     0.027259
      f0      :     0.001025  f :     0.004980
      f+1     :     0.000540
      f-1     :     0.001073
      f+2     :     0.000794
      f-2     :     0.000888
      f+3     :     0.000102
      f-3     :     0.000558
  4 H s       :     0.773634  s :     0.773634
      pz      :     0.012345  p :     0.045153
      px      :     0.022875
      py      :     0.009933
  5 H s       :     0.822249  s :     0.822249
      pz      :     0.018424  p :     0.025923
      px      :     0.010694
      py      :    -0.003194
  6 C s       :     3.277328  s :     3.277328
      pz      :     0.712401  p :     1.914110
      px      :     0.610223
      py      :     0.591486
      dz2     :     0.076706  d :     0.351116
      dxz     :     0.045062
      dyz     :     0.063285
      dx2y2   :     0.088995
      dxy     :     0.077069
      f0      :     0.003426  f :     0.027215
      f+1     :     0.003868
      f-1     :     0.001565
      f+2     :     0.002338
      f-2     :     0.005897
      f+3     :     0.003494
      f-3     :     0.006627
  7 C s       :     3.404995  s :     3.404995
      pz      :     0.838298  p :     2.340107
      px      :     0.733580
      py      :     0.768229
      dz2     :     0.173745  d :     0.276534
      dxz     :     0.008923
      dyz     :     0.058844
      dx2y2   :     0.027756
      dxy     :     0.007265
      f0      :     0.003457  f :     0.018203
      f+1     :     0.002282
      f-1     :     0.001788
      f+2     :     0.003340
      f-2     :     0.002488
      f+3     :     0.002680
      f-3     :     0.002168
  8 N s       :     3.335103  s :     3.335103
      pz      :     1.422720  p :     3.858094
      px      :     1.066614
      py      :     1.368760
      dz2     :     0.014905  d :     0.044977
      dxz     :     0.007292
      dyz     :     0.001290
      dx2y2   :     0.001698
      dxy     :     0.019792
      f0      :     0.000356  f :     0.003049
      f+1     :     0.000183
      f-1     :     0.000431
      f+2     :     0.000474
      f-2     :     0.000631
      f+3     :     0.000566
      f-3     :     0.000408
  9 C s       :     3.466734  s :     3.466734
      pz      :     1.283274  p :     3.562175
      px      :     1.203362
      py      :     1.075539
      dz2     :     0.009883  d :     0.072800
      dxz     :     0.012945
      dyz     :     0.020578
      dx2y2   :    -0.041538
      dxy     :     0.070931
      f0      :     0.000869  f :     0.003801
      f+1     :     0.000111
      f-1     :     0.000584
      f+2     :     0.000890
      f-2     :     0.000719
      f+3     :     0.000173
      f-3     :     0.000455
 10 H s       :     0.672515  s :     0.672515
      pz      :     0.027915  p :     0.099356
      px      :     0.010703
      py      :     0.060738
 11 H s       :     0.502509  s :     0.502509
      pz      :    -0.061496  p :    -0.052692
      px      :     0.010543
      py      :    -0.001740
 12 H s       :     0.770841  s :     0.770841
      pz      :    -0.001443  p :     0.005475
      px      :     0.009676
      py      :    -0.002758
 13 H s       :     0.762780  s :     0.762780
      pz      :    -0.033057  p :    -0.016602
      px      :     0.004150
      py      :     0.012305
 14 H s       :     0.756226  s :     0.756226
      pz      :     0.013454  p :    -0.012902
      px      :     0.024045
      py      :    -0.050401
 15 O s       :     3.984582  s :     3.984582
      pz      :     1.459486  p :     4.449270
      px      :     1.304065
      py      :     1.685719
      dz2     :     0.009774  d :     0.036230
      dxz     :     0.007779
      dyz     :     0.007007
      dx2y2   :     0.007584
      dxy     :     0.004085
      f0      :     0.000133  f :     0.001627
      f+1     :     0.000421
      f-1     :     0.000065
      f+2     :     0.000281
      f-2     :     0.000277
      f+3     :     0.000239
      f-3     :     0.000211
 16 F s       :     4.035704  s :     4.035704
      pz      :     1.884075  p :     5.213864
      px      :     1.743917
      py      :     1.585872
      dz2     :     0.005425  d :     0.028710
      dxz     :     0.005154
      dyz     :     0.005909
      dx2y2   :     0.006729
      dxy     :     0.005495
      f0      :     0.000095  f :     0.000849
      f+1     :     0.000068
      f-1     :     0.000110
      f+2     :     0.000017
      f-2     :     0.000126
      f+3     :     0.000227
      f-3     :     0.000207
 17 C s       :     3.099683  s :     3.099683
      pz      :     1.083904  p :     3.122734
      px      :     1.078814
      py      :     0.960016
      dz2     :     0.044527  d :     0.138244
      dxz     :     0.001643
      dyz     :     0.004061
      dx2y2   :     0.074637
      dxy     :     0.013376
      f0      :     0.000370  f :     0.005147
      f+1     :     0.000436
      f-1     :     0.001219
      f+2     :     0.000622
      f-2     :     0.000687
      f+3     :     0.000871
      f-3     :     0.000942
 18 H s       :     0.830618  s :     0.830618
      pz      :     0.031009  p :     0.063589
      px      :     0.005899
      py      :     0.026681
 19 H s       :     0.716229  s :     0.716229
      pz      :     0.033457  p :     0.061064
      px      :     0.037140
      py      :    -0.009532
 20 C s       :     3.086033  s :     3.086033
      pz      :     1.182763  p :     2.977433
      px      :     0.891438
      py      :     0.903232
      dz2     :     0.007807  d :     0.064942
      dxz     :    -0.026418
      dyz     :     0.053438
      dx2y2   :     0.010359
      dxy     :     0.019756
      f0      :     0.000717  f :     0.005144
      f+1     :     0.000490
      f-1     :     0.000495
      f+2     :     0.000883
      f-2     :     0.000337
      f+3     :     0.000968
      f-3     :     0.001254
 21 H s       :     0.786232  s :     0.786232
      pz      :     0.037089  p :     0.045202
      px      :    -0.009331
      py      :     0.017443
 22 H s       :     0.822187  s :     0.822187
      pz      :    -0.008101  p :     0.033044
      px      :     0.026571
      py      :     0.014574
 23 C s       :     3.152751  s :     3.152751
      pz      :     1.093601  p :     2.992952
      px      :     0.931526
      py      :     0.967825
      dz2     :     0.043263  d :     0.103828
      dxz     :    -0.014779
      dyz     :    -0.031124
      dx2y2   :     0.064769
      dxy     :     0.041700
      f0      :     0.000737  f :     0.005165
      f+1     :     0.000416
      f-1     :     0.000483
      f+2     :     0.000835
      f-2     :     0.000345
      f+3     :     0.001064
      f-3     :     0.001284
 24 H s       :     0.712081  s :     0.712081
      pz      :     0.055560  p :     0.071885
      px      :     0.018522
      py      :    -0.002196
 25 H s       :     0.801095  s :     0.801095
      pz      :    -0.002180  p :     0.000612
      px      :    -0.009963
      py      :     0.012755
 26 H s       :     0.811853  s :     0.811853
      pz      :     0.031934  p :     0.083940
      px      :     0.003841
      py      :     0.048166
 27 H s       :     0.842963  s :     0.842963
      pz      :     0.024287  p :     0.012600
      px      :     0.000842
      py      :    -0.012529
 28 H s       :     0.841074  s :     0.841074
      pz      :     0.032295  p :     0.041602
      px      :    -0.014718
      py      :     0.024025
 29 H s       :     0.759763  s :     0.759763
      pz      :    -0.005553  p :     0.029686
      px      :     0.029809
      py      :     0.005430


                     *******************************
                     * LOEWDIN POPULATION ANALYSIS *
                     *******************************

----------------------
LOEWDIN ATOMIC CHARGES
----------------------
   0 C :   -0.200503
   1 N :    0.046901
   2 C :   -0.198577
   3 C :   -0.097681
   4 H :    0.123497
   5 H :    0.125217
   6 C :   -0.494820
   7 C :   -0.571161
   8 N :    0.160643
   9 C :    0.004889
  10 H :    0.019813
  11 H :   -0.018416
  12 H :    0.134532
  13 H :    0.099001
  14 H :    0.072271
  15 O :    0.093466
  16 F :    0.206957
  17 C :   -0.185474
  18 H :    0.111713
  19 H :    0.099299
  20 C :   -0.198541
  21 H :    0.108932
  22 H :    0.111148
  23 C :   -0.210795
  24 H :    0.106088
  25 H :    0.118890
  26 H :    0.089262
  27 H :    0.118306
  28 H :    0.115033
  29 H :    0.110109

-------------------------------
LOEWDIN REDUCED ORBITAL CHARGES
-------------------------------
  0 C s       :     2.669220  s :     2.669220
      pz      :     0.830928  p :     2.670205
      px      :     0.912450
      py      :     0.926826
      dz2     :     0.179269  d :     0.807432
      dxz     :     0.135994
      dyz     :     0.240741
      dx2y2   :     0.096750
      dxy     :     0.154678
      f0      :     0.009634  f :     0.053646
      f+1     :     0.008769
      f-1     :     0.012505
      f+2     :     0.005499
      f-2     :     0.008460
      f+3     :     0.003919
      f-3     :     0.004860
  1 N s       :     2.854590  s :     2.854590
      pz      :     1.062908  p :     3.431044
      px      :     1.052884
      py      :     1.315252
      dz2     :     0.210379  d :     0.651301
      dxz     :     0.158969
      dyz     :     0.145397
      dx2y2   :     0.076457
      dxy     :     0.060099
      f0      :     0.003290  f :     0.016163
      f+1     :     0.002900
      f-1     :     0.002675
      f+2     :     0.002904
      f-2     :     0.002245
      f+3     :     0.000825
      f-3     :     0.001324
  2 C s       :     2.674385  s :     2.674385
      pz      :     0.903308  p :     2.749872
      px      :     0.922366
      py      :     0.924198
      dz2     :     0.153266  d :     0.735542
      dxz     :     0.107904
      dyz     :     0.209812
      dx2y2   :     0.150281
      dxy     :     0.114280
      f0      :     0.005611  f :     0.038779
      f+1     :     0.006850
      f-1     :     0.006225
      f+2     :     0.005649
      f-2     :     0.004859
      f+3     :     0.003376
      f-3     :     0.006209
  3 C s       :     2.670554  s :     2.670554
      pz      :     0.891976  p :     2.723553
      px      :     0.934661
      py      :     0.896916
      dz2     :     0.176075  d :     0.666456
      dxz     :     0.133459
      dyz     :     0.165317
      dx2y2   :     0.054876
      dxy     :     0.136730
      f0      :     0.007171  f :     0.037118
      f+1     :     0.005260
      f-1     :     0.006473
      f+2     :     0.007171
      f-2     :     0.004955
      f+3     :     0.001695
      f-3     :     0.004392
  4 H s       :     0.661672  s :     0.661672
      pz      :     0.057314  p :     0.214831
      px      :     0.090222
      py      :     0.067295
  5 H s       :     0.671462  s :     0.671462
      pz      :     0.056771  p :     0.203320
      px      :     0.081409
      py      :     0.065141
  6 C s       :     2.628912  s :     2.628912
      pz      :     0.790111  p :     2.334856
      px      :     0.779470
      py      :     0.765276
      dz2     :     0.237829  d :     1.351868
      dxz     :     0.240145
      dyz     :     0.244728
      dx2y2   :     0.289081
      dxy     :     0.340086
      f0      :     0.020963  f :     0.179183
      f+1     :     0.023105
      f-1     :     0.013825
      f+2     :     0.018289
      f-2     :     0.032690
      f+3     :     0.027860
      f-3     :     0.042452
  7 C s       :     2.591933  s :     2.591933
      pz      :     0.875872  p :     2.534905
      px      :     0.854955
      py      :     0.804079
      dz2     :     0.281129  d :     1.326782
      dxz     :     0.338419
      dyz     :     0.210806
      dx2y2   :     0.238443
      dxy     :     0.257985
      f0      :     0.021103  f :     0.117541
      f+1     :     0.016920
      f-1     :     0.012773
      f+2     :     0.017702
      f-2     :     0.017119
      f+3     :     0.016821
      f-3     :     0.015104
  8 N s       :     2.887316  s :     2.887316
      pz      :     1.197115  p :     3.506479
      px      :     1.109387
      py      :     1.199977
      dz2     :     0.046709  d :     0.432752
      dxz     :     0.126145
      dyz     :     0.044395
      dx2y2   :     0.086987
      dxy     :     0.128517
      f0      :     0.001605  f :     0.012810
      f+1     :     0.001343
      f-1     :     0.001233
      f+2     :     0.001880
      f-2     :     0.001689
      f+3     :     0.002738
      f-3     :     0.002322
  9 C s       :     2.725164  s :     2.725164
      pz      :     0.976069  p :     2.822580
      px      :     0.929969
      py      :     0.916542
      dz2     :     0.094034  d :     0.414755
      dxz     :     0.076025
      dyz     :     0.079521
      dx2y2   :     0.046080
      dxy     :     0.119095
      f0      :     0.006632  f :     0.032612
      f+1     :     0.003811
      f-1     :     0.005234
      f+2     :     0.004905
      f-2     :     0.006273
      f+3     :     0.001647
      f-3     :     0.004110
 10 H s       :     0.715802  s :     0.715802
      pz      :     0.084759  p :     0.264385
      px      :     0.093484
      py      :     0.086141
 11 H s       :     0.663389  s :     0.663389
      pz      :     0.094789  p :     0.355028
      px      :     0.138128
      py      :     0.122110
 12 H s       :     0.603966  s :     0.603966
      pz      :     0.068386  p :     0.261501
      px      :     0.103791
      py      :     0.089324
 13 H s       :     0.618251  s :     0.618251
      pz      :     0.126099  p :     0.282748
      px      :     0.063277
      py      :     0.093372
 14 H s       :     0.581271  s :     0.581271
      pz      :     0.093206  p :     0.346458
      px      :     0.118517
      py      :     0.134735
 15 O s       :     3.343166  s :     3.343166
      pz      :     1.407651  p :     4.269979
      px      :     1.364753
      py      :     1.497575
      dz2     :     0.052788  d :     0.287908
      dxz     :     0.074418
      dyz     :     0.032698
      dx2y2   :     0.044368
      dxy     :     0.083637
      f0      :     0.000550  f :     0.005481
      f+1     :     0.001106
      f-1     :     0.000127
      f+2     :     0.001294
      f-2     :     0.000904
      f+3     :     0.000760
      f-3     :     0.000740
 16 F s       :     3.477779  s :     3.477779
      pz      :     1.734657  p :     5.039775
      px      :     1.678380
      py      :     1.626737
      dz2     :     0.033839  d :     0.273196
      dxz     :     0.029313
      dyz     :     0.051515
      dx2y2   :     0.069655
      dxy     :     0.088875
      f0      :     0.000257  f :     0.002294
      f+1     :     0.000172
      f-1     :     0.000246
      f+2     :     0.000048
      f-2     :     0.000375
      f+3     :     0.000594
      f-3     :     0.000601
 17 C s       :     2.683918  s :     2.683918
      pz      :     0.909790  p :     2.741918
      px      :     0.916293
      py      :     0.915835
      dz2     :     0.173057  d :     0.721441
      dxz     :     0.066932
      dyz     :     0.133087
      dx2y2   :     0.186259
      dxy     :     0.162107
      f0      :     0.003427  f :     0.038197
      f+1     :     0.004578
      f-1     :     0.006487
      f+2     :     0.005195
      f-2     :     0.005515
      f+3     :     0.005958
      f-3     :     0.007038
 18 H s       :     0.686739  s :     0.686739
      pz      :     0.062862  p :     0.201548
      px      :     0.069454
      py      :     0.069233
 19 H s       :     0.669030  s :     0.669030
      pz      :     0.064203  p :     0.231671
      px      :     0.104391
      py      :     0.063077
 20 C s       :     2.667183  s :     2.667183
      pz      :     0.921177  p :     2.734206
      px      :     0.906805
      py      :     0.906224
      dz2     :     0.127326  d :     0.758033
      dxz     :     0.151478
      dyz     :     0.118009
      dx2y2   :     0.194957
      dxy     :     0.166263
      f0      :     0.004950  f :     0.039118
      f+1     :     0.004944
      f-1     :     0.002888
      f+2     :     0.007262
      f-2     :     0.004573
      f+3     :     0.006231
      f-3     :     0.008270
 21 H s       :     0.679013  s :     0.679013
      pz      :     0.095318  p :     0.212055
      px      :     0.064040
      py      :     0.052698
 22 H s       :     0.682024  s :     0.682024
      pz      :     0.053639  p :     0.206828
      px      :     0.095729
      py      :     0.057459
 23 C s       :     2.669448  s :     2.669448
      pz      :     0.912590  p :     2.736480
      px      :     0.912191
      py      :     0.911699
      dz2     :     0.127169  d :     0.765581
      dxz     :     0.147123
      dyz     :     0.113932
      dx2y2   :     0.194526
      dxy     :     0.182831
      f0      :     0.005255  f :     0.039286
      f+1     :     0.004587
      f-1     :     0.002795
      f+2     :     0.006784
      f-2     :     0.004704
      f+3     :     0.006886
      f-3     :     0.008274
 24 H s       :     0.645714  s :     0.645714
      pz      :     0.119535  p :     0.248197
      px      :     0.062956
      py      :     0.065706
 25 H s       :     0.675892  s :     0.675892
      pz      :     0.063578  p :     0.205219
      px      :     0.053123
      py      :     0.088517
 26 H s       :     0.660375  s :     0.660375
      pz      :     0.091711  p :     0.250363
      px      :     0.061745
      py      :     0.096906
 27 H s       :     0.676979  s :     0.676979
      pz      :     0.095514  p :     0.204716
      px      :     0.055395
      py      :     0.053806
 28 H s       :     0.679185  s :     0.679185
      pz      :     0.072858  p :     0.205781
      px      :     0.054164
      py      :     0.078759
 29 H s       :     0.679340  s :     0.679340
      pz      :     0.055205  p :     0.210551
      px      :     0.093323
      py      :     0.062024


                      *****************************
                      * MAYER POPULATION ANALYSIS *
                      *****************************

  NA   - Mulliken gross atomic population
  ZA   - Total nuclear charge
  QA   - Mulliken gross atomic charge
  VA   - Mayer's total valence
  BVA  - Mayer's bonded valence
  FA   - Mayer's free valence

  ATOM       NA         ZA         QA         VA         BVA        FA
  0 C      6.5013     6.0000    -0.5013     4.0442     4.0442     0.0000
  1 N      7.0413     7.0000    -0.0413     3.0006     3.0006     0.0000
  2 C      6.2974     6.0000    -0.2974     4.2218     4.2218    -0.0000
  3 C      6.1770     6.0000    -0.1770     4.1216     4.1216     0.0000
  4 H      0.8188     1.0000     0.1812     0.9747     0.9747     0.0000
  5 H      0.8482     1.0000     0.1518     0.9874     0.9874     0.0000
  6 C      5.5698     6.0000     0.4302     3.9594     3.9594     0.0000
  7 C      6.0398     6.0000    -0.0398     3.7455     3.7455    -0.0000
  8 N      7.2412     7.0000    -0.2412     2.9934     2.9934     0.0000
  9 C      7.1055     6.0000    -1.1055     3.6789     3.6789    -0.0000
 10 H      0.7719     1.0000     0.2281     1.2043     1.2043    -0.0000
 11 H      0.4498     1.0000     0.5502     0.7339     0.7339    -0.0000
 12 H      0.7763     1.0000     0.2237     0.8246     0.8246    -0.0000
 13 H      0.7462     1.0000     0.2538     0.7950     0.7950     0.0000
 14 H      0.7433     1.0000     0.2567     0.9126     0.9126    -0.0000
 15 O      8.4717     8.0000    -0.4717     1.8702     1.8702     0.0000
 16 F      9.2791     9.0000    -0.2791     1.1043     1.1043     0.0000
 17 C      6.3658     6.0000    -0.3658     4.2664     4.2664    -0.0000
 18 H      0.8942     1.0000     0.1058     1.0976     1.0976     0.0000
 19 H      0.7773     1.0000     0.2227     0.9367     0.9367    -0.0000
 20 C      6.1336     6.0000    -0.1336     3.9770     3.9770    -0.0000
 21 H      0.8314     1.0000     0.1686     0.9990     0.9990    -0.0000
 22 H      0.8552     1.0000     0.1448     0.9670     0.9670    -0.0000
 23 C      6.2547     6.0000    -0.2547     4.0790     4.0790    -0.0000
 24 H      0.7840     1.0000     0.2160     1.1352     1.1352    -0.0000
 25 H      0.8017     1.0000     0.1983     0.8396     0.8396    -0.0000
 26 H      0.8958     1.0000     0.1042     1.0753     1.0753     0.0000
 27 H      0.8556     1.0000     0.1444     0.8948     0.8948     0.0000
 28 H      0.8827     1.0000     0.1173     1.0543     1.0543     0.0000
 29 H      0.7894     1.0000     0.2106     0.9190     0.9190    -0.0000

  Mayer bond orders larger than 0.100000
B(  0-C ,  1-N ) :   0.9774 B(  0-C ,  8-N ) :   0.1237 B(  0-C , 17-C ) :   0.8382 
B(  0-C , 18-H ) :   1.0421 B(  0-C , 19-H ) :   0.9060 B(  0-C , 23-C ) :   0.1527 
B(  1-N ,  7-C ) :   1.1223 B(  1-N , 12-H ) :   0.7888 B(  2-C ,  3-C ) :   0.9358 
B(  2-C , 20-C ) :   0.2095 B(  2-C , 23-C ) :   0.9989 B(  2-C , 28-H ) :   0.9308 
B(  2-C , 29-H ) :   0.8988 B(  3-C ,  4-H ) :   0.9405 B(  3-C ,  5-H ) :   0.9053 
B(  3-C ,  6-C ) :   1.0287 B(  3-C , 20-C ) :   0.1539 B(  6-C , 15-O ) :   1.6517 
B(  6-C , 16-F ) :   0.8600 B(  7-C ,  8-N ) :   1.0226 B(  7-C ,  9-C ) :   1.4900 
B(  7-C , 10-H ) :  -0.1302 B(  7-C , 14-H ) :   0.1163 B(  8-N , 13-H ) :   0.7898 
B(  8-N , 14-H ) :   0.7107 B(  9-C , 10-H ) :   1.1943 B(  9-C , 11-H ) :   0.6976 
B( 11-H , 15-O ) :  -0.1066 B( 17-C , 20-C ) :   1.1269 B( 17-C , 21-H ) :   0.9544 
B( 17-C , 22-H ) :   0.9263 B( 17-C , 23-C ) :   0.3218 B( 17-C , 24-H ) :   0.1275 
B( 20-C , 23-C ) :   0.5744 B( 20-C , 24-H ) :   1.0367 B( 20-C , 25-H ) :   0.7855 
B( 20-C , 26-H ) :  -0.1113 B( 23-C , 26-H ) :   1.1158 B( 23-C , 27-H ) :   0.8673 


-------
TIMINGS
-------

Total SCF time: 0 days 0 hours 1 min 20 sec 

Total time                  ....      80.813 sec
Sum of individual times     ....      79.632 sec  ( 98.5%)

Fock matrix formation       ....      72.438 sec  ( 89.6%)
  Split-RI-J                ....      22.339 sec  ( 30.8% of F)
  XC integration            ....      49.343 sec  ( 68.1% of F)
    Basis function eval.    ....       9.454 sec  ( 19.2% of XC)
    Density eval.           ....      18.364 sec  ( 37.2% of XC)
    XC-Functional eval.     ....       0.638 sec  (  1.3% of XC)
    XC-Potential eval.      ....      18.833 sec  ( 38.2% of XC)
Diagonalization             ....       1.351 sec  (  1.7%)
Density matrix formation    ....       0.096 sec  (  0.1%)
Population analysis         ....       0.145 sec  (  0.2%)
Initial guess               ....       1.841 sec  (  2.3%)
Orbital Transformation      ....       0.000 sec  (  0.0%)
Orbital Orthonormalization  ....       0.000 sec  (  0.0%)
DIIS solution               ....       0.786 sec  (  1.0%)
SOSCF solution              ....       1.145 sec  (  1.4%)
Grid generation             ....       1.831 sec  (  2.3%)

Maximum memory used throughout the entire SCF-calculation: 102.4 MB


-------------------------------------------------------------------------------
                          DFT DISPERSION CORRECTION                            
                                                                               
                              DFTD3 V3.1  Rev 1                                
                          USING Becke-Johnson damping                          
-------------------------------------------------------------------------------
The PBE functional is recognized
Active option DFTDOPT                   ...         4   

molecular C6(AA) [au] = 7127.700174 


            DFT-D V3
 parameters
 s6 scaling factor         :     1.0000 
 a1 scaling factor         :     0.4289 
 s8 scaling factor         :     0.7875 
 a2 scaling factor         :     4.4407 
 ad hoc parameters k1-k3   :    16.0000     1.3333    -4.0000 

 Edisp/kcal,au: -22.050181700555  -0.035139197510 
 E6   /kcal   : -15.937385297 
 E8   /kcal   :  -6.112796403 
 % E8         :  27.722204226 

-------------------------   ----------------
Dispersion correction           -0.035139198
-------------------------   ----------------


-------------------------   --------------------
FINAL SINGLE POINT ENERGY      -637.188318428729
-------------------------   --------------------


                            ***************************************
                            *     ORCA property calculations      *
                            ***************************************

                                    ---------------------
                                    Active property flags
                                    ---------------------
   (+) Dipole Moment


------------------------------------------------------------------------------
                       ORCA ELECTRIC PROPERTIES CALCULATION
------------------------------------------------------------------------------

Dipole Moment Calculation                       ... on
Quadrupole Moment Calculation                   ... off
Polarizability Calculation                      ... off
GBWName                                         ... 28Oct_TZVPD_PBE_D6_wb97.gbw
Electron density file                           ... 28Oct_TZVPD_PBE_D6_wb97.scfp
The origin for moment calculation is the CENTER OF MASS  = ( 1.477947, -2.433655 -7.591705)

-------------
DIPOLE MOMENT
-------------
                                X             Y             Z
Electronic contribution:     -5.60080      -0.79717     -11.77222
Nuclear contribution   :      4.34606       1.32859      13.65749
                        -----------------------------------------
Total Dipole Moment    :     -1.25473       0.53142       1.88527
                        -----------------------------------------
Magnitude (a.u.)       :      2.32615
Magnitude (Debye)      :      5.91261



--------------------
Rotational spectrum 
--------------------
 
Rotational constants in cm-1:     0.033551     0.023540     0.017085 
Rotational constants in MHz :  1005.818710   705.725032   512.192443 

 Dipole components along the rotational axes: 
x,y,z [a.u.] :     0.632480     2.147548     0.631657 
x,y,z [Debye]:     1.607637     5.458633     1.605544 

 

Timings for individual modules:

Sum of individual times         ...       82.344 sec (=   1.372 min)
GTO integral calculation        ...        1.135 sec (=   0.019 min)   1.4 %
SCF iterations                  ...       81.209 sec (=   1.353 min)  98.6 %
                             ****ORCA TERMINATED NORMALLY****
TOTAL RUN TIME: 0 days 0 hours 1 minutes 23 seconds 145 msec
