
                                        *****************
                                        * O   R   C   A *
                                        *****************

                                            #,                                       
                                            ###                                      
                                            ####                                     
                                            #####                                    
                                            ######                                   
                                           ########,                                 
                                     ,,################,,,,,                         
                               ,,#################################,,                 
                          ,,##########################################,,             
                       ,#########################################, ''#####,          
                    ,#############################################,,   '####,        
                  ,##################################################,,,,####,       
                ,###########''''           ''''###############################       
              ,#####''   ,,,,##########,,,,          '''####'''          '####       
            ,##' ,,,,###########################,,,                        '##       
           ' ,,###''''                  '''############,,,                           
         ,,##''                                '''############,,,,        ,,,,,,###''
      ,#''                                            '''#######################'''  
     '                                                          ''''####''''         
             ,#######,   #######,   ,#######,      ##                                
            ,#'     '#,  ##    ##  ,#'     '#,    #''#        ######   ,####,        
            ##       ##  ##   ,#'  ##            #'  '#       #        #'  '#        
            ##       ##  #######   ##           ,######,      #####,   #    #        
            '#,     ,#'  ##    ##  '#,     ,#' ,#      #,         ##   #,  ,#        
             '#######'   ##     ##  '#######'  #'      '#     #####' # '####'        



                  #######################################################
                  #                        -***-                        #
                  #          Department of theory and spectroscopy      #
                  #    Directorship and core code : Frank Neese         #
                  #        Max Planck Institute fuer Kohlenforschung    #
                  #                Kaiser Wilhelm Platz 1               #
                  #                 D-45470 Muelheim/Ruhr               #
                  #                      Germany                        #
                  #                                                     #
                  #                  All rights reserved                #
                  #                        -***-                        #
                  #######################################################


                         Program Version 5.0.0 -  RELEASE  -
                                (SVN: $Rev: 19529$)
                ($Date: 2021-06-28 11:36:33 +0200 (Mo, 28 Jun 2021) $)


 With contributions from (in alphabetic order):
   Daniel Aravena         : Magnetic Suceptibility
   Michael Atanasov       : Ab Initio Ligand Field Theory (pilot matlab implementation)
   Alexander A. Auer      : GIAO ZORA, VPT2 properties, NMR spectrum
   Ute Becker             : Parallelization
   Giovanni Bistoni       : ED, misc. LED, open-shell LED, HFLD
   Martin Brehm           : Molecular dynamics
   Dmytro Bykov           : SCF Hessian
   Vijay G. Chilkuri      : MRCI spin determinant printing, contributions to CSF-ICE
   Dipayan Datta          : RHF DLPNO-CCSD density
   Achintya Kumar Dutta   : EOM-CC, STEOM-CC
   Dmitry Ganyushin       : Spin-Orbit,Spin-Spin,Magnetic field MRCI
   Miquel Garcia          : C-PCM Hessian, Gaussian charge scheme
   Yang Guo               : DLPNO-NEVPT2, F12-NEVPT2, CIM, IAO-localization
   Andreas Hansen         : Spin unrestricted coupled pair/coupled cluster methods
   Benjamin Helmich-Paris : MC-RPA, TRAH-SCF, COSX integrals
   Lee Huntington         : MR-EOM, pCC
   Robert Izsak           : Overlap fitted RIJCOSX, COSX-SCS-MP3, EOM
   Marcus Kettner         : VPT2
   Christian Kollmar      : KDIIS, OOCD, Brueckner-CCSD(T), CCSD density, CASPT2, CASPT2-K
   Simone Kossmann        : Meta GGA functionals, TD-DFT gradient, OOMP2, MP2 Hessian
   Martin Krupicka        : Initial AUTO-CI
   Lucas Lang             : DCDCAS
   Marvin Lechner         : AUTO-CI (C++ implementation), FIC-MRCC
   Dagmar Lenk            : GEPOL surface, SMD
   Dimitrios Liakos       : Extrapolation schemes; Compound Job, initial MDCI parallelization
   Dimitrios Manganas     : Further ROCIS development; embedding schemes
   Dimitrios Pantazis     : SARC Basis sets
   Anastasios Papadopoulos: AUTO-CI, single reference methods and gradients
   Taras Petrenko         : DFT Hessian,TD-DFT gradient, ASA, ECA, R-Raman, ABS, FL, XAS/XES, NRVS
   Peter Pinski           : DLPNO-MP2, DLPNO-MP2 Gradient
   Christoph Reimann      : Effective Core Potentials
   Marius Retegan         : Local ZFS, SOC
   Christoph Riplinger    : Optimizer, TS searches, QM/MM, DLPNO-CCSD(T), (RO)-DLPNO pert. Triples
   Tobias Risthaus        : Range-separated hybrids, TD-DFT gradient, RPA, STAB
   Michael Roemelt        : Original ROCIS implementation
   Masaaki Saitow         : Open-shell DLPNO-CCSD energy and density
   Barbara Sandhoefer     : DKH picture change effects
   Avijit Sen             : IP-ROCIS
   Kantharuban Sivalingam : CASSCF convergence, NEVPT2, FIC-MRCI
   Bernardo de Souza      : ESD, SOC TD-DFT
   Georgi Stoychev        : AutoAux, RI-MP2 NMR
   Willem Van den Heuvel  : Paramagnetic NMR
   Boris Wezisla          : Elementary symmetry handling
   Frank Wennmohs         : Technical directorship


 We gratefully acknowledge several colleagues who have allowed us to
 interface, adapt or use parts of their codes:
   Stefan Grimme, W. Hujo, H. Kruse, P. Pracht,  : VdW corrections, initial TS optimization,
                  C. Bannwarth, S. Ehlert          DFT functionals, gCP, sTDA/sTD-DF
   Ed Valeev, F. Pavosevic, A. Kumar             : LibInt (2-el integral package), F12 methods
   Garnet Chan, S. Sharma, J. Yang, R. Olivares  : DMRG
   Ulf Ekstrom                                   : XCFun DFT Library
   Mihaly Kallay                                 : mrcc  (arbitrary order and MRCC methods)
   Jiri Pittner, Ondrej Demel                    : Mk-CCSD
   Frank Weinhold                                : gennbo (NPA and NBO analysis)
   Christopher J. Cramer and Donald G. Truhlar   : smd solvation model
   Lars Goerigk                                  : TD-DFT with DH, B97 family of functionals
   V. Asgeirsson, H. Jonsson                     : NEB implementation
   FAccTs GmbH                                   : IRC, NEB, NEB-TS, DLPNO-Multilevel, CI-OPT
                                                   MM, QMMM, 2- and 3-layer-ONIOM, Crystal-QMMM,
                                                   LR-CPCM, SF, NACMEs, symmetry and pop. for TD-DFT,
                                                   nearIR, NL-DFT gradient (VV10), updates on ESD,
                                                   ML-optimized integration grids
   S Lehtola, MJT Oliveira, MAL Marques          : LibXC Library
   Liviu Ungur et al                             : ANISO software


 Your calculation uses the libint2 library for the computation of 2-el integrals
 For citations please refer to: http://libint.valeyev.net

 Your ORCA version has been built with support for libXC version: 5.1.0
 For citations please refer to: https://tddft.org/programs/libxc/

 This ORCA versions uses:
   CBLAS   interface :  Fast vector & matrix operations
   LAPACKE interface :  Fast linear algebra routines
   SCALAPACK package :  Parallel linear algebra routines
   Shared memory     :  Shared parallel matrices
   BLAS/LAPACK       :  OpenBLAS 0.3.15  USE64BITINT DYNAMIC_ARCH NO_AFFINITY Haswell SINGLE_THREADED
        Core in use  :  Haswell
   Copyright (c) 2011-2014, The OpenBLAS Project


Your calculation utilizes the atom-pairwise dispersion correction
with the Becke-Johnson damping scheme (D3BJ)
Cite in your paper:
S.Grimme, S.Ehrlich, L.Goerigk, J Comput Chem, (2011), 32, 1456–1465 
S.Grimme, J.Antony, S.Ehrlich and H.Krieg, J.Chem.Phys., 132, (2010), 154104 
   

================================================================================

----- Orbital basis set information -----
Your calculation utilizes the basis: def2-SVPD
   F. Weigend and R. Ahlrichs, Phys. Chem. Chem. Phys. 7, 3297 (2005).
   D. Rappoport and F. Furche, J. Chem. Phys. 133 134105 (2010).

----- AuxJ basis set information -----
Your calculation utilizes the auxiliary basis: def2/J
   F. Weigend, Phys. Chem. Chem. Phys. 8, 1057 (2006).

================================================================================
                                        WARNINGS
                       Please study these warnings very carefully!
================================================================================



WARNING: Found flag for RIJCOSX approximation but no HF exchange needed!
  ===> : RIJCOSX  will be disabled and Split-RI-J is turned on

INFO   : the flag for use of the SHARK integral package has been found!

================================================================================
                                       INPUT FILE
================================================================================
NAME = 18Feb_SVPD_TPSS_A_wt_wb97_typm1_pos.com
|  1> !TPSS D3BJ RIJCOSX def2-SVPD def2/J TightSCF 
|  2> *xyz 1 1 
|  3> C          1.63556       -1.67040       -5.29211
|  4> N          2.48451       -0.50741       -5.14039
|  5> C          3.45115       -0.14953       -5.95259
|  6> N          3.92267        1.08956       -5.85071
|  7> N          3.96616       -1.00618       -6.86788
|  8> H          3.52139       -1.90647       -6.99527
|  9> H          4.44482       -0.62347       -7.67035
| 10> H          2.25200        0.24080       -4.49879
| 11> H          3.46428        1.64078       -5.13639
| 12> H          4.83447        1.31375       -6.22465
| 13> H          2.06372       -2.33262       -6.01532
| 14> H          0.66479       -1.36293       -5.62068
| 15> H          1.55078       -2.17513       -4.35245
| 16> *
| 17> 
| 18> %MaxCore 64000
| 19> 
| 20> %pal nprocs 4
| 21> end  
| 22> 
| 23> %scf
| 24>   MaxIter 150
| 25> end
| 26> 
| 27> 
| 28>                          ****END OF INPUT****
================================================================================

                       ****************************
                       * Single Point Calculation *
                       ****************************

---------------------------------
CARTESIAN COORDINATES (ANGSTROEM)
---------------------------------
  C      1.635560   -1.670400   -5.292110
  N      2.484510   -0.507410   -5.140390
  C      3.451150   -0.149530   -5.952590
  N      3.922670    1.089560   -5.850710
  N      3.966160   -1.006180   -6.867880
  H      3.521390   -1.906470   -6.995270
  H      4.444820   -0.623470   -7.670350
  H      2.252000    0.240800   -4.498790
  H      3.464280    1.640780   -5.136390
  H      4.834470    1.313750   -6.224650
  H      2.063720   -2.332620   -6.015320
  H      0.664790   -1.362930   -5.620680
  H      1.550780   -2.175130   -4.352450

----------------------------
CARTESIAN COORDINATES (A.U.)
----------------------------
  NO LB      ZA    FRAG     MASS         X           Y           Z
   0 C     6.0000    0    12.011    3.090760   -3.156599  -10.000639
   1 N     7.0000    0    14.007    4.695043   -0.958866   -9.713929
   2 C     6.0000    0    12.011    6.521728   -0.282571  -11.248765
   3 N     7.0000    0    14.007    7.412772    2.058970  -11.056240
   4 N     7.0000    0    14.007    7.494956   -1.901405  -12.978412
   5 H     1.0000    0     1.008    6.654463   -3.602706  -13.219145
   6 H     1.0000    0     1.008    8.399493   -1.178188  -14.494861
   7 H     1.0000    0     1.008    4.255663    0.455046   -8.501481
   8 H     1.0000    0     1.008    6.546540    3.100625   -9.706370
   9 H     1.0000    0     1.008    9.135824    2.482628  -11.762884
  10 H     1.0000    0     1.008    3.899866   -4.408013  -11.367307
  11 H     1.0000    0     1.008    1.256271   -2.575564  -10.621546
  12 H     1.0000    0     1.008    2.930549   -4.110400   -8.224939

--------------------------------
INTERNAL COORDINATES (ANGSTROEM)
--------------------------------
 C      0   0   0     0.000000000000     0.00000000     0.00000000
 N      1   0   0     1.447853860374     0.00000000     0.00000000
 C      2   1   0     1.312303251539   125.88108164     0.00000000
 N      3   2   1     1.329682169881   117.89912014   164.56341170
 N      3   2   1     1.355300817789   121.70242568   344.31618449
 H      5   3   2     1.012210773061   118.69888469     7.01850578
 H      5   3   2     1.009722952398   118.50845680   158.08561097
 H      2   1   3     1.012684385285   121.68431269   165.52800226
 H      4   3   2     1.012036532394   113.64189798   359.66429587
 H      4   3   2     1.010678742084   119.88613512   160.18204289
 H      1   2   3     1.069994868259   109.47104385    14.47209576
 H      1   2   3     1.069995532093   109.47130861   254.47197803
 H      1   2   3     1.070000437804   109.47134958   134.47186842

---------------------------
INTERNAL COORDINATES (A.U.)
---------------------------
 C      0   0   0     0.000000000000     0.00000000     0.00000000
 N      1   0   0     2.736047278048     0.00000000     0.00000000
 C      2   1   0     2.479893750063   125.88108164     0.00000000
 N      3   2   1     2.512735146234   117.89912014   164.56341170
 N      3   2   1     2.561147374701   121.70242568   344.31618449
 H      5   3   2     1.912801150889   118.69888469     7.01850578
 H      5   3   2     1.908099851167   118.50845680   158.08561097
 H      2   1   3     1.913696148287   121.68431269   165.52800226
 H      4   3   2     1.912471883748   113.64189798   359.66429587
 H      4   3   2     1.909906031914   119.88613512   160.18204289
 H      1   2   3     2.021997265710   109.47104385    14.47209576
 H      1   2   3     2.021998520176   109.47130861   254.47197803
 H      1   2   3     2.022007790625   109.47134958   134.47186842

---------------------
BASIS SET INFORMATION
---------------------
There are 3 groups of distinct atoms

 Group   1 Type C   : 8s4p2d contracted to 4s2p2d pattern {5111/31/11}
 Group   2 Type N   : 8s4p2d contracted to 4s2p2d pattern {5111/31/11}
 Group   3 Type H   : 4s2p contracted to 2s2p pattern {31/11}

Atom   0C    basis set group =>   1
Atom   1N    basis set group =>   2
Atom   2C    basis set group =>   1
Atom   3N    basis set group =>   2
Atom   4N    basis set group =>   2
Atom   5H    basis set group =>   3
Atom   6H    basis set group =>   3
Atom   7H    basis set group =>   3
Atom   8H    basis set group =>   3
Atom   9H    basis set group =>   3
Atom  10H    basis set group =>   3
Atom  11H    basis set group =>   3
Atom  12H    basis set group =>   3
---------------------------------
AUXILIARY/J BASIS SET INFORMATION
---------------------------------
There are 3 groups of distinct atoms

 Group   1 Type C   : 12s5p4d2f1g contracted to 6s4p3d1f1g pattern {711111/2111/211/2/1}
 Group   2 Type N   : 12s5p4d2f1g contracted to 6s4p3d1f1g pattern {711111/2111/211/2/1}
 Group   3 Type H   : 5s2p1d contracted to 3s1p1d pattern {311/2/1}

Atom   0C    basis set group =>   1
Atom   1N    basis set group =>   2
Atom   2C    basis set group =>   1
Atom   3N    basis set group =>   2
Atom   4N    basis set group =>   2
Atom   5H    basis set group =>   3
Atom   6H    basis set group =>   3
Atom   7H    basis set group =>   3
Atom   8H    basis set group =>   3
Atom   9H    basis set group =>   3
Atom  10H    basis set group =>   3
Atom  11H    basis set group =>   3
Atom  12H    basis set group =>   3


           ************************************************************
           *        Program running with 4 parallel MPI-processes     *
           *              working on a common directory               *
           ************************************************************
------------------------------------------------------------------------------
                           ORCA GTO INTEGRAL CALCULATION
                           -- RI-GTO INTEGRALS CHOSEN --
------------------------------------------------------------------------------
------------------------------------------------------------------------------
                   ___                                                        
                  /   \      - P O W E R E D   B Y -                         
                 /     \                                                     
                 |  |  |   _    _      __       _____    __    __             
                 |  |  |  | |  | |    /  \     |  _  \  |  |  /  |          
                  \  \/   | |  | |   /    \    | | | |  |  | /  /          
                 / \  \   | |__| |  /  /\  \   | |_| |  |  |/  /          
                |  |  |   |  __  | /  /__\  \  |    /   |      \           
                |  |  |   | |  | | |   __   |  |    \   |  |\   \          
                \     /   | |  | | |  |  |  |  | |\  \  |  | \   \       
                 \___/    |_|  |_| |__|  |__|  |_| \__\ |__|  \__/        
                                                                              
                      - O R C A' S   B I G   F R I E N D -                    
                                      &                                       
                       - I N T E G R A L  F E E D E R -                       
                                                                              
 v1 FN, 2020, v2 2021                                                         
------------------------------------------------------------------------------


Reading SHARK input file 18Feb_SVPD_TPSS_A_wt_wb97_typm1_pos.SHARKINP.tmp ... ok
----------------------
SHARK INTEGRAL PACKAGE
----------------------

Number of atoms                             ...     13
Number of basis functions                   ...    164
Number of shells                            ...     72
Maximum angular momentum                    ...      2
Integral batch strategy                     ... SHARK/LIBINT Hybrid
RI-J (if used) integral strategy            ... SPLIT-RIJ (Revised 2003 algorithm where possible)
Printlevel                                  ...      1
Contraction scheme used                     ... SEGMENTED contraction
Coulomb Range Separation                    ... NOT USED
Exchange Range Separation                   ... NOT USED
Finite Nucleus Model                        ... NOT USED
Auxiliary Coulomb fitting basis             ... AVAILABLE
   # of basis functions in Aux-J            ...    333
   # of shells in Aux-J                     ...    115
   Maximum angular momentum in Aux-J        ...      4
Auxiliary J/K fitting basis                 ... NOT available
Auxiliary Correlation fitting basis         ... NOT available
Auxiliary 'external' fitting basis          ... NOT available
Integral threshold                          ...     2.500000e-11
Primitive cut-off                           ...     2.500000e-12
Primitive pair pre-selection threshold      ...     2.500000e-12

Calculating pre-screening integrals         ... done (  0.0 sec) Dimension = 72
Organizing shell pair data                  ... done (  0.0 sec)
Shell pair information
Total number of shell pairs                 ...      2628
Shell pairs after pre-screening             ...      2606
Total number of primitive shell pairs       ...      7110
Primitive shell pairs kept                  ...      6001
          la=0 lb=0:    658 shell pairs
          la=1 lb=0:    927 shell pairs
          la=1 lb=1:    348 shell pairs
          la=2 lb=0:    358 shell pairs
          la=2 lb=1:    260 shell pairs
          la=2 lb=2:     55 shell pairs

Calculating one electron integrals          ... done (  0.0 sec)
Calculating RI/J V-Matrix + Cholesky decomp.... done (  0.0 sec)
Calculating Nuclear repulsion               ... done (  0.0 sec) ENN=    194.318746785771 Eh

SHARK setup successfully completed in   0.2 seconds

Maximum memory used throughout the entire GTOINT-calculation: 8.9 MB


           ************************************************************
           *        Program running with 4 parallel MPI-processes     *
           *              working on a common directory               *
           ************************************************************
-------------------------------------------------------------------------------
                                 ORCA SCF
-------------------------------------------------------------------------------

------------
SCF SETTINGS
------------
Hamiltonian:
 Density Functional     Method          .... DFT(GTOs)
 Exchange Functional    Exchange        .... TPSS
 Correlation Functional Correlation     .... TPSS
 LDA part of GGA corr.  LDAOpt          .... PW91-LDA
 Gradients option       PostSCFGGA      .... off
   Density functional embedding theory  .... OFF
   NL short-range parameter             ....  5.000000
 RI-approximation to the Coulomb term is turned on
   Number of AuxJ basis functions       .... 333


General Settings:
 Integral files         IntName         .... 18Feb_SVPD_TPSS_A_wt_wb97_typm1_pos
 Hartree-Fock type      HFTyp           .... RHF
 Total Charge           Charge          ....    1
 Multiplicity           Mult            ....    1
 Number of Electrons    NEL             ....   40
 Basis Dimension        Dim             ....  164
 Nuclear Repulsion      ENuc            ....    194.3187467858 Eh

Convergence Acceleration:
 DIIS                   CNVDIIS         .... on
   Start iteration      DIISMaxIt       ....    12
   Startup error        DIISStart       ....  0.200000
   # of expansion vecs  DIISMaxEq       ....     5
   Bias factor          DIISBfac        ....   1.050
   Max. coefficient     DIISMaxC        ....  10.000
 Trust-Rad. Augm. Hess. CNVTRAH         .... auto
   Auto Start mean grad. ratio tolernc. ....  1.125000
   Auto Start start iteration           ....    20
   Auto Start num. interpolation iter.  ....    10
   Max. Number of Micro iterations      ....    16
   Max. Number of Macro iterations      .... Maxiter - #DIIS iter
   Number of Davidson start vectors     ....     2
   Converg. threshold I  (grad. norm)   ....   1.000e-05
   Converg. threshold II (energy diff.) ....   1.000e-08
   Grad. Scal. Fac. for Micro threshold ....   0.100
   Minimum threshold for Micro iter.    ....   0.010
   NR start threshold (gradient norm)   ....   0.001
   Initial trust radius                 ....   0.400
   Minimum AH scaling param. (alpha)    ....   1.000
   Maximum AH scaling param. (alpha)    .... 1000.000
   Orbital update algorithm             .... Taylor
   White noise on init. David. guess    .... on
   Maximum white noise                  ....   0.010
   Quad. conv. algorithm                .... NR
 SOSCF                  CNVSOSCF        .... on
   Start iteration      SOSCFMaxIt      ....   150
   Startup grad/error   SOSCFStart      ....  0.003300
 Level Shifting         CNVShift        .... on
   Level shift para.    LevelShift      ....    0.2500
   Turn off err/grad.   ShiftErr        ....    0.0010
 Zerner damping         CNVZerner       .... off
 Static damping         CNVDamp         .... on
   Fraction old density DampFac         ....    0.7000
   Max. Damping (<1)    DampMax         ....    0.9800
   Min. Damping (>=0)   DampMin         ....    0.0000
   Turn off err/grad.   DampErr         ....    0.1000
 Fernandez-Rico         CNVRico         .... off

SCF Procedure:
 Maximum # iterations   MaxIter         ....   150
 SCF integral mode      SCFMode         .... Direct
   Integral package                     .... SHARK and LIBINT hybrid scheme
 Reset frequency        DirectResetFreq ....    20
 Integral Threshold     Thresh          ....  2.500e-11 Eh
 Primitive CutOff       TCut            ....  2.500e-12 Eh

Convergence Tolerance:
 Convergence Check Mode ConvCheckMode   .... Total+1el-Energy
 Convergence forced     ConvForced      .... 0
 Energy Change          TolE            ....  1.000e-08 Eh
 1-El. energy change                    ....  1.000e-05 Eh
 Orbital Gradient       TolG            ....  1.000e-05
 Orbital Rotation angle TolX            ....  1.000e-05
 DIIS Error             TolErr          ....  5.000e-07


Diagonalization of the overlap matrix:
Smallest eigenvalue                        ... 7.022e-05
Time for diagonalization                   ...    0.008 sec
Threshold for overlap eigenvalues          ... 1.000e-08
Number of eigenvalues below threshold      ... 0
Time for construction of square roots      ...    0.006 sec
Total time needed                          ...    0.015 sec

Time for model grid setup =    0.078 sec

------------------------------
INITIAL GUESS: MODEL POTENTIAL
------------------------------
Loading Hartree-Fock densities                     ... done
Calculating cut-offs                               ... done
Initializing the effective Hamiltonian             ... done
Setting up the integral package (SHARK)            ... done
Starting the Coulomb interaction                   ... done (   0.0 sec)
Reading the grid                                   ... done
Mapping shells                                     ... done
Starting the XC term evaluation                    ... done (   0.1 sec)
  promolecular density results
     # of electrons  =     40.994771005
     EX              =    -32.304819309
     EC              =     -1.357467335
     EX+EC           =    -33.662286644
Transforming the Hamiltonian                       ... done (   0.0 sec)
Diagonalizing the Hamiltonian                      ... done (   0.0 sec)
Back transforming the eigenvectors                 ... done (   0.0 sec)
Now organizing SCF variables                       ... done
                      ------------------
                      INITIAL GUESS DONE (   0.2 sec)
                      ------------------
-------------------
DFT GRID GENERATION
-------------------

General Integration Accuracy     IntAcc      ... 4.388
Radial Grid Type                 RadialGrid  ... OptM3 with GC (2021)
Angular Grid (max. ang.)         AngularGrid ... 4 (Lebedev-302)
Angular grid pruning method      GridPruning ... 4 (adaptive)
Weight generation scheme         WeightScheme... Becke
Basis function cutoff            BFCut       ... 1.0000e-11
Integration weight cutoff        WCut        ... 1.0000e-14
Angular grids for H and He will be reduced by one unit
Partially contracted basis set               ... off
Rotationally invariant grid construction     ... off

Total number of grid points                  ...    57743
Total number of batches                      ...      909
Average number of points per batch           ...       63
Average number of grid points per atom       ...     4442
Time for grid setup =    0.382 sec

--------------
SCF ITERATIONS
--------------
ITER       Energy         Delta-E        Max-DP      RMS-DP      [F,P]     Damp
               ***  Starting incremental Fock matrix formation  ***
  0   -244.8125893640   0.000000000000 0.09272036  0.00261023  0.1774129 0.7000
  1   -244.8797448878  -0.067155523734 0.05571849  0.00153048  0.0797480 0.7000
                               ***Turning on DIIS***
  2   -244.9030215815  -0.023276693770 0.09999590  0.00226954  0.0217796 0.0000
  3   -244.9389311333  -0.035909551740 0.05095013  0.00107131  0.0459863 0.0000
  4   -244.9486247059  -0.009693572624 0.00966984  0.00027996  0.0085814 0.0000
                      *** Initiating the SOSCF procedure ***
                           *** Shutting down DIIS ***
                      *** Re-Reading the Fockian *** 
                      *** Removing any level shift *** 
ITER      Energy       Delta-E        Grad      Rot      Max-DP    RMS-DP
  5   -244.94900976  -0.0003850536  0.000851  0.000851  0.005831  0.000121
               *** Restarting incremental Fock matrix formation ***
  6   -244.94904229  -0.0000325268  0.000200  0.000853  0.002215  0.000055
  7   -244.94904205   0.0000002396  0.000297  0.000528  0.000643  0.000022
  8   -244.94904502  -0.0000029768  0.000104  0.000265  0.000887  0.000018
  9   -244.94904479   0.0000002317  0.000125  0.000178  0.000348  0.000009
 10   -244.94904528  -0.0000004868  0.000015  0.000065  0.000080  0.000002
 11   -244.94904527   0.0000000065  0.000026  0.000038  0.000038  0.000001
 12   -244.94904528  -0.0000000089  0.000003  0.000006  0.000017  0.000001
 13   -244.94904528   0.0000000002  0.000003  0.000003  0.000006  0.000000
                 **** Energy Check signals convergence ****
              ***Rediagonalizing the Fockian in SOSCF/NRSCF***

               *****************************************************
               *                     SUCCESS                       *
               *           SCF CONVERGED AFTER  14 CYCLES          *
               *****************************************************


----------------
TOTAL SCF ENERGY
----------------

Total Energy       :         -244.94904528 Eh           -6665.40238 eV

Components:
Nuclear Repulsion  :          194.31874679 Eh            5287.68192 eV
Electronic Energy  :         -439.26779207 Eh          -11953.08431 eV
One Electron Energy:         -706.14373119 Eh          -19215.14780 eV
Two Electron Energy:          266.87593913 Eh            7262.06350 eV

Virial components:
Potential Energy   :         -487.49787539 Eh          -13265.49159 eV
Kinetic Energy     :          242.54883011 Eh            6600.08921 eV
Virial Ratio       :            2.00989580


DFT components:
N(Alpha)           :       19.999987170778 electrons
N(Beta)            :       19.999987170778 electrons
N(Total)           :       39.999974341555 electrons
E(X)               :      -33.075822587872 Eh       
E(C)               :       -1.339225210298 Eh       
E(XC)              :      -34.415047798169 Eh       
DFET-embed. en.    :        0.000000000000 Eh       

---------------
SCF CONVERGENCE
---------------

  Last Energy change         ...   -6.8044e-10  Tolerance :   1.0000e-08
  Last MAX-Density change    ...    2.5345e-05  Tolerance :   1.0000e-07
  Last RMS-Density change    ...    6.1315e-07  Tolerance :   5.0000e-09
  Last Orbital Gradient      ...    5.2210e-07  Tolerance :   1.0000e-05
  Last Orbital Rotation      ...    1.8101e-06  Tolerance :   1.0000e-05

             **** THE GBW FILE WAS UPDATED (18Feb_SVPD_TPSS_A_wt_wb97_typm1_pos.gbw) ****
             **** DENSITY 18Feb_SVPD_TPSS_A_wt_wb97_typm1_pos.scfp WAS UPDATED ****
             **** ENERGY FILE WAS UPDATED (18Feb_SVPD_TPSS_A_wt_wb97_typm1_pos.en.tmp) ****
             **** THE GBW FILE WAS UPDATED (18Feb_SVPD_TPSS_A_wt_wb97_typm1_pos.gbw) ****
             **** DENSITY 18Feb_SVPD_TPSS_A_wt_wb97_typm1_pos.scfp WAS UPDATED ****
----------------
ORBITAL ENERGIES
----------------

  NO   OCC          E(Eh)            E(eV) 
   0   2.0000     -14.351743      -390.5308 
   1   2.0000     -14.345341      -390.3566 
   2   2.0000     -14.342265      -390.2729 
   3   2.0000     -10.327733      -281.0319 
   4   2.0000     -10.214909      -277.9618 
   5   2.0000      -1.148419       -31.2501 
   6   2.0000      -1.041554       -28.3421 
   7   2.0000      -1.028841       -27.9962 
   8   2.0000      -0.857317       -23.3288 
   9   2.0000      -0.779183       -21.2027 
  10   2.0000      -0.739208       -20.1149 
  11   2.0000      -0.715384       -19.4666 
  12   2.0000      -0.652230       -17.7481 
  13   2.0000      -0.649701       -17.6793 
  14   2.0000      -0.619191       -16.8490 
  15   2.0000      -0.606899       -16.5146 
  16   2.0000      -0.556239       -15.1360 
  17   2.0000      -0.551068       -14.9953 
  18   2.0000      -0.442931       -12.0528 
  19   2.0000      -0.426229       -11.5983 
  20   0.0000      -0.201653        -5.4873 
  21   0.0000      -0.174467        -4.7475 
  22   0.0000      -0.142993        -3.8910 
  23   0.0000      -0.125795        -3.4230 
  24   0.0000      -0.101527        -2.7627 
  25   0.0000      -0.092595        -2.5196 
  26   0.0000      -0.074486        -2.0269 
  27   0.0000      -0.070558        -1.9200 
  28   0.0000      -0.054660        -1.4874 
  29   0.0000      -0.036748        -1.0000 
  30   0.0000      -0.032886        -0.8949 
  31   0.0000      -0.024804        -0.6749 
  32   0.0000      -0.016078        -0.4375 
  33   0.0000       0.000758         0.0206 
  34   0.0000       0.007121         0.1938 
  35   0.0000       0.018569         0.5053 
  36   0.0000       0.037087         1.0092 
  37   0.0000       0.048683         1.3247 
  38   0.0000       0.059404         1.6165 
  39   0.0000       0.063642         1.7318 
  40   0.0000       0.074443         2.0257 
  41   0.0000       0.081988         2.2310 
  42   0.0000       0.102322         2.7843 
  43   0.0000       0.104752         2.8504 
  44   0.0000       0.113546         3.0898 
  45   0.0000       0.137092         3.7305 
  46   0.0000       0.144403         3.9294 
  47   0.0000       0.151791         4.1304 
  48   0.0000       0.163329         4.4444 
  49   0.0000       0.177960         4.8426 
  50   0.0000       0.185097         5.0367 
  51   0.0000       0.199350         5.4246 
  52   0.0000       0.201483         5.4826 
  53   0.0000       0.211958         5.7677 
  54   0.0000       0.220251         5.9933 
  55   0.0000       0.228129         6.2077 
  56   0.0000       0.243552         6.6274 
  57   0.0000       0.249327         6.7845 
  58   0.0000       0.263176         7.1614 
  59   0.0000       0.273885         7.4528 
  60   0.0000       0.282610         7.6902 
  61   0.0000       0.293623         7.9899 
  62   0.0000       0.297858         8.1051 
  63   0.0000       0.305223         8.3055 
  64   0.0000       0.312160         8.4943 
  65   0.0000       0.327664         8.9162 
  66   0.0000       0.341376         9.2893 
  67   0.0000       0.349058         9.4983 
  68   0.0000       0.358338         9.7509 
  69   0.0000       0.383151        10.4261 
  70   0.0000       0.385127        10.4798 
  71   0.0000       0.391908        10.6644 
  72   0.0000       0.400075        10.8866 
  73   0.0000       0.402004        10.9391 
  74   0.0000       0.406441        11.0598 
  75   0.0000       0.437017        11.8918 
  76   0.0000       0.468523        12.7492 
  77   0.0000       0.476335        12.9617 
  78   0.0000       0.486054        13.2262 
  79   0.0000       0.498240        13.5578 
  80   0.0000       0.516648        14.0587 
  81   0.0000       0.534033        14.5318 
  82   0.0000       0.539520        14.6811 
  83   0.0000       0.562899        15.3172 
  84   0.0000       0.570209        15.5162 
  85   0.0000       0.583829        15.8868 
  86   0.0000       0.594796        16.1852 
  87   0.0000       0.601964        16.3803 
  88   0.0000       0.728698        19.8289 
  89   0.0000       0.729958        19.8632 
  90   0.0000       0.762097        20.7377 
  91   0.0000       0.775114        21.0919 
  92   0.0000       0.785604        21.3774 
  93   0.0000       0.806069        21.9342 
  94   0.0000       0.844346        22.9758 
  95   0.0000       0.854473        23.2514 
  96   0.0000       0.877233        23.8707 
  97   0.0000       0.893040        24.3009 
  98   0.0000       0.912877        24.8406 
  99   0.0000       0.949021        25.8242 
 100   0.0000       0.970310        26.4035 
 101   0.0000       1.007477        27.4148 
 102   0.0000       1.019039        27.7295 
 103   0.0000       1.055885        28.7321 
 104   0.0000       1.131575        30.7917 
 105   0.0000       1.144886        31.1539 
 106   0.0000       1.240831        33.7647 
 107   0.0000       1.295501        35.2524 
 108   0.0000       1.301399        35.4129 
 109   0.0000       1.330088        36.1935 
 110   0.0000       1.385276        37.6953 
 111   0.0000       1.397167        38.0189 
 112   0.0000       1.440463        39.1970 
 113   0.0000       1.458646        39.6918 
 114   0.0000       1.482876        40.3511 
 115   0.0000       1.495199        40.6864 
 116   0.0000       1.511602        41.1328 
 117   0.0000       1.531917        41.6856 
 118   0.0000       1.570272        42.7293 
 119   0.0000       1.593671        43.3660 
 120   0.0000       1.672971        45.5238 
 121   0.0000       1.686190        45.8836 
 122   0.0000       1.692594        46.0578 
 123   0.0000       1.711486        46.5719 
 124   0.0000       1.751536        47.6617 
 125   0.0000       1.805484        49.1297 
 126   0.0000       1.807670        49.1892 
 127   0.0000       1.833477        49.8915 
 128   0.0000       1.843500        50.1642 
 129   0.0000       1.860351        50.6227 
 130   0.0000       1.877958        51.1018 
 131   0.0000       1.897953        51.6459 
 132   0.0000       1.912487        52.0414 
 133   0.0000       1.938101        52.7384 
 134   0.0000       1.946948        52.9791 
 135   0.0000       1.990829        54.1732 
 136   0.0000       2.051072        55.8125 
 137   0.0000       2.076486        56.5040 
 138   0.0000       2.137615        58.1675 
 139   0.0000       2.160596        58.7928 
 140   0.0000       2.205255        60.0080 
 141   0.0000       2.235925        60.8426 
 142   0.0000       2.241800        61.0025 
 143   0.0000       2.263173        61.5841 
 144   0.0000       2.325212        63.2722 
 145   0.0000       2.351750        63.9944 
 146   0.0000       2.419388        65.8349 
 147   0.0000       2.451456        66.7075 
 148   0.0000       2.499453        68.0136 
 149   0.0000       2.550096        69.3916 
 150   0.0000       2.630826        71.5884 
 151   0.0000       2.661148        72.4135 
 152   0.0000       2.681811        72.9758 
 153   0.0000       2.863920        77.9312 
 154   0.0000       2.891233        78.6745 
 155   0.0000       2.914679        79.3124 
 156   0.0000       2.955704        80.4288 
 157   0.0000       3.018900        82.1484 
 158   0.0000       3.049354        82.9771 
 159   0.0000       3.131315        85.2074 
 160   0.0000       3.196769        86.9885 
 161   0.0000       3.233549        87.9894 
 162   0.0000       3.437029        93.5263 
 163   0.0000       3.501042        95.2682 

                    ********************************
                    * MULLIKEN POPULATION ANALYSIS *
                    ********************************

-----------------------
MULLIKEN ATOMIC CHARGES
-----------------------
   0 C :    1.249628
   1 N :   -0.642864
   2 C :    1.285434
   3 N :   -0.057152
   4 N :   -0.006119
   5 H :   -0.045164
   6 H :   -0.072348
   7 H :   -0.234648
   8 H :    0.039870
   9 H :   -0.070547
  10 H :   -0.277961
  11 H :   -0.082826
  12 H :   -0.085303
Sum of atomic charges:    1.0000000

--------------------------------
MULLIKEN REDUCED ORBITAL CHARGES
--------------------------------
  0 C s       :     2.303507  s :     2.303507
      pz      :     0.831536  p :     2.495744
      px      :     0.878100
      py      :     0.786108
      dz2     :    -0.013911  d :    -0.048879
      dxz     :    -0.020359
      dyz     :    -0.011680
      dx2y2   :    -0.015636
      dxy     :     0.012707
  1 N s       :     3.625928  s :     3.625928
      pz      :     1.259864  p :     3.742815
      px      :     1.252651
      py      :     1.230299
      dz2     :     0.034249  d :     0.274121
      dxz     :     0.030960
      dyz     :     0.062971
      dx2y2   :     0.091910
      dxy     :     0.054031
  2 C s       :     2.957887  s :     2.957887
      pz      :     0.698772  p :     2.028634
      px      :     0.718747
      py      :     0.611114
      dz2     :    -0.006627  d :    -0.271954
      dxz     :    -0.065487
      dyz     :    -0.050800
      dx2y2   :    -0.106030
      dxy     :    -0.043010
  3 N s       :     3.399552  s :     3.399552
      pz      :     1.386161  p :     3.650050
      px      :     1.192415
      py      :     1.071474
      dz2     :     0.004657  d :     0.007551
      dxz     :    -0.002047
      dyz     :     0.002829
      dx2y2   :    -0.001632
      dxy     :     0.003743
  4 N s       :     3.355205  s :     3.355205
      pz      :     1.176414  p :     3.657048
      px      :     1.399759
      py      :     1.080874
      dz2     :     0.003380  d :    -0.006134
      dxz     :    -0.007083
      dyz     :    -0.004964
      dx2y2   :    -0.000447
      dxy     :     0.002981
  5 H s       :     1.007758  s :     1.007758
      pz      :     0.021857  p :     0.037405
      px      :     0.003731
      py      :     0.011817
  6 H s       :     1.033653  s :     1.033653
      pz      :     0.027680  p :     0.038695
      px      :     0.029537
      py      :    -0.018522
  7 H s       :     1.185982  s :     1.185982
      pz      :     0.022486  p :     0.048666
      px      :     0.000326
      py      :     0.025854
  8 H s       :     0.943905  s :     0.943905
      pz      :     0.011129  p :     0.016225
      px      :    -0.009101
      py      :     0.014197
  9 H s       :     1.018977  s :     1.018977
      pz      :     0.025483  p :     0.051570
      px      :     0.019016
      py      :     0.007072
 10 H s       :     1.088588  s :     1.088588
      pz      :     0.061255  p :     0.189373
      px      :     0.106412
      py      :     0.021706
 11 H s       :     1.052702  s :     1.052702
      pz      :    -0.047531  p :     0.030124
      px      :     0.040579
      py      :     0.037076
 12 H s       :     1.052975  s :     1.052975
      pz      :     0.048796  p :     0.032328
      px      :    -0.018108
      py      :     0.001640


                     *******************************
                     * LOEWDIN POPULATION ANALYSIS *
                     *******************************

----------------------
LOEWDIN ATOMIC CHARGES
----------------------
   0 C :    0.290219
   1 N :    0.016301
   2 C :   -0.037223
   3 N :    0.267735
   4 N :    0.281036
   5 H :    0.004424
   6 H :    0.036287
   7 H :    0.055925
   8 H :    0.032912
   9 H :    0.044494
  10 H :   -0.018729
  11 H :    0.012989
  12 H :    0.013630

-------------------------------
LOEWDIN REDUCED ORBITAL CHARGES
-------------------------------
  0 C s       :     2.679691  s :     2.679691
      pz      :     0.938580  p :     2.636031
      px      :     0.877414
      py      :     0.820038
      dz2     :     0.045491  d :     0.394059
      dxz     :     0.056402
      dyz     :     0.096009
      dx2y2   :     0.108281
      dxy     :     0.087876
  1 N s       :     2.920509  s :     2.920509
      pz      :     1.179815  p :     3.463224
      px      :     1.164182
      py      :     1.119228
      dz2     :     0.079438  d :     0.599965
      dxz     :     0.098850
      dyz     :     0.133847
      dx2y2   :     0.155750
      dxy     :     0.132081
  2 C s       :     2.609836  s :     2.609836
      pz      :     0.787278  p :     2.414564
      px      :     0.788005
      py      :     0.839281
      dz2     :     0.201452  d :     1.012822
      dxz     :     0.154905
      dyz     :     0.224994
      dx2y2   :     0.214040
      dxy     :     0.217431
  3 N s       :     2.938850  s :     2.938850
      pz      :     1.243661  p :     3.494108
      px      :     1.153099
      py      :     1.097349
      dz2     :     0.029693  d :     0.299307
      dxz     :     0.029672
      dyz     :     0.075335
      dx2y2   :     0.083353
      dxy     :     0.081253
  4 N s       :     2.943359  s :     2.943359
      pz      :     1.139596  p :     3.489040
      px      :     1.257789
      py      :     1.091654
      dz2     :     0.065437  d :     0.286566
      dxz     :     0.053567
      dyz     :     0.065858
      dx2y2   :     0.049130
      dxy     :     0.052574
  5 H s       :     0.635645  s :     0.635645
      pz      :     0.086690  p :     0.359931
      px      :     0.134056
      py      :     0.139186
  6 H s       :     0.646916  s :     0.646916
      pz      :     0.127366  p :     0.316797
      px      :     0.108573
      py      :     0.080857
  7 H s       :     0.635541  s :     0.635541
      pz      :     0.106155  p :     0.308534
      px      :     0.080799
      py      :     0.121580
  8 H s       :     0.640167  s :     0.640167
      pz      :     0.131728  p :     0.326921
      px      :     0.096862
      py      :     0.098332
  9 H s       :     0.642745  s :     0.642745
      pz      :     0.099404  p :     0.312761
      px      :     0.141886
      py      :     0.071472
 10 H s       :     0.728210  s :     0.728210
      pz      :     0.111897  p :     0.290519
      px      :     0.098658
      py      :     0.079965
 11 H s       :     0.740424  s :     0.740424
      pz      :     0.074645  p :     0.246587
      px      :     0.111115
      py      :     0.060827
 12 H s       :     0.739242  s :     0.739242
      pz      :     0.117444  p :     0.247128
      px      :     0.061874
      py      :     0.067809


                      *****************************
                      * MAYER POPULATION ANALYSIS *
                      *****************************

  NA   - Mulliken gross atomic population
  ZA   - Total nuclear charge
  QA   - Mulliken gross atomic charge
  VA   - Mayer's total valence
  BVA  - Mayer's bonded valence
  FA   - Mayer's free valence

  ATOM       NA         ZA         QA         VA         BVA        FA
  0 C      4.7504     6.0000     1.2496     3.1462     3.1462    -0.0000
  1 N      7.6429     7.0000    -0.6429     4.4160     4.4160    -0.0000
  2 C      4.7146     6.0000     1.2854     2.1994     2.1994     0.0000
  3 N      7.0572     7.0000    -0.0572     3.7004     3.7004    -0.0000
  4 N      7.0061     7.0000    -0.0061     3.6404     3.6404    -0.0000
  5 H      1.0452     1.0000    -0.0452     0.9510     0.9510    -0.0000
  6 H      1.0723     1.0000    -0.0723     0.9586     0.9586     0.0000
  7 H      1.2346     1.0000    -0.2346     0.9611     0.9611    -0.0000
  8 H      0.9601     1.0000     0.0399     0.8661     0.8661    -0.0000
  9 H      1.0705     1.0000    -0.0705     1.0083     1.0083    -0.0000
 10 H      1.2780     1.0000    -0.2780     1.3378     1.3378     0.0000
 11 H      1.0828     1.0000    -0.0828     1.0330     1.0330     0.0000
 12 H      1.0853     1.0000    -0.0853     1.0181     1.0181    -0.0000

  Mayer bond orders larger than 0.100000
B(  0-C ,  1-N ) :   0.9501 B(  0-C ,  7-H ) :  -0.1768 B(  0-C , 10-H ) :   0.8297 
B(  0-C , 11-H ) :   0.7644 B(  0-C , 12-H ) :   0.7324 B(  1-N ,  2-C ) :   0.9802 
B(  1-N ,  3-N ) :   0.2968 B(  1-N ,  4-N ) :   0.1746 B(  1-N ,  7-H ) :   1.3574 
B(  1-N , 10-H ) :   0.2242 B(  1-N , 11-H ) :   0.1800 B(  1-N , 12-H ) :   0.2134 
B(  2-C ,  3-N ) :   0.9110 B(  2-C ,  4-N ) :   0.9942 B(  2-C ,  6-H ) :  -0.1297 
B(  2-C ,  7-H ) :  -0.2514 B(  2-C ,  9-H ) :  -0.1119 B(  3-N ,  4-N ) :   0.1762 
B(  3-N ,  8-H ) :   1.0571 B(  3-N ,  9-H ) :   1.2153 B(  4-N ,  5-H ) :   1.0322 
B(  4-N ,  6-H ) :   1.2044 B(  5-H ,  6-H ) :  -0.1499 B(  5-H , 10-H ) :   0.1069 
B(  8-H ,  9-H ) :  -0.1390 

-------
TIMINGS
-------

Total SCF time: 0 days 0 hours 0 min 8 sec 

Total time                  ....       8.365 sec
Sum of individual times     ....       8.197 sec  ( 98.0%)

Fock matrix formation       ....       7.504 sec  ( 89.7%)
  Split-RI-J                ....       0.890 sec  ( 11.9% of F)
  XC integration            ....       6.576 sec  ( 87.6% of F)
    Basis function eval.    ....       1.123 sec  ( 17.1% of XC)
    Density eval.           ....       2.053 sec  ( 31.2% of XC)
    XC-Functional eval.     ....       0.490 sec  (  7.5% of XC)
    XC-Potential eval.      ....       2.646 sec  ( 40.2% of XC)
Diagonalization             ....       0.041 sec  (  0.5%)
Density matrix formation    ....       0.004 sec  (  0.0%)
Population analysis         ....       0.007 sec  (  0.1%)
Initial guess               ....       0.117 sec  (  1.4%)
Orbital Transformation      ....       0.000 sec  (  0.0%)
Orbital Orthonormalization  ....       0.000 sec  (  0.0%)
DIIS solution               ....       0.023 sec  (  0.3%)
SOSCF solution              ....       0.041 sec  (  0.5%)
Grid generation             ....       0.460 sec  (  5.5%)

Maximum memory used throughout the entire SCF-calculation: 19.1 MB


-------------------------------------------------------------------------------
                          DFT DISPERSION CORRECTION                            
                                                                               
                              DFTD3 V3.1  Rev 1                                
                          USING Becke-Johnson damping                          
-------------------------------------------------------------------------------
The TPSS functional is recognized
Active option DFTDOPT                   ...         4   

molecular C6(AA) [au] = 1234.184324 


            DFT-D V3
 parameters
 s6 scaling factor         :     1.0000 
 a1 scaling factor         :     0.4535 
 s8 scaling factor         :     1.9435 
 a2 scaling factor         :     4.4752 
 ad hoc parameters k1-k3   :    16.0000     1.3333    -4.0000 

 Edisp/kcal,au: -7.011091392233  -0.011172884130 
 E6   /kcal   :  -3.723032063 
 E8   /kcal   :  -3.288059329 
 % E8         :  46.897967020 

-------------------------   ----------------
Dispersion correction           -0.011172884
-------------------------   ----------------


-------------------------   --------------------
FINAL SINGLE POINT ENERGY      -244.960218165628
-------------------------   --------------------


                            ***************************************
                            *     ORCA property calculations      *
                            ***************************************

                                    ---------------------
                                    Active property flags
                                    ---------------------
   (+) Dipole Moment


------------------------------------------------------------------------------
                       ORCA ELECTRIC PROPERTIES CALCULATION
------------------------------------------------------------------------------

Dipole Moment Calculation                       ... on
Quadrupole Moment Calculation                   ... off
Polarizability Calculation                      ... off
GBWName                                         ... 18Feb_SVPD_TPSS_A_wt_wb97_typm1_pos.gbw
Electron density file                           ... 18Feb_SVPD_TPSS_A_wt_wb97_typm1_pos.scfp
The origin for moment calculation is the CENTER OF MASS  = ( 5.849042, -0.842659 -11.018456)

-------------
DIPOLE MOMENT
-------------
                                X             Y             Z
Electronic contribution:      1.96024       1.90645      -0.25836
Nuclear contribution   :     -1.83770      -1.53167       0.12165
                        -----------------------------------------
Total Dipole Moment    :      0.12254       0.37478      -0.13670
                        -----------------------------------------
Magnitude (a.u.)       :      0.41733
Magnitude (Debye)      :      1.06078



--------------------
Rotational spectrum 
--------------------
 
Rotational constants in cm-1:     0.307545     0.135665     0.096412 
Rotational constants in MHz :  9219.967860  4067.145400  2890.348280 

 Dipole components along the rotational axes: 
x,y,z [a.u.] :     0.367475     0.118198    -0.158616 
x,y,z [Debye]:     0.934048     0.300436    -0.403171 

 

Timings for individual modules:

Sum of individual times         ...        9.176 sec (=   0.153 min)
GTO integral calculation        ...        0.486 sec (=   0.008 min)   5.3 %
SCF iterations                  ...        8.690 sec (=   0.145 min)  94.7 %
                             ****ORCA TERMINATED NORMALLY****
TOTAL RUN TIME: 0 days 0 hours 0 minutes 9 seconds 683 msec
