
                                        *****************
                                        * O   R   C   A *
                                        *****************

                                            #,                                       
                                            ###                                      
                                            ####                                     
                                            #####                                    
                                            ######                                   
                                           ########,                                 
                                     ,,################,,,,,                         
                               ,,#################################,,                 
                          ,,##########################################,,             
                       ,#########################################, ''#####,          
                    ,#############################################,,   '####,        
                  ,##################################################,,,,####,       
                ,###########''''           ''''###############################       
              ,#####''   ,,,,##########,,,,          '''####'''          '####       
            ,##' ,,,,###########################,,,                        '##       
           ' ,,###''''                  '''############,,,                           
         ,,##''                                '''############,,,,        ,,,,,,###''
      ,#''                                            '''#######################'''  
     '                                                          ''''####''''         
             ,#######,   #######,   ,#######,      ##                                
            ,#'     '#,  ##    ##  ,#'     '#,    #''#        ######   ,####,        
            ##       ##  ##   ,#'  ##            #'  '#       #        #'  '#        
            ##       ##  #######   ##           ,######,      #####,   #    #        
            '#,     ,#'  ##    ##  '#,     ,#' ,#      #,         ##   #,  ,#        
             '#######'   ##     ##  '#######'  #'      '#     #####' # '####'        



                  #######################################################
                  #                        -***-                        #
                  #          Department of theory and spectroscopy      #
                  #    Directorship and core code : Frank Neese         #
                  #        Max Planck Institute fuer Kohlenforschung    #
                  #                Kaiser Wilhelm Platz 1               #
                  #                 D-45470 Muelheim/Ruhr               #
                  #                      Germany                        #
                  #                                                     #
                  #                  All rights reserved                #
                  #                        -***-                        #
                  #######################################################


                         Program Version 5.0.0 -  RELEASE  -
                                (SVN: $Rev: 19529$)
                ($Date: 2021-06-28 11:36:33 +0200 (Mo, 28 Jun 2021) $)


 With contributions from (in alphabetic order):
   Daniel Aravena         : Magnetic Suceptibility
   Michael Atanasov       : Ab Initio Ligand Field Theory (pilot matlab implementation)
   Alexander A. Auer      : GIAO ZORA, VPT2 properties, NMR spectrum
   Ute Becker             : Parallelization
   Giovanni Bistoni       : ED, misc. LED, open-shell LED, HFLD
   Martin Brehm           : Molecular dynamics
   Dmytro Bykov           : SCF Hessian
   Vijay G. Chilkuri      : MRCI spin determinant printing, contributions to CSF-ICE
   Dipayan Datta          : RHF DLPNO-CCSD density
   Achintya Kumar Dutta   : EOM-CC, STEOM-CC
   Dmitry Ganyushin       : Spin-Orbit,Spin-Spin,Magnetic field MRCI
   Miquel Garcia          : C-PCM Hessian, Gaussian charge scheme
   Yang Guo               : DLPNO-NEVPT2, F12-NEVPT2, CIM, IAO-localization
   Andreas Hansen         : Spin unrestricted coupled pair/coupled cluster methods
   Benjamin Helmich-Paris : MC-RPA, TRAH-SCF, COSX integrals
   Lee Huntington         : MR-EOM, pCC
   Robert Izsak           : Overlap fitted RIJCOSX, COSX-SCS-MP3, EOM
   Marcus Kettner         : VPT2
   Christian Kollmar      : KDIIS, OOCD, Brueckner-CCSD(T), CCSD density, CASPT2, CASPT2-K
   Simone Kossmann        : Meta GGA functionals, TD-DFT gradient, OOMP2, MP2 Hessian
   Martin Krupicka        : Initial AUTO-CI
   Lucas Lang             : DCDCAS
   Marvin Lechner         : AUTO-CI (C++ implementation), FIC-MRCC
   Dagmar Lenk            : GEPOL surface, SMD
   Dimitrios Liakos       : Extrapolation schemes; Compound Job, initial MDCI parallelization
   Dimitrios Manganas     : Further ROCIS development; embedding schemes
   Dimitrios Pantazis     : SARC Basis sets
   Anastasios Papadopoulos: AUTO-CI, single reference methods and gradients
   Taras Petrenko         : DFT Hessian,TD-DFT gradient, ASA, ECA, R-Raman, ABS, FL, XAS/XES, NRVS
   Peter Pinski           : DLPNO-MP2, DLPNO-MP2 Gradient
   Christoph Reimann      : Effective Core Potentials
   Marius Retegan         : Local ZFS, SOC
   Christoph Riplinger    : Optimizer, TS searches, QM/MM, DLPNO-CCSD(T), (RO)-DLPNO pert. Triples
   Tobias Risthaus        : Range-separated hybrids, TD-DFT gradient, RPA, STAB
   Michael Roemelt        : Original ROCIS implementation
   Masaaki Saitow         : Open-shell DLPNO-CCSD energy and density
   Barbara Sandhoefer     : DKH picture change effects
   Avijit Sen             : IP-ROCIS
   Kantharuban Sivalingam : CASSCF convergence, NEVPT2, FIC-MRCI
   Bernardo de Souza      : ESD, SOC TD-DFT
   Georgi Stoychev        : AutoAux, RI-MP2 NMR
   Willem Van den Heuvel  : Paramagnetic NMR
   Boris Wezisla          : Elementary symmetry handling
   Frank Wennmohs         : Technical directorship


 We gratefully acknowledge several colleagues who have allowed us to
 interface, adapt or use parts of their codes:
   Stefan Grimme, W. Hujo, H. Kruse, P. Pracht,  : VdW corrections, initial TS optimization,
                  C. Bannwarth, S. Ehlert          DFT functionals, gCP, sTDA/sTD-DF
   Ed Valeev, F. Pavosevic, A. Kumar             : LibInt (2-el integral package), F12 methods
   Garnet Chan, S. Sharma, J. Yang, R. Olivares  : DMRG
   Ulf Ekstrom                                   : XCFun DFT Library
   Mihaly Kallay                                 : mrcc  (arbitrary order and MRCC methods)
   Jiri Pittner, Ondrej Demel                    : Mk-CCSD
   Frank Weinhold                                : gennbo (NPA and NBO analysis)
   Christopher J. Cramer and Donald G. Truhlar   : smd solvation model
   Lars Goerigk                                  : TD-DFT with DH, B97 family of functionals
   V. Asgeirsson, H. Jonsson                     : NEB implementation
   FAccTs GmbH                                   : IRC, NEB, NEB-TS, DLPNO-Multilevel, CI-OPT
                                                   MM, QMMM, 2- and 3-layer-ONIOM, Crystal-QMMM,
                                                   LR-CPCM, SF, NACMEs, symmetry and pop. for TD-DFT,
                                                   nearIR, NL-DFT gradient (VV10), updates on ESD,
                                                   ML-optimized integration grids
   S Lehtola, MJT Oliveira, MAL Marques          : LibXC Library
   Liviu Ungur et al                             : ANISO software


 Your calculation uses the libint2 library for the computation of 2-el integrals
 For citations please refer to: http://libint.valeyev.net

 Your ORCA version has been built with support for libXC version: 5.1.0
 For citations please refer to: https://tddft.org/programs/libxc/

 This ORCA versions uses:
   CBLAS   interface :  Fast vector & matrix operations
   LAPACKE interface :  Fast linear algebra routines
   SCALAPACK package :  Parallel linear algebra routines
   Shared memory     :  Shared parallel matrices
   BLAS/LAPACK       :  OpenBLAS 0.3.15  USE64BITINT DYNAMIC_ARCH NO_AFFINITY Haswell SINGLE_THREADED
        Core in use  :  Haswell
   Copyright (c) 2011-2014, The OpenBLAS Project


Your calculation utilizes the atom-pairwise dispersion correction
with the Becke-Johnson damping scheme (D3BJ)
Cite in your paper:
S.Grimme, S.Ehrlich, L.Goerigk, J Comput Chem, (2011), 32, 1456–1465 
S.Grimme, J.Antony, S.Ehrlich and H.Krieg, J.Chem.Phys., 132, (2010), 154104 
   

================================================================================

----- Orbital basis set information -----
Your calculation utilizes the basis: def2-SVPD
   F. Weigend and R. Ahlrichs, Phys. Chem. Chem. Phys. 7, 3297 (2005).
   D. Rappoport and F. Furche, J. Chem. Phys. 133 134105 (2010).

----- AuxJ basis set information -----
Your calculation utilizes the auxiliary basis: def2/J
   F. Weigend, Phys. Chem. Chem. Phys. 8, 1057 (2006).

================================================================================
                                        WARNINGS
                       Please study these warnings very carefully!
================================================================================



WARNING: Found flag for RIJCOSX approximation but no HF exchange needed!
  ===> : RIJCOSX  will be disabled and Split-RI-J is turned on

INFO   : the flag for use of the SHARK integral package has been found!

================================================================================
                                       INPUT FILE
================================================================================
NAME = 14Feb_SVPD_BLYP_C1_wt_wb97_typ1_pos.com
|  1> !BLYP D3BJ RIJCOSX def2-SVPD def2/J TightSCF 
|  2> *xyz 0 1
|  3> C          1.36401        0.46874       -2.81376
|  4> C          0.42884        0.32140       -1.65531
|  5> C          0.96805        1.63064       -3.71575
|  6> C         -0.50835        1.72268       -4.12430
|  7> H          0.74858       -0.40054       -1.00134
|  8> H         -0.46105        0.02333       -2.07773
|  9> H          0.31026        1.20137       -1.13495
| 10> H          1.29485       -0.46874       -3.36468
| 11> H          2.37622        0.59740       -2.43149
| 12> H          1.57869        1.52065       -4.61273
| 13> H          1.26665        2.57599       -3.25045
| 14> H         -0.65192        2.57663       -4.75283
| 15> H         -1.11549        1.81835       -3.24844
| 16> H         -0.78702        0.83723       -4.65648
| 17> *
| 18> %MaxCore 64000
| 19> 
| 20> %pal nprocs 4
| 21> end  
| 22> 
| 23> %scf
| 24>   MaxIter 150
| 25> end
| 26> 
| 27> 
| 28>                          ****END OF INPUT****
================================================================================

                       ****************************
                       * Single Point Calculation *
                       ****************************

---------------------------------
CARTESIAN COORDINATES (ANGSTROEM)
---------------------------------
  C      1.364010    0.468740   -2.813760
  C      0.428840    0.321400   -1.655310
  C      0.968050    1.630640   -3.715750
  C     -0.508350    1.722680   -4.124300
  H      0.748580   -0.400540   -1.001340
  H     -0.461050    0.023330   -2.077730
  H      0.310260    1.201370   -1.134950
  H      1.294850   -0.468740   -3.364680
  H      2.376220    0.597400   -2.431490
  H      1.578690    1.520650   -4.612730
  H      1.266650    2.575990   -3.250450
  H     -0.651920    2.576630   -4.752830
  H     -1.115490    1.818350   -3.248440
  H     -0.787020    0.837230   -4.656480

----------------------------
CARTESIAN COORDINATES (A.U.)
----------------------------
  NO LB      ZA    FRAG     MASS         X           Y           Z
   0 C     6.0000    0    12.011    2.577605    0.885790   -5.317236
   1 C     6.0000    0    12.011    0.810390    0.607358   -3.128083
   2 C     6.0000    0    12.011    1.829349    3.081463   -7.021750
   3 C     6.0000    0    12.011   -0.960642    3.255393   -7.793797
   4 H     1.0000    0     1.008    1.414611   -0.756911   -1.892258
   5 H     1.0000    0     1.008   -0.871258    0.044087   -3.926341
   6 H     1.0000    0     1.008    0.586306    2.270260   -2.144745
   7 H     1.0000    0     1.008    2.446912   -0.885790   -6.358324
   8 H     1.0000    0     1.008    4.490405    1.128922   -4.594850
   9 H     1.0000    0     1.008    2.983292    2.873612   -8.716796
  10 H     1.0000    0     1.008    2.393622    4.867916   -6.142460
  11 H     1.0000    0     1.008   -1.231950    4.869125   -8.981547
  12 H     1.0000    0     1.008   -2.107971    3.436184   -6.138662
  13 H     1.0000    0     1.008   -1.487252    1.582135   -8.799472

--------------------------------
INTERNAL COORDINATES (ANGSTROEM)
--------------------------------
 C      0   0   0     0.000000000000     0.00000000     0.00000000
 C      1   0   0     1.496081016189     0.00000000     0.00000000
 C      1   2   0     1.523279978106   111.78608065     0.00000000
 C      3   1   2     1.534647003092   116.96568617   312.35700725
 H      2   1   3     1.025235481292   111.61239405   185.59051269
 H      2   1   3     1.029168884780   104.54799300    67.76470872
 H      2   1   3     1.029166141544   112.29171607   307.54133605
 H      1   2   3     1.089570879934   105.49223069   240.58209387
 H      1   2   3     1.089611321802   108.70216197   122.93165872
 H      3   1   2     1.090665911313   105.33878468   191.12375756
 H      3   1   2     1.095149611925   109.63156545    76.89947942
 H      4   3   1     1.069996686116   109.47101714   179.99997659
 H      4   3   1     1.070001153317   109.47108513    59.99971374
 H      4   3   1     1.069997300838   109.47113398   299.99973987

---------------------------
INTERNAL COORDINATES (A.U.)
---------------------------
 C      0   0   0     0.000000000000     0.00000000     0.00000000
 C      1   0   0     2.827183394755     0.00000000     0.00000000
 C      1   2   0     2.878581983907   111.78608065     0.00000000
 C      3   1   2     2.900062548087   116.96568617   312.35700725
 H      2   1   3     1.937414282421   111.61239405   185.59051269
 H      2   1   3     1.944847337788   104.54799300    67.76470872
 H      2   1   3     1.944842153822   112.29171607   307.54133605
 H      1   2   3     2.058990566571   105.49223069   240.58209387
 H      1   2   3     2.059066990626   108.70216197   122.93165872
 H      3   1   2     2.061059875985   105.33878468   191.12375756
 H      3   1   2     2.069532842209   109.63156545    76.89947942
 H      4   3   1     2.022000700963   109.47101714   179.99997659
 H      4   3   1     2.022009142749   109.47108513    59.99971374
 H      4   3   1     2.022001862618   109.47113398   299.99973987

---------------------
BASIS SET INFORMATION
---------------------
There are 2 groups of distinct atoms

 Group   1 Type C   : 8s4p2d contracted to 4s2p2d pattern {5111/31/11}
 Group   2 Type H   : 4s2p contracted to 2s2p pattern {31/11}

Atom   0C    basis set group =>   1
Atom   1C    basis set group =>   1
Atom   2C    basis set group =>   1
Atom   3C    basis set group =>   1
Atom   4H    basis set group =>   2
Atom   5H    basis set group =>   2
Atom   6H    basis set group =>   2
Atom   7H    basis set group =>   2
Atom   8H    basis set group =>   2
Atom   9H    basis set group =>   2
Atom  10H    basis set group =>   2
Atom  11H    basis set group =>   2
Atom  12H    basis set group =>   2
Atom  13H    basis set group =>   2
---------------------------------
AUXILIARY/J BASIS SET INFORMATION
---------------------------------
There are 2 groups of distinct atoms

 Group   1 Type C   : 12s5p4d2f1g contracted to 6s4p3d1f1g pattern {711111/2111/211/2/1}
 Group   2 Type H   : 5s2p1d contracted to 3s1p1d pattern {311/2/1}

Atom   0C    basis set group =>   1
Atom   1C    basis set group =>   1
Atom   2C    basis set group =>   1
Atom   3C    basis set group =>   1
Atom   4H    basis set group =>   2
Atom   5H    basis set group =>   2
Atom   6H    basis set group =>   2
Atom   7H    basis set group =>   2
Atom   8H    basis set group =>   2
Atom   9H    basis set group =>   2
Atom  10H    basis set group =>   2
Atom  11H    basis set group =>   2
Atom  12H    basis set group =>   2
Atom  13H    basis set group =>   2


           ************************************************************
           *        Program running with 4 parallel MPI-processes     *
           *              working on a common directory               *
           ************************************************************
------------------------------------------------------------------------------
                           ORCA GTO INTEGRAL CALCULATION
                           -- RI-GTO INTEGRALS CHOSEN --
------------------------------------------------------------------------------
------------------------------------------------------------------------------
                   ___                                                        
                  /   \      - P O W E R E D   B Y -                         
                 /     \                                                     
                 |  |  |   _    _      __       _____    __    __             
                 |  |  |  | |  | |    /  \     |  _  \  |  |  /  |          
                  \  \/   | |  | |   /    \    | | | |  |  | /  /          
                 / \  \   | |__| |  /  /\  \   | |_| |  |  |/  /          
                |  |  |   |  __  | /  /__\  \  |    /   |      \           
                |  |  |   | |  | | |   __   |  |    \   |  |\   \          
                \     /   | |  | | |  |  |  |  | |\  \  |  | \   \       
                 \___/    |_|  |_| |__|  |__|  |_| \__\ |__|  \__/        
                                                                              
                      - O R C A' S   B I G   F R I E N D -                    
                                      &                                       
                       - I N T E G R A L  F E E D E R -                       
                                                                              
 v1 FN, 2020, v2 2021                                                         
------------------------------------------------------------------------------


Reading SHARK input file 14Feb_SVPD_BLYP_C1_wt_wb97_typ1_pos.SHARKINP.tmp ... ok
----------------------
SHARK INTEGRAL PACKAGE
----------------------

Number of atoms                             ...     14
Number of basis functions                   ...    160
Number of shells                            ...     72
Maximum angular momentum                    ...      2
Integral batch strategy                     ... SHARK/LIBINT Hybrid
RI-J (if used) integral strategy            ... SPLIT-RIJ (Revised 2003 algorithm where possible)
Printlevel                                  ...      1
Contraction scheme used                     ... SEGMENTED contraction
Coulomb Range Separation                    ... NOT USED
Exchange Range Separation                   ... NOT USED
Finite Nucleus Model                        ... NOT USED
Auxiliary Coulomb fitting basis             ... AVAILABLE
   # of basis functions in Aux-J            ...    306
   # of shells in Aux-J                     ...    110
   Maximum angular momentum in Aux-J        ...      4
Auxiliary J/K fitting basis                 ... NOT available
Auxiliary Correlation fitting basis         ... NOT available
Auxiliary 'external' fitting basis          ... NOT available
Integral threshold                          ...     2.500000e-11
Primitive cut-off                           ...     2.500000e-12
Primitive pair pre-selection threshold      ...     2.500000e-12

Calculating pre-screening integrals         ... done (  0.0 sec) Dimension = 72
Organizing shell pair data                  ... done (  0.0 sec)
Shell pair information
Total number of shell pairs                 ...      2628
Shell pairs after pre-screening             ...      2620
Total number of primitive shell pairs       ...      6868
Primitive shell pairs kept                  ...      6005
          la=0 lb=0:    663 shell pairs
          la=1 lb=0:   1004 shell pairs
          la=1 lb=1:    405 shell pairs
          la=2 lb=0:    288 shell pairs
          la=2 lb=1:    224 shell pairs
          la=2 lb=2:     36 shell pairs

Calculating one electron integrals          ... done (  0.0 sec)
Calculating RI/J V-Matrix + Cholesky decomp.... done (  0.0 sec)
Calculating Nuclear repulsion               ... done (  0.0 sec) ENN=    135.051793432432 Eh

SHARK setup successfully completed in   0.2 seconds

Maximum memory used throughout the entire GTOINT-calculation: 8.9 MB


           ************************************************************
           *        Program running with 4 parallel MPI-processes     *
           *              working on a common directory               *
           ************************************************************
-------------------------------------------------------------------------------
                                 ORCA SCF
-------------------------------------------------------------------------------

------------
SCF SETTINGS
------------
Hamiltonian:
 Density Functional     Method          .... DFT(GTOs)
 Exchange Functional    Exchange        .... B88
   X-Alpha parameter    XAlpha          ....  0.666667
   Becke's b parameter  XBeta           ....  0.004200
 Correlation Functional Correlation     .... LYP
 Gradients option       PostSCFGGA      .... off
   Density functional embedding theory  .... OFF
   NL short-range parameter             ....  4.000000
 RI-approximation to the Coulomb term is turned on
   Number of AuxJ basis functions       .... 306


General Settings:
 Integral files         IntName         .... 14Feb_SVPD_BLYP_C1_wt_wb97_typ1_pos
 Hartree-Fock type      HFTyp           .... RHF
 Total Charge           Charge          ....    0
 Multiplicity           Mult            ....    1
 Number of Electrons    NEL             ....   34
 Basis Dimension        Dim             ....  160
 Nuclear Repulsion      ENuc            ....    135.0517934324 Eh

Convergence Acceleration:
 DIIS                   CNVDIIS         .... on
   Start iteration      DIISMaxIt       ....    12
   Startup error        DIISStart       ....  0.200000
   # of expansion vecs  DIISMaxEq       ....     5
   Bias factor          DIISBfac        ....   1.050
   Max. coefficient     DIISMaxC        ....  10.000
 Trust-Rad. Augm. Hess. CNVTRAH         .... auto
   Auto Start mean grad. ratio tolernc. ....  1.125000
   Auto Start start iteration           ....    20
   Auto Start num. interpolation iter.  ....    10
   Max. Number of Micro iterations      ....    16
   Max. Number of Macro iterations      .... Maxiter - #DIIS iter
   Number of Davidson start vectors     ....     2
   Converg. threshold I  (grad. norm)   ....   1.000e-05
   Converg. threshold II (energy diff.) ....   1.000e-08
   Grad. Scal. Fac. for Micro threshold ....   0.100
   Minimum threshold for Micro iter.    ....   0.010
   NR start threshold (gradient norm)   ....   0.001
   Initial trust radius                 ....   0.400
   Minimum AH scaling param. (alpha)    ....   1.000
   Maximum AH scaling param. (alpha)    .... 1000.000
   Orbital update algorithm             .... Taylor
   White noise on init. David. guess    .... on
   Maximum white noise                  ....   0.010
   Quad. conv. algorithm                .... NR
 SOSCF                  CNVSOSCF        .... on
   Start iteration      SOSCFMaxIt      ....   150
   Startup grad/error   SOSCFStart      ....  0.003300
 Level Shifting         CNVShift        .... on
   Level shift para.    LevelShift      ....    0.2500
   Turn off err/grad.   ShiftErr        ....    0.0010
 Zerner damping         CNVZerner       .... off
 Static damping         CNVDamp         .... on
   Fraction old density DampFac         ....    0.7000
   Max. Damping (<1)    DampMax         ....    0.9800
   Min. Damping (>=0)   DampMin         ....    0.0000
   Turn off err/grad.   DampErr         ....    0.1000
 Fernandez-Rico         CNVRico         .... off

SCF Procedure:
 Maximum # iterations   MaxIter         ....   150
 SCF integral mode      SCFMode         .... Direct
   Integral package                     .... SHARK and LIBINT hybrid scheme
 Reset frequency        DirectResetFreq ....    20
 Integral Threshold     Thresh          ....  2.500e-11 Eh
 Primitive CutOff       TCut            ....  2.500e-12 Eh

Convergence Tolerance:
 Convergence Check Mode ConvCheckMode   .... Total+1el-Energy
 Convergence forced     ConvForced      .... 0
 Energy Change          TolE            ....  1.000e-08 Eh
 1-El. energy change                    ....  1.000e-05 Eh
 Orbital Gradient       TolG            ....  1.000e-05
 Orbital Rotation angle TolX            ....  1.000e-05
 DIIS Error             TolErr          ....  5.000e-07


Diagonalization of the overlap matrix:
Smallest eigenvalue                        ... 1.261e-04
Time for diagonalization                   ...    0.006 sec
Threshold for overlap eigenvalues          ... 1.000e-08
Number of eigenvalues below threshold      ... 0
Time for construction of square roots      ...    0.005 sec
Total time needed                          ...    0.012 sec

Time for model grid setup =    0.069 sec

------------------------------
INITIAL GUESS: MODEL POTENTIAL
------------------------------
Loading Hartree-Fock densities                     ... done
Calculating cut-offs                               ... done
Initializing the effective Hamiltonian             ... done
Setting up the integral package (SHARK)            ... done
Starting the Coulomb interaction                   ... done (   0.0 sec)
Reading the grid                                   ... done
Mapping shells                                     ... done
Starting the XC term evaluation                    ... done (   0.1 sec)
  promolecular density results
     # of electrons  =     33.994580136
     EX              =    -23.588140868
     EC              =     -1.065181494
     EX+EC           =    -24.653322363
Transforming the Hamiltonian                       ... done (   0.0 sec)
Diagonalizing the Hamiltonian                      ... done (   0.0 sec)
Back transforming the eigenvectors                 ... done (   0.0 sec)
Now organizing SCF variables                       ... done
                      ------------------
                      INITIAL GUESS DONE (   0.2 sec)
                      ------------------
-------------------
DFT GRID GENERATION
-------------------

General Integration Accuracy     IntAcc      ... 4.388
Radial Grid Type                 RadialGrid  ... OptM3 with GC (2021)
Angular Grid (max. ang.)         AngularGrid ... 4 (Lebedev-302)
Angular grid pruning method      GridPruning ... 4 (adaptive)
Weight generation scheme         WeightScheme... Becke
Basis function cutoff            BFCut       ... 1.0000e-11
Integration weight cutoff        WCut        ... 1.0000e-14
Angular grids for H and He will be reduced by one unit
Partially contracted basis set               ... off
Rotationally invariant grid construction     ... off

Total number of grid points                  ...    58129
Total number of batches                      ...      915
Average number of points per batch           ...       63
Average number of grid points per atom       ...     4152
Time for grid setup =    0.336 sec

--------------
SCF ITERATIONS
--------------
ITER       Energy         Delta-E        Max-DP      RMS-DP      [F,P]     Damp
               ***  Starting incremental Fock matrix formation  ***
  0   -158.0100508015   0.000000000000 0.20248252  0.00359616  0.2024021 0.7000
  1   -158.1087902770  -0.098739475532 0.10528425  0.00209180  0.0961988 0.7000
                               ***Turning on DIIS***
  2   -158.1422821353  -0.033491858304 0.14662710  0.00325300  0.0271680 0.0000
  3   -158.1897598728  -0.047477737435 0.04097982  0.00127024  0.0598094 0.0000
  4   -158.2067425237  -0.016982650939 0.00780096  0.00047120  0.0127959 0.0000
                      *** Initiating the SOSCF procedure ***
                           *** Shutting down DIIS ***
                      *** Re-Reading the Fockian *** 
                      *** Removing any level shift *** 
ITER      Energy       Delta-E        Grad      Rot      Max-DP    RMS-DP
  5   -158.20768974  -0.0009472179  0.000830  0.000830  0.005540  0.000205
               *** Restarting incremental Fock matrix formation ***
  6   -158.20776899  -0.0000792517  0.000371  0.001137  0.009755  0.000223
  7   -158.20776741   0.0000015794  0.000408  0.000362  0.002349  0.000050
  8   -158.20777858  -0.0000111667  0.000047  0.000154  0.000731  0.000026
  9   -158.20777869  -0.0000001102  0.000031  0.000039  0.000239  0.000009
 10   -158.20777878  -0.0000000894  0.000005  0.000015  0.000077  0.000002
 11   -158.20777878  -0.0000000008  0.000005  0.000006  0.000022  0.000001
                  ***Gradient check signals convergence***
              ***Rediagonalizing the Fockian in SOSCF/NRSCF***

               *****************************************************
               *                     SUCCESS                       *
               *           SCF CONVERGED AFTER  12 CYCLES          *
               *****************************************************


----------------
TOTAL SCF ENERGY
----------------

Total Energy       :         -158.20777878 Eh           -4305.05253 eV

Components:
Nuclear Repulsion  :          135.05179343 Eh            3674.94613 eV
Electronic Energy  :         -293.25957222 Eh           -7979.99866 eV
One Electron Energy:         -478.12087822 Eh          -13010.33053 eV
Two Electron Energy:          184.86130601 Eh            5030.33187 eV

Virial components:
Potential Energy   :         -314.98131442 Eh           -8571.07731 eV
Kinetic Energy     :          156.77353564 Eh            4266.02479 eV
Virial Ratio       :            2.00914850


DFT components:
N(Alpha)           :       16.999992503704 electrons
N(Beta)            :       16.999992503704 electrons
N(Total)           :       33.999985007408 electrons
E(X)               :      -24.349359777135 Eh       
E(C)               :       -1.075014463936 Eh       
E(XC)              :      -25.424374241071 Eh       
DFET-embed. en.    :        0.000000000000 Eh       

---------------
SCF CONVERGENCE
---------------

  Last Energy change         ...   -2.4729e-09  Tolerance :   1.0000e-08
  Last MAX-Density change    ...    1.3580e-05  Tolerance :   1.0000e-07
  Last RMS-Density change    ...    6.1604e-07  Tolerance :   5.0000e-09
  Last Orbital Gradient      ...    1.2301e-06  Tolerance :   1.0000e-05
  Last Orbital Rotation      ...    2.1559e-06  Tolerance :   1.0000e-05

             **** THE GBW FILE WAS UPDATED (14Feb_SVPD_BLYP_C1_wt_wb97_typ1_pos.gbw) ****
             **** DENSITY 14Feb_SVPD_BLYP_C1_wt_wb97_typ1_pos.scfp WAS UPDATED ****
             **** ENERGY FILE WAS UPDATED (14Feb_SVPD_BLYP_C1_wt_wb97_typ1_pos.en.tmp) ****
             **** THE GBW FILE WAS UPDATED (14Feb_SVPD_BLYP_C1_wt_wb97_typ1_pos.gbw) ****
             **** DENSITY 14Feb_SVPD_BLYP_C1_wt_wb97_typ1_pos.scfp WAS UPDATED ****
----------------
ORBITAL ENERGIES
----------------

  NO   OCC          E(Eh)            E(eV) 
   0   2.0000      -9.911233      -269.6984 
   1   2.0000      -9.908111      -269.6134 
   2   2.0000      -9.904002      -269.5016 
   3   2.0000      -9.885412      -268.9957 
   4   2.0000      -0.715037       -19.4571 
   5   2.0000      -0.645791       -17.5729 
   6   2.0000      -0.572415       -15.5762 
   7   2.0000      -0.494353       -13.4520 
   8   2.0000      -0.415898       -11.3172 
   9   2.0000      -0.407781       -11.0963 
  10   2.0000      -0.374403       -10.1880 
  11   2.0000      -0.340052        -9.2533 
  12   2.0000      -0.335681        -9.1343 
  13   2.0000      -0.319060        -8.6821 
  14   2.0000      -0.283691        -7.7196 
  15   2.0000      -0.276532        -7.5248 
  16   2.0000      -0.272782        -7.4228 
  17   0.0000       0.005741         0.1562 
  18   0.0000       0.033196         0.9033 
  19   0.0000       0.036028         0.9804 
  20   0.0000       0.045141         1.2284 
  21   0.0000       0.073876         2.0103 
  22   0.0000       0.078473         2.1354 
  23   0.0000       0.084581         2.3016 
  24   0.0000       0.101831         2.7710 
  25   0.0000       0.107697         2.9306 
  26   0.0000       0.120795         3.2870 
  27   0.0000       0.133621         3.6360 
  28   0.0000       0.140471         3.8224 
  29   0.0000       0.146135         3.9765 
  30   0.0000       0.155036         4.2187 
  31   0.0000       0.165642         4.5074 
  32   0.0000       0.166980         4.5438 
  33   0.0000       0.173475         4.7205 
  34   0.0000       0.197928         5.3859 
  35   0.0000       0.206606         5.6220 
  36   0.0000       0.220489         5.9998 
  37   0.0000       0.247442         6.7332 
  38   0.0000       0.255979         6.9655 
  39   0.0000       0.272238         7.4080 
  40   0.0000       0.282582         7.6894 
  41   0.0000       0.292674         7.9641 
  42   0.0000       0.294942         8.0258 
  43   0.0000       0.300111         8.1664 
  44   0.0000       0.311571         8.4783 
  45   0.0000       0.323513         8.8032 
  46   0.0000       0.330026         8.9805 
  47   0.0000       0.331991         9.0339 
  48   0.0000       0.340593         9.2680 
  49   0.0000       0.345145         9.3919 
  50   0.0000       0.352496         9.5919 
  51   0.0000       0.358795         9.7633 
  52   0.0000       0.368329        10.0227 
  53   0.0000       0.373906        10.1745 
  54   0.0000       0.378155        10.2901 
  55   0.0000       0.383567        10.4374 
  56   0.0000       0.402981        10.9657 
  57   0.0000       0.413087        11.2407 
  58   0.0000       0.422692        11.5020 
  59   0.0000       0.435265        11.8442 
  60   0.0000       0.436015        11.8646 
  61   0.0000       0.447336        12.1726 
  62   0.0000       0.453292        12.3347 
  63   0.0000       0.459900        12.5145 
  64   0.0000       0.471526        12.8309 
  65   0.0000       0.477084        12.9821 
  66   0.0000       0.484718        13.1898 
  67   0.0000       0.486054        13.2262 
  68   0.0000       0.495249        13.4764 
  69   0.0000       0.498473        13.5641 
  70   0.0000       0.508513        13.8373 
  71   0.0000       0.528828        14.3901 
  72   0.0000       0.533684        14.5223 
  73   0.0000       0.536036        14.5863 
  74   0.0000       0.545803        14.8521 
  75   0.0000       0.560895        15.2627 
  76   0.0000       0.588409        16.0114 
  77   0.0000       0.597960        16.2713 
  78   0.0000       0.604254        16.4426 
  79   0.0000       0.610852        16.6221 
  80   0.0000       0.615898        16.7594 
  81   0.0000       0.624583        16.9958 
  82   0.0000       0.643678        17.5154 
  83   0.0000       0.655692        17.8423 
  84   0.0000       0.807994        21.9866 
  85   0.0000       0.841194        22.8901 
  86   0.0000       0.875985        23.8368 
  87   0.0000       0.899056        24.4646 
  88   0.0000       0.908553        24.7230 
  89   0.0000       0.933690        25.4070 
  90   0.0000       0.943008        25.6606 
  91   0.0000       0.957474        26.0542 
  92   0.0000       0.979734        26.6599 
  93   0.0000       0.986087        26.8328 
  94   0.0000       0.999868        27.2078 
  95   0.0000       1.008520        27.4432 
  96   0.0000       1.014101        27.5951 
  97   0.0000       1.032964        28.1084 
  98   0.0000       1.044428        28.4203 
  99   0.0000       1.097195        29.8562 
 100   0.0000       1.112960        30.2852 
 101   0.0000       1.146593        31.2004 
 102   0.0000       1.179611        32.0988 
 103   0.0000       1.203393        32.7460 
 104   0.0000       1.244762        33.8717 
 105   0.0000       1.263063        34.3697 
 106   0.0000       1.294978        35.2381 
 107   0.0000       1.336578        36.3701 
 108   0.0000       1.355534        36.8860 
 109   0.0000       1.395777        37.9810 
 110   0.0000       1.525737        41.5174 
 111   0.0000       1.539468        41.8911 
 112   0.0000       1.588495        43.2252 
 113   0.0000       1.603299        43.6280 
 114   0.0000       1.630618        44.3714 
 115   0.0000       1.643027        44.7090 
 116   0.0000       1.654448        45.0198 
 117   0.0000       1.699234        46.2385 
 118   0.0000       1.710451        46.5437 
 119   0.0000       1.753207        47.7072 
 120   0.0000       1.819797        49.5192 
 121   0.0000       1.833254        49.8854 
 122   0.0000       1.882994        51.2389 
 123   0.0000       1.906225        51.8710 
 124   0.0000       1.922160        52.3046 
 125   0.0000       1.959886        53.3312 
 126   0.0000       1.976746        53.7900 
 127   0.0000       1.990646        54.1682 
 128   0.0000       2.013789        54.7980 
 129   0.0000       2.016408        54.8692 
 130   0.0000       2.040842        55.5341 
 131   0.0000       2.056317        55.9552 
 132   0.0000       2.099547        57.1316 
 133   0.0000       2.131614        58.0042 
 134   0.0000       2.168266        59.0015 
 135   0.0000       2.207194        60.0608 
 136   0.0000       2.238108        60.9020 
 137   0.0000       2.287123        62.2358 
 138   0.0000       2.316544        63.0364 
 139   0.0000       2.401738        65.3546 
 140   0.0000       2.413765        65.6819 
 141   0.0000       2.465016        67.0765 
 142   0.0000       2.497892        67.9711 
 143   0.0000       2.542525        69.1856 
 144   0.0000       2.550779        69.4102 
 145   0.0000       2.601543        70.7916 
 146   0.0000       2.641288        71.8731 
 147   0.0000       2.689770        73.1924 
 148   0.0000       2.693901        73.3048 
 149   0.0000       2.766131        75.2703 
 150   0.0000       2.829263        76.9881 
 151   0.0000       2.937083        79.9221 
 152   0.0000       2.979269        81.0700 
 153   0.0000       3.026077        82.3437 
 154   0.0000       3.034631        82.5765 
 155   0.0000       3.087752        84.0220 
 156   0.0000       3.109265        84.6074 
 157   0.0000       3.150410        85.7270 
 158   0.0000       3.202508        87.1447 
 159   0.0000       3.222806        87.6970 

                    ********************************
                    * MULLIKEN POPULATION ANALYSIS *
                    ********************************

-----------------------
MULLIKEN ATOMIC CHARGES
-----------------------
   0 C :    0.012679
   1 C :    1.410555
   2 C :   -0.068828
   3 C :    1.080829
   4 H :   -0.527274
   5 H :   -0.192845
   6 H :   -0.295475
   7 H :   -0.145053
   8 H :   -0.293996
   9 H :   -0.248929
  10 H :   -0.141009
  11 H :   -0.307784
  12 H :   -0.145175
  13 H :   -0.137693
Sum of atomic charges:    0.0000000

--------------------------------
MULLIKEN REDUCED ORBITAL CHARGES
--------------------------------
  0 C s       :     2.671254  s :     2.671254
      pz      :     0.937732  p :     2.704224
      px      :     0.866379
      py      :     0.900113
      dz2     :     0.251876  d :     0.611843
      dxz     :     0.052474
      dyz     :     0.154350
      dx2y2   :     0.086829
      dxy     :     0.066313
  1 C s       :     2.034172  s :     2.034172
      pz      :     0.836185  p :     2.396455
      px      :     0.897681
      py      :     0.662589
      dz2     :     0.067376  d :     0.158817
      dxz     :     0.017274
      dyz     :     0.049034
      dx2y2   :     0.018009
      dxy     :     0.007124
  2 C s       :     2.722825  s :     2.722825
      pz      :     0.826569  p :     2.710497
      px      :     0.972491
      py      :     0.911437
      dz2     :     0.046019  d :     0.635506
      dxz     :     0.253252
      dyz     :     0.032447
      dx2y2   :     0.099866
      dxy     :     0.203923
  3 C s       :     2.282341  s :     2.282341
      pz      :     0.786088  p :     2.507174
      px      :     1.003179
      py      :     0.717907
      dz2     :    -0.006706  d :     0.129656
      dxz     :     0.065907
      dyz     :    -0.024359
      dx2y2   :     0.018571
      dxy     :     0.076243
  4 H s       :     1.554882  s :     1.554882
      pz      :    -0.017059  p :    -0.027608
      px      :     0.014299
      py      :    -0.024848
  5 H s       :     1.156204  s :     1.156204
      pz      :     0.035825  p :     0.036641
      px      :     0.030690
      py      :    -0.029874
  6 H s       :     1.333851  s :     1.333851
      pz      :    -0.022833  p :    -0.038376
      px      :    -0.028451
      py      :     0.012907
  7 H s       :     1.164401  s :     1.164401
      pz      :    -0.009452  p :    -0.019348
      px      :    -0.048289
      py      :     0.038394
  8 H s       :     1.317547  s :     1.317547
      pz      :    -0.029358  p :    -0.023551
      px      :     0.050145
      py      :    -0.044338
  9 H s       :     1.248309  s :     1.248309
      pz      :     0.032160  p :     0.000621
      px      :     0.004310
      py      :    -0.035849
 10 H s       :     1.142837  s :     1.142837
      pz      :    -0.014917  p :    -0.001828
      px      :    -0.023354
      py      :     0.036443
 11 H s       :     1.312043  s :     1.312043
      pz      :    -0.015648  p :    -0.004259
      px      :    -0.009041
      py      :     0.020430
 12 H s       :     1.092419  s :     1.092419
      pz      :     0.087433  p :     0.052756
      px      :     0.006393
      py      :    -0.041071
 13 H s       :     1.138909  s :     1.138909
      pz      :    -0.013552  p :    -0.001216
      px      :     0.000982
      py      :     0.011354


                     *******************************
                     * LOEWDIN POPULATION ANALYSIS *
                     *******************************

----------------------
LOEWDIN ATOMIC CHARGES
----------------------
   0 C :   -0.067902
   1 C :    0.132458
   2 C :   -0.069914
   3 C :    0.137807
   4 H :   -0.039581
   5 H :   -0.043533
   6 H :   -0.029009
   7 H :    0.019012
   8 H :    0.015647
   9 H :    0.007064
  10 H :    0.016230
  11 H :   -0.025334
  12 H :   -0.032906
  13 H :   -0.020038

-------------------------------
LOEWDIN REDUCED ORBITAL CHARGES
-------------------------------
  0 C s       :     2.688992  s :     2.688992
      pz      :     0.895696  p :     2.695806
      px      :     0.902475
      py      :     0.897635
      dz2     :     0.154055  d :     0.683104
      dxz     :     0.121669
      dyz     :     0.171496
      dx2y2   :     0.162813
      dxy     :     0.073070
  1 C s       :     2.673638  s :     2.673638
      pz      :     0.910815  p :     2.757136
      px      :     0.919948
      py      :     0.926373
      dz2     :     0.079656  d :     0.436767
      dxz     :     0.092516
      dyz     :     0.132122
      dx2y2   :     0.083010
      dxy     :     0.049463
  2 C s       :     2.695747  s :     2.695747
      pz      :     0.900642  p :     2.689576
      px      :     0.887905
      py      :     0.901030
      dz2     :     0.101694  d :     0.684591
      dxz     :     0.178856
      dyz     :     0.100499
      dx2y2   :     0.159939
      dxy     :     0.143603
  3 C s       :     2.704501  s :     2.704501
      pz      :     0.919567  p :     2.746148
      px      :     0.903715
      py      :     0.922867
      dz2     :     0.036109  d :     0.411544
      dxz     :     0.119977
      dyz     :     0.072345
      dx2y2   :     0.097766
      dxy     :     0.085348
  4 H s       :     0.752505  s :     0.752505
      pz      :     0.094888  p :     0.287076
      px      :     0.083349
      py      :     0.108839
  5 H s       :     0.731174  s :     0.731174
      pz      :     0.099518  p :     0.312359
      px      :     0.121212
      py      :     0.091629
  6 H s       :     0.745792  s :     0.745792
      pz      :     0.084653  p :     0.283217
      px      :     0.074116
      py      :     0.124448
  7 H s       :     0.731197  s :     0.731197
      pz      :     0.078428  p :     0.249792
      px      :     0.067454
      py      :     0.103909
  8 H s       :     0.738734  s :     0.738734
      pz      :     0.068222  p :     0.245619
      px      :     0.112488
      py      :     0.064909
  9 H s       :     0.735953  s :     0.735953
      pz      :     0.108125  p :     0.256982
      px      :     0.078726
      py      :     0.070132
 10 H s       :     0.734888  s :     0.734888
      pz      :     0.079155  p :     0.248882
      px      :     0.065218
      py      :     0.104508
 11 H s       :     0.748191  s :     0.748191
      pz      :     0.094393  p :     0.277143
      px      :     0.069540
      py      :     0.113210
 12 H s       :     0.735693  s :     0.735693
      pz      :     0.127375  p :     0.297213
      px      :     0.085623
      py      :     0.084215
 13 H s       :     0.744433  s :     0.744433
      pz      :     0.086110  p :     0.275606
      px      :     0.070867
      py      :     0.118629


                      *****************************
                      * MAYER POPULATION ANALYSIS *
                      *****************************

  NA   - Mulliken gross atomic population
  ZA   - Total nuclear charge
  QA   - Mulliken gross atomic charge
  VA   - Mayer's total valence
  BVA  - Mayer's bonded valence
  FA   - Mayer's free valence

  ATOM       NA         ZA         QA         VA         BVA        FA
  0 C      5.9873     6.0000     0.0127     5.3071     5.3071    -0.0000
  1 C      4.5894     6.0000     1.4106     3.3310     3.3310    -0.0000
  2 C      6.0688     6.0000    -0.0688     5.2518     5.2518     0.0000
  3 C      4.9192     6.0000     1.0808     3.7215     3.7215     0.0000
  4 H      1.5273     1.0000    -0.5273     0.6015     0.6015    -0.0000
  5 H      1.1928     1.0000    -0.1928     1.0012     1.0012    -0.0000
  6 H      1.2955     1.0000    -0.2955     0.7420     0.7420    -0.0000
  7 H      1.1451     1.0000    -0.1451     0.9367     0.9367     0.0000
  8 H      1.2940     1.0000    -0.2940     0.8970     0.8970     0.0000
  9 H      1.2489     1.0000    -0.2489     1.0132     1.0132     0.0000
 10 H      1.1410     1.0000    -0.1410     0.9698     0.9698    -0.0000
 11 H      1.3078     1.0000    -0.3078     0.8776     0.8776    -0.0000
 12 H      1.1452     1.0000    -0.1452     1.0460     1.0460     0.0000
 13 H      1.1377     1.0000    -0.1377     0.9166     0.9166    -0.0000

  Mayer bond orders larger than 0.100000
B(  0-C ,  1-C ) :   1.2557 B(  0-C ,  2-C ) :   1.2140 B(  0-C ,  4-H ) :   0.2950 
B(  0-C ,  5-H ) :   0.3401 B(  0-C ,  6-H ) :   0.2936 B(  0-C ,  7-H ) :   0.7440 
B(  0-C ,  8-H ) :   0.8155 B(  0-C ,  9-H ) :   0.1857 B(  0-C , 10-H ) :   0.1647 
B(  1-C ,  4-H ) :   0.4882 B(  1-C ,  5-H ) :   0.6143 B(  1-C ,  6-H ) :   0.5692 
B(  1-C ,  7-H ) :   0.1737 B(  2-C ,  3-C ) :   1.3011 B(  2-C ,  7-H ) :   0.1707 
B(  2-C ,  8-H ) :   0.1173 B(  2-C ,  9-H ) :   0.8072 B(  2-C , 10-H ) :   0.8168 
B(  2-C , 11-H ) :   0.2910 B(  2-C , 12-H ) :   0.2375 B(  2-C , 13-H ) :   0.2475 
B(  3-C ,  9-H ) :   0.1109 B(  3-C , 10-H ) :   0.1233 B(  3-C , 11-H ) :   0.6398 
B(  3-C , 12-H ) :   0.7552 B(  3-C , 13-H ) :   0.7161 B(  4-H ,  6-H ) :  -0.1383 


-------
TIMINGS
-------

Total SCF time: 0 days 0 hours 0 min 4 sec 

Total time                  ....       4.268 sec
Sum of individual times     ....       4.118 sec  ( 96.5%)

Fock matrix formation       ....       3.490 sec  ( 81.8%)
  Split-RI-J                ....       0.697 sec  ( 20.0% of F)
  XC integration            ....       2.766 sec  ( 79.3% of F)
    Basis function eval.    ....       0.960 sec  ( 34.7% of XC)
    Density eval.           ....       0.645 sec  ( 23.3% of XC)
    XC-Functional eval.     ....       0.133 sec  (  4.8% of XC)
    XC-Potential eval.      ....       0.904 sec  ( 32.7% of XC)
Diagonalization             ....       0.050 sec  (  1.2%)
Density matrix formation    ....       0.003 sec  (  0.1%)
Population analysis         ....       0.006 sec  (  0.1%)
Initial guess               ....       0.102 sec  (  2.4%)
Orbital Transformation      ....       0.000 sec  (  0.0%)
Orbital Orthonormalization  ....       0.000 sec  (  0.0%)
DIIS solution               ....       0.032 sec  (  0.7%)
SOSCF solution              ....       0.030 sec  (  0.7%)
Grid generation             ....       0.405 sec  (  9.5%)

Maximum memory used throughout the entire SCF-calculation: 18.5 MB


-------------------------------------------------------------------------------
                          DFT DISPERSION CORRECTION                            
                                                                               
                              DFTD3 V3.1  Rev 1                                
                          USING Becke-Johnson damping                          
-------------------------------------------------------------------------------
The BLYP functional is recognized
Active option DFTDOPT                   ...         4   

molecular C6(AA) [au] = 1198.368214 


            DFT-D V3
 parameters
 s6 scaling factor         :     1.0000 
 a1 scaling factor         :     0.4298 
 s8 scaling factor         :     2.6996 
 a2 scaling factor         :     4.2359 
 ad hoc parameters k1-k3   :    16.0000     1.3333    -4.0000 

 Edisp/kcal,au: -12.021655401867  -0.019157725288 
 E6   /kcal   :  -5.092620055 
 E8   /kcal   :  -6.929035347 
 % E8         :  57.637946815 

-------------------------   ----------------
Dispersion correction           -0.019157725
-------------------------   ----------------


-------------------------   --------------------
FINAL SINGLE POINT ENERGY      -158.226936508737
-------------------------   --------------------


                            ***************************************
                            *     ORCA property calculations      *
                            ***************************************

                                    ---------------------
                                    Active property flags
                                    ---------------------
   (+) Dipole Moment


------------------------------------------------------------------------------
                       ORCA ELECTRIC PROPERTIES CALCULATION
------------------------------------------------------------------------------

Dipole Moment Calculation                       ... on
Quadrupole Moment Calculation                   ... off
Polarizability Calculation                      ... off
GBWName                                         ... 14Feb_SVPD_BLYP_C1_wt_wb97_typ1_pos.gbw
Electron density file                           ... 14Feb_SVPD_BLYP_C1_wt_wb97_typ1_pos.scfp
The origin for moment calculation is the CENTER OF MASS  = ( 1.029057,  1.954978 -5.807296)

-------------
DIPOLE MOMENT
-------------
                                X             Y             Z
Electronic contribution:      0.84453       0.05440      -0.18648
Nuclear contribution   :     -0.83100      -0.05970       0.18742
                        -----------------------------------------
Total Dipole Moment    :      0.01353      -0.00530       0.00094
                        -----------------------------------------
Magnitude (a.u.)       :      0.01456
Magnitude (Debye)      :      0.03700



--------------------
Rotational spectrum 
--------------------
 
Rotational constants in cm-1:     0.433656     0.172838     0.140497 
Rotational constants in MHz : 13000.688694  5181.547473  4211.992439 

 Dipole components along the rotational axes: 
x,y,z [a.u.] :     0.007934    -0.012025     0.002081 
x,y,z [Debye]:     0.020168    -0.030566     0.005290 

 

Timings for individual modules:

Sum of individual times         ...        4.911 sec (=   0.082 min)
GTO integral calculation        ...        0.436 sec (=   0.007 min)   8.9 %
SCF iterations                  ...        4.475 sec (=   0.075 min)  91.1 %
                             ****ORCA TERMINATED NORMALLY****
TOTAL RUN TIME: 0 days 0 hours 0 minutes 5 seconds 391 msec
