
                                        *****************
                                        * O   R   C   A *
                                        *****************

                                            #,                                       
                                            ###                                      
                                            ####                                     
                                            #####                                    
                                            ######                                   
                                           ########,                                 
                                     ,,################,,,,,                         
                               ,,#################################,,                 
                          ,,##########################################,,             
                       ,#########################################, ''#####,          
                    ,#############################################,,   '####,        
                  ,##################################################,,,,####,       
                ,###########''''           ''''###############################       
              ,#####''   ,,,,##########,,,,          '''####'''          '####       
            ,##' ,,,,###########################,,,                        '##       
           ' ,,###''''                  '''############,,,                           
         ,,##''                                '''############,,,,        ,,,,,,###''
      ,#''                                            '''#######################'''  
     '                                                          ''''####''''         
             ,#######,   #######,   ,#######,      ##                                
            ,#'     '#,  ##    ##  ,#'     '#,    #''#        ######   ,####,        
            ##       ##  ##   ,#'  ##            #'  '#       #        #'  '#        
            ##       ##  #######   ##           ,######,      #####,   #    #        
            '#,     ,#'  ##    ##  '#,     ,#' ,#      #,         ##   #,  ,#        
             '#######'   ##     ##  '#######'  #'      '#     #####' # '####'        



                  #######################################################
                  #                        -***-                        #
                  #          Department of theory and spectroscopy      #
                  #    Directorship and core code : Frank Neese         #
                  #        Max Planck Institute fuer Kohlenforschung    #
                  #                Kaiser Wilhelm Platz 1               #
                  #                 D-45470 Muelheim/Ruhr               #
                  #                      Germany                        #
                  #                                                     #
                  #                  All rights reserved                #
                  #                        -***-                        #
                  #######################################################


                         Program Version 5.0.0 -  RELEASE  -
                                (SVN: $Rev: 19529$)
                ($Date: 2021-06-28 11:36:33 +0200 (Mo, 28 Jun 2021) $)


 With contributions from (in alphabetic order):
   Daniel Aravena         : Magnetic Suceptibility
   Michael Atanasov       : Ab Initio Ligand Field Theory (pilot matlab implementation)
   Alexander A. Auer      : GIAO ZORA, VPT2 properties, NMR spectrum
   Ute Becker             : Parallelization
   Giovanni Bistoni       : ED, misc. LED, open-shell LED, HFLD
   Martin Brehm           : Molecular dynamics
   Dmytro Bykov           : SCF Hessian
   Vijay G. Chilkuri      : MRCI spin determinant printing, contributions to CSF-ICE
   Dipayan Datta          : RHF DLPNO-CCSD density
   Achintya Kumar Dutta   : EOM-CC, STEOM-CC
   Dmitry Ganyushin       : Spin-Orbit,Spin-Spin,Magnetic field MRCI
   Miquel Garcia          : C-PCM Hessian, Gaussian charge scheme
   Yang Guo               : DLPNO-NEVPT2, F12-NEVPT2, CIM, IAO-localization
   Andreas Hansen         : Spin unrestricted coupled pair/coupled cluster methods
   Benjamin Helmich-Paris : MC-RPA, TRAH-SCF, COSX integrals
   Lee Huntington         : MR-EOM, pCC
   Robert Izsak           : Overlap fitted RIJCOSX, COSX-SCS-MP3, EOM
   Marcus Kettner         : VPT2
   Christian Kollmar      : KDIIS, OOCD, Brueckner-CCSD(T), CCSD density, CASPT2, CASPT2-K
   Simone Kossmann        : Meta GGA functionals, TD-DFT gradient, OOMP2, MP2 Hessian
   Martin Krupicka        : Initial AUTO-CI
   Lucas Lang             : DCDCAS
   Marvin Lechner         : AUTO-CI (C++ implementation), FIC-MRCC
   Dagmar Lenk            : GEPOL surface, SMD
   Dimitrios Liakos       : Extrapolation schemes; Compound Job, initial MDCI parallelization
   Dimitrios Manganas     : Further ROCIS development; embedding schemes
   Dimitrios Pantazis     : SARC Basis sets
   Anastasios Papadopoulos: AUTO-CI, single reference methods and gradients
   Taras Petrenko         : DFT Hessian,TD-DFT gradient, ASA, ECA, R-Raman, ABS, FL, XAS/XES, NRVS
   Peter Pinski           : DLPNO-MP2, DLPNO-MP2 Gradient
   Christoph Reimann      : Effective Core Potentials
   Marius Retegan         : Local ZFS, SOC
   Christoph Riplinger    : Optimizer, TS searches, QM/MM, DLPNO-CCSD(T), (RO)-DLPNO pert. Triples
   Tobias Risthaus        : Range-separated hybrids, TD-DFT gradient, RPA, STAB
   Michael Roemelt        : Original ROCIS implementation
   Masaaki Saitow         : Open-shell DLPNO-CCSD energy and density
   Barbara Sandhoefer     : DKH picture change effects
   Avijit Sen             : IP-ROCIS
   Kantharuban Sivalingam : CASSCF convergence, NEVPT2, FIC-MRCI
   Bernardo de Souza      : ESD, SOC TD-DFT
   Georgi Stoychev        : AutoAux, RI-MP2 NMR
   Willem Van den Heuvel  : Paramagnetic NMR
   Boris Wezisla          : Elementary symmetry handling
   Frank Wennmohs         : Technical directorship


 We gratefully acknowledge several colleagues who have allowed us to
 interface, adapt or use parts of their codes:
   Stefan Grimme, W. Hujo, H. Kruse, P. Pracht,  : VdW corrections, initial TS optimization,
                  C. Bannwarth, S. Ehlert          DFT functionals, gCP, sTDA/sTD-DF
   Ed Valeev, F. Pavosevic, A. Kumar             : LibInt (2-el integral package), F12 methods
   Garnet Chan, S. Sharma, J. Yang, R. Olivares  : DMRG
   Ulf Ekstrom                                   : XCFun DFT Library
   Mihaly Kallay                                 : mrcc  (arbitrary order and MRCC methods)
   Jiri Pittner, Ondrej Demel                    : Mk-CCSD
   Frank Weinhold                                : gennbo (NPA and NBO analysis)
   Christopher J. Cramer and Donald G. Truhlar   : smd solvation model
   Lars Goerigk                                  : TD-DFT with DH, B97 family of functionals
   V. Asgeirsson, H. Jonsson                     : NEB implementation
   FAccTs GmbH                                   : IRC, NEB, NEB-TS, DLPNO-Multilevel, CI-OPT
                                                   MM, QMMM, 2- and 3-layer-ONIOM, Crystal-QMMM,
                                                   LR-CPCM, SF, NACMEs, symmetry and pop. for TD-DFT,
                                                   nearIR, NL-DFT gradient (VV10), updates on ESD,
                                                   ML-optimized integration grids
   S Lehtola, MJT Oliveira, MAL Marques          : LibXC Library
   Liviu Ungur et al                             : ANISO software


 Your calculation uses the libint2 library for the computation of 2-el integrals
 For citations please refer to: http://libint.valeyev.net

 Your ORCA version has been built with support for libXC version: 5.1.0
 For citations please refer to: https://tddft.org/programs/libxc/

 This ORCA versions uses:
   CBLAS   interface :  Fast vector & matrix operations
   LAPACKE interface :  Fast linear algebra routines
   SCALAPACK package :  Parallel linear algebra routines
   Shared memory     :  Shared parallel matrices
   BLAS/LAPACK       :  OpenBLAS 0.3.15  USE64BITINT DYNAMIC_ARCH NO_AFFINITY Haswell SINGLE_THREADED
        Core in use  :  Haswell
   Copyright (c) 2011-2014, The OpenBLAS Project


Your calculation utilizes the atom-pairwise dispersion correction
with the Becke-Johnson damping scheme (D3BJ)
Cite in your paper:
S.Grimme, S.Ehrlich, L.Goerigk, J Comput Chem, (2011), 32, 1456–1465 
S.Grimme, J.Antony, S.Ehrlich and H.Krieg, J.Chem.Phys., 132, (2010), 154104 
   

================================================================================

----- Orbital basis set information -----
Your calculation utilizes the basis: def2-TZVP
   F. Weigend and R. Ahlrichs, Phys. Chem. Chem. Phys. 7, 3297 (2005).

----- AuxJ basis set information -----
Your calculation utilizes the auxiliary basis: def2/J
   F. Weigend, Phys. Chem. Chem. Phys. 8, 1057 (2006).

================================================================================
                                        WARNINGS
                       Please study these warnings very carefully!
================================================================================



WARNING: Found flag for RIJCOSX approximation but no HF exchange needed!
  ===> : RIJCOSX  will be disabled and Split-RI-J is turned on

INFO   : the flag for use of the SHARK integral package has been found!

================================================================================
                                       INPUT FILE
================================================================================
NAME = TZVP_PBE_C1_wt_dlpno_pos.com
|  1> !PBE D3BJ RIJCOSX def2-TZVP def2/J TightSCF
|  2> *xyz 0 1 
|  3> C          4.49059        1.15590       -2.46929
|  4> C          4.30539        1.22276       -3.90832
|  5> C          4.63192        2.24637       -4.67096
|  6> N          4.54169        2.14399       -5.98714
|  7> N          5.08409        3.39358       -4.11855
|  8> H          4.92067        3.57050       -3.13587
|  9> H          5.25465        4.19739       -4.70696
| 10> H          3.82453        0.44911       -4.35093
| 11> H          4.34337        1.24932       -6.41665
| 12> H          4.67671        2.95662       -6.57411
| 13> C          5.94213        0.93950       -2.03689
| 14> H          3.86431        0.32853       -2.13661
| 15> H          4.07623        2.04999       -1.98901
| 16> H          6.32982        0.06401       -2.51451
| 17> H          5.98308        0.81426       -0.97504
| 18> H          6.52865        1.78889       -2.31873
| 19> *
| 20> 
| 21> %MaxCore 64000
| 22> 
| 23> %pal nprocs 4
| 24> end  
| 25> 
| 26> %scf
| 27>   MaxIter 150
| 28> end
| 29> 
| 30> 
| 31>                          ****END OF INPUT****
================================================================================

                       ****************************
                       * Single Point Calculation *
                       ****************************

---------------------------------
CARTESIAN COORDINATES (ANGSTROEM)
---------------------------------
  C      4.490590    1.155900   -2.469290
  C      4.305390    1.222760   -3.908320
  C      4.631920    2.246370   -4.670960
  N      4.541690    2.143990   -5.987140
  N      5.084090    3.393580   -4.118550
  H      4.920670    3.570500   -3.135870
  H      5.254650    4.197390   -4.706960
  H      3.824530    0.449110   -4.350930
  H      4.343370    1.249320   -6.416650
  H      4.676710    2.956620   -6.574110
  C      5.942130    0.939500   -2.036890
  H      3.864310    0.328530   -2.136610
  H      4.076230    2.049990   -1.989010
  H      6.329820    0.064010   -2.514510
  H      5.983080    0.814260   -0.975040
  H      6.528650    1.788890   -2.318730

----------------------------
CARTESIAN COORDINATES (A.U.)
----------------------------
  NO LB      ZA    FRAG     MASS         X           Y           Z
   0 C     6.0000    0    12.011    8.485985    2.184334   -4.666282
   1 C     6.0000    0    12.011    8.136008    2.310682   -7.385654
   2 C     6.0000    0    12.011    8.753060    4.245024   -8.826835
   3 N     7.0000    0    14.007    8.582550    4.051554  -11.314055
   4 N     7.0000    0    14.007    9.607538    6.412937   -7.782932
   5 H     1.0000    0     1.008    9.298719    6.747267   -5.925935
   6 H     1.0000    0     1.008    9.929849    7.931918   -8.894865
   7 H     1.0000    0     1.008    7.227314    0.848695   -8.222066
   8 H     1.0000    0     1.008    8.207780    2.360873  -12.125711
   9 H     1.0000    0     1.008    8.837701    5.587202  -12.423267
  10 C     6.0000    0    12.011   11.228998    1.775398   -3.849164
  11 H     1.0000    0     1.008    7.302488    0.620832   -4.037608
  12 H     1.0000    0     1.008    7.702958    3.873920   -3.758684
  13 H     1.0000    0     1.008   11.961626    0.120961   -4.751735
  14 H     1.0000    0     1.008   11.306383    1.538728   -1.842559
  15 H     1.0000    0     1.008   12.337361    3.380512   -4.381765

--------------------------------
INTERNAL COORDINATES (ANGSTROEM)
--------------------------------
 C      0   0   0     0.000000000000     0.00000000     0.00000000
 C      1   0   0     1.452438170973     0.00000000     0.00000000
 C      2   1   0     1.317580753730   125.28453029     0.00000000
 N      3   2   1     1.323235772529   119.91566171   173.18826598
 N      3   2   1     1.351186627043   120.39112332   354.48821383
 H      5   3   2     1.011764184581   119.43884036   342.13850582
 H      5   3   2     1.010656993149   119.58539031   185.29632085
 H      2   1   3     1.012750845075   117.28263783   184.79039578
 H      4   3   2     1.012049441184   120.25788289   351.78722447
 H      4   3   2     1.011499727237   120.39384801   172.23558929
 C      1   2   3     1.529956565266   114.04780337   285.32676705
 H      1   2   3     1.089698920666   105.31614526   163.90058499
 H      1   2   3     1.096248154434   110.38507371    50.41661390
 H     11   1   2     1.070003336724   109.47101574   305.03093902
 H     11   1   2     1.069994104002   109.47140393   185.03055546
 H     11   1   2     1.070001340233   109.47108837    65.03054338

---------------------------
INTERNAL COORDINATES (A.U.)
---------------------------
 C      0   0   0     0.000000000000     0.00000000     0.00000000
 C      1   0   0     2.744710369593     0.00000000     0.00000000
 C      2   1   0     2.489866783875   125.28453029     0.00000000
 N      3   2   1     2.500553220687   119.91566171   173.18826598
 N      3   2   1     2.553372680928   120.39112332   354.48821383
 H      5   3   2     1.911957220967   119.43884036   342.13850582
 H      5   3   2     1.909864932383   119.58539031   185.29632085
 H      2   1   3     1.913821739089   117.28263783   184.79039578
 H      4   3   2     1.912496277825   120.25788289   351.78722447
 H      4   3   2     1.911457469013   120.39384801   172.23558929
 C      1   2   3     2.891198905147   114.04780337   285.32676705
 H      1   2   3     2.059232528488   105.31614526   163.90058499
 H      1   2   3     2.071608786697   110.38507371    50.41661390
 H     11   1   2     2.022013268790   109.47101574   305.03093902
 H     11   1   2     2.021995821475   109.47140393   185.03055546
 H     11   1   2     2.022009495969   109.47108837    65.03054338

---------------------
BASIS SET INFORMATION
---------------------
There are 3 groups of distinct atoms

 Group   1 Type C   : 11s6p2d1f contracted to 5s3p2d1f pattern {62111/411/11/1}
 Group   2 Type N   : 11s6p2d1f contracted to 5s3p2d1f pattern {62111/411/11/1}
 Group   3 Type H   : 5s1p contracted to 3s1p pattern {311/1}

Atom   0C    basis set group =>   1
Atom   1C    basis set group =>   1
Atom   2C    basis set group =>   1
Atom   3N    basis set group =>   2
Atom   4N    basis set group =>   2
Atom   5H    basis set group =>   3
Atom   6H    basis set group =>   3
Atom   7H    basis set group =>   3
Atom   8H    basis set group =>   3
Atom   9H    basis set group =>   3
Atom  10C    basis set group =>   1
Atom  11H    basis set group =>   3
Atom  12H    basis set group =>   3
Atom  13H    basis set group =>   3
Atom  14H    basis set group =>   3
Atom  15H    basis set group =>   3
---------------------------------
AUXILIARY/J BASIS SET INFORMATION
---------------------------------
There are 3 groups of distinct atoms

 Group   1 Type C   : 12s5p4d2f1g contracted to 6s4p3d1f1g pattern {711111/2111/211/2/1}
 Group   2 Type N   : 12s5p4d2f1g contracted to 6s4p3d1f1g pattern {711111/2111/211/2/1}
 Group   3 Type H   : 5s2p1d contracted to 3s1p1d pattern {311/2/1}

Atom   0C    basis set group =>   1
Atom   1C    basis set group =>   1
Atom   2C    basis set group =>   1
Atom   3N    basis set group =>   2
Atom   4N    basis set group =>   2
Atom   5H    basis set group =>   3
Atom   6H    basis set group =>   3
Atom   7H    basis set group =>   3
Atom   8H    basis set group =>   3
Atom   9H    basis set group =>   3
Atom  10C    basis set group =>   1
Atom  11H    basis set group =>   3
Atom  12H    basis set group =>   3
Atom  13H    basis set group =>   3
Atom  14H    basis set group =>   3
Atom  15H    basis set group =>   3


           ************************************************************
           *        Program running with 4 parallel MPI-processes     *
           *              working on a common directory               *
           ************************************************************
------------------------------------------------------------------------------
                           ORCA GTO INTEGRAL CALCULATION
                           -- RI-GTO INTEGRALS CHOSEN --
------------------------------------------------------------------------------
------------------------------------------------------------------------------
                   ___                                                        
                  /   \      - P O W E R E D   B Y -                         
                 /     \                                                     
                 |  |  |   _    _      __       _____    __    __             
                 |  |  |  | |  | |    /  \     |  _  \  |  |  /  |          
                  \  \/   | |  | |   /    \    | | | |  |  | /  /          
                 / \  \   | |__| |  /  /\  \   | |_| |  |  |/  /          
                |  |  |   |  __  | /  /__\  \  |    /   |      \           
                |  |  |   | |  | | |   __   |  |    \   |  |\   \          
                \     /   | |  | | |  |  |  |  | |\  \  |  | \   \       
                 \___/    |_|  |_| |__|  |__|  |_| \__\ |__|  \__/        
                                                                              
                      - O R C A' S   B I G   F R I E N D -                    
                                      &                                       
                       - I N T E G R A L  F E E D E R -                       
                                                                              
 v1 FN, 2020, v2 2021                                                         
------------------------------------------------------------------------------


Reading SHARK input file TZVP_PBE_C1_wt_dlpno_pos.SHARKINP.tmp ... ok
----------------------
SHARK INTEGRAL PACKAGE
----------------------

Number of atoms                             ...     16
Number of basis functions                   ...    246
Number of shells                            ...    106
Maximum angular momentum                    ...      3
Integral batch strategy                     ... SHARK/LIBINT Hybrid
RI-J (if used) integral strategy            ... SPLIT-RIJ (Revised 2003 algorithm where possible)
Printlevel                                  ...      1
Contraction scheme used                     ... SEGMENTED contraction
Coulomb Range Separation                    ... NOT USED
Exchange Range Separation                   ... NOT USED
Finite Nucleus Model                        ... NOT USED
Auxiliary Coulomb fitting basis             ... AVAILABLE
   # of basis functions in Aux-J            ...    404
   # of shells in Aux-J                     ...    140
   Maximum angular momentum in Aux-J        ...      4
Auxiliary J/K fitting basis                 ... NOT available
Auxiliary Correlation fitting basis         ... NOT available
Auxiliary 'external' fitting basis          ... NOT available
Integral threshold                          ...     2.500000e-11
Primitive cut-off                           ...     2.500000e-12
Primitive pair pre-selection threshold      ...     2.500000e-12

Calculating pre-screening integrals         ... done (  0.1 sec) Dimension = 106
Organizing shell pair data                  ... done (  0.0 sec)
Shell pair information
Total number of shell pairs                 ...      5671
Shell pairs after pre-screening             ...      5344
Total number of primitive shell pairs       ...     16452
Primitive shell pairs kept                  ...     12095
          la=0 lb=0:   1680 shell pairs
          la=1 lb=0:   1584 shell pairs
          la=1 lb=1:    390 shell pairs
          la=2 lb=0:    687 shell pairs
          la=2 lb=1:    326 shell pairs
          la=2 lb=2:     77 shell pairs
          la=3 lb=0:    343 shell pairs
          la=3 lb=1:    166 shell pairs
          la=3 lb=2:     70 shell pairs
          la=3 lb=3:     21 shell pairs

Calculating one electron integrals          ... done (  0.0 sec)
Calculating RI/J V-Matrix + Cholesky decomp.... done (  0.0 sec)
Calculating Nuclear repulsion               ... done (  0.0 sec) ENN=    248.609024405615 Eh

SHARK setup successfully completed in   0.2 seconds

Maximum memory used throughout the entire GTOINT-calculation: 13.9 MB


           ************************************************************
           *        Program running with 4 parallel MPI-processes     *
           *              working on a common directory               *
           ************************************************************
-------------------------------------------------------------------------------
                                 ORCA SCF
-------------------------------------------------------------------------------

------------
SCF SETTINGS
------------
Hamiltonian:
 Density Functional     Method          .... DFT(GTOs)
 Exchange Functional    Exchange        .... PBE
   PBE kappa parameter   XKappa         ....  0.804000
   PBE mue parameter    XMuePBE         ....  0.219520
 Correlation Functional Correlation     .... PBE
   PBE beta parameter  CBetaPBE         ....  0.066725
 LDA part of GGA corr.  LDAOpt          .... PW91-LDA
 Gradients option       PostSCFGGA      .... off
   Density functional embedding theory  .... OFF
   NL short-range parameter             ....  6.400000
 RI-approximation to the Coulomb term is turned on
   Number of AuxJ basis functions       .... 404


General Settings:
 Integral files         IntName         .... TZVP_PBE_C1_wt_dlpno_pos
 Hartree-Fock type      HFTyp           .... RHF
 Total Charge           Charge          ....    0
 Multiplicity           Mult            ....    1
 Number of Electrons    NEL             ....   48
 Basis Dimension        Dim             ....  246
 Nuclear Repulsion      ENuc            ....    248.6090244056 Eh

Convergence Acceleration:
 DIIS                   CNVDIIS         .... on
   Start iteration      DIISMaxIt       ....    12
   Startup error        DIISStart       ....  0.200000
   # of expansion vecs  DIISMaxEq       ....     5
   Bias factor          DIISBfac        ....   1.050
   Max. coefficient     DIISMaxC        ....  10.000
 Trust-Rad. Augm. Hess. CNVTRAH         .... auto
   Auto Start mean grad. ratio tolernc. ....  1.125000
   Auto Start start iteration           ....    20
   Auto Start num. interpolation iter.  ....    10
   Max. Number of Micro iterations      ....    16
   Max. Number of Macro iterations      .... Maxiter - #DIIS iter
   Number of Davidson start vectors     ....     2
   Converg. threshold I  (grad. norm)   ....   1.000e-05
   Converg. threshold II (energy diff.) ....   1.000e-08
   Grad. Scal. Fac. for Micro threshold ....   0.100
   Minimum threshold for Micro iter.    ....   0.010
   NR start threshold (gradient norm)   ....   0.001
   Initial trust radius                 ....   0.400
   Minimum AH scaling param. (alpha)    ....   1.000
   Maximum AH scaling param. (alpha)    .... 1000.000
   Orbital update algorithm             .... Taylor
   White noise on init. David. guess    .... on
   Maximum white noise                  ....   0.010
   Quad. conv. algorithm                .... NR
 SOSCF                  CNVSOSCF        .... on
   Start iteration      SOSCFMaxIt      ....   150
   Startup grad/error   SOSCFStart      ....  0.003300
 Level Shifting         CNVShift        .... on
   Level shift para.    LevelShift      ....    0.2500
   Turn off err/grad.   ShiftErr        ....    0.0010
 Zerner damping         CNVZerner       .... off
 Static damping         CNVDamp         .... on
   Fraction old density DampFac         ....    0.7000
   Max. Damping (<1)    DampMax         ....    0.9800
   Min. Damping (>=0)   DampMin         ....    0.0000
   Turn off err/grad.   DampErr         ....    0.1000
 Fernandez-Rico         CNVRico         .... off

SCF Procedure:
 Maximum # iterations   MaxIter         ....   150
 SCF integral mode      SCFMode         .... Direct
   Integral package                     .... SHARK and LIBINT hybrid scheme
 Reset frequency        DirectResetFreq ....    20
 Integral Threshold     Thresh          ....  2.500e-11 Eh
 Primitive CutOff       TCut            ....  2.500e-12 Eh

Convergence Tolerance:
 Convergence Check Mode ConvCheckMode   .... Total+1el-Energy
 Convergence forced     ConvForced      .... 0
 Energy Change          TolE            ....  1.000e-08 Eh
 1-El. energy change                    ....  1.000e-05 Eh
 Orbital Gradient       TolG            ....  1.000e-05
 Orbital Rotation angle TolX            ....  1.000e-05
 DIIS Error             TolErr          ....  5.000e-07


Diagonalization of the overlap matrix:
Smallest eigenvalue                        ... 9.616e-05
Time for diagonalization                   ...    0.017 sec
Threshold for overlap eigenvalues          ... 1.000e-08
Number of eigenvalues below threshold      ... 0
Time for construction of square roots      ...    0.010 sec
Total time needed                          ...    0.028 sec

Time for model grid setup =    0.094 sec

------------------------------
INITIAL GUESS: MODEL POTENTIAL
------------------------------
Loading Hartree-Fock densities                     ... done
Calculating cut-offs                               ... done
Initializing the effective Hamiltonian             ... done
Setting up the integral package (SHARK)            ... done
Starting the Coulomb interaction                   ... done (   0.1 sec)
Reading the grid                                   ... done
Mapping shells                                     ... done
Starting the XC term evaluation                    ... done (   0.1 sec)
  promolecular density results
     # of electrons  =     47.995757400
     EX              =    -36.588038681
     EC              =     -1.577759248
     EX+EC           =    -38.165797929
Transforming the Hamiltonian                       ... done (   0.0 sec)
Diagonalizing the Hamiltonian                      ... done (   0.0 sec)
Back transforming the eigenvectors                 ... done (   0.0 sec)
Now organizing SCF variables                       ... done
                      ------------------
                      INITIAL GUESS DONE (   0.3 sec)
                      ------------------
-------------------
DFT GRID GENERATION
-------------------

General Integration Accuracy     IntAcc      ... 4.388
Radial Grid Type                 RadialGrid  ... OptM3 with GC (2021)
Angular Grid (max. ang.)         AngularGrid ... 4 (Lebedev-302)
Angular grid pruning method      GridPruning ... 4 (adaptive)
Weight generation scheme         WeightScheme... Becke
Basis function cutoff            BFCut       ... 1.0000e-11
Integration weight cutoff        WCut        ... 1.0000e-14
Angular grids for H and He will be reduced by one unit
Partially contracted basis set               ... off
Rotationally invariant grid construction     ... off

Total number of grid points                  ...    68291
Total number of batches                      ...     1076
Average number of points per batch           ...       63
Average number of grid points per atom       ...     4268
Time for grid setup =    0.415 sec

--------------
SCF ITERATIONS
--------------
ITER       Energy         Delta-E        Max-DP      RMS-DP      [F,P]     Damp
               ***  Starting incremental Fock matrix formation  ***
  0   -267.3422953110   0.000000000000 0.07708785  0.00163966  0.2434104 0.7000
  1   -267.5043081349  -0.162012823995 0.05789300  0.00131974  0.1072876 0.7000
                               ***Turning on DIIS***
  2   -267.5564770011  -0.052168866155 0.07722189  0.00210415  0.0266402 0.0000
  3   -267.6332204671  -0.076743465947 0.05339606  0.00094099  0.0656480 0.0000
  4   -267.6595641632  -0.026343696118 0.02204531  0.00040662  0.0160200 0.0000
  5   -267.6613413554  -0.001777192192 0.00898061  0.00019050  0.0047305 0.0000
                      *** Initiating the SOSCF procedure ***
                           *** Shutting down DIIS ***
                      *** Re-Reading the Fockian *** 
                      *** Removing any level shift *** 
ITER      Energy       Delta-E        Grad      Rot      Max-DP    RMS-DP
  6   -267.66147231  -0.0001309565  0.000373  0.000373  0.003989  0.000088
               *** Restarting incremental Fock matrix formation ***
  7   -267.66148712  -0.0000148039  0.000213  0.001692  0.003673  0.000090
  8   -267.66148869  -0.0000015754  0.000139  0.000423  0.001336  0.000026
  9   -267.66148923  -0.0000005373  0.000084  0.000506  0.001056  0.000026
 10   -267.66148958  -0.0000003557  0.000022  0.000033  0.000183  0.000004
 11   -267.66148960  -0.0000000202  0.000017  0.000097  0.000260  0.000005
 12   -267.66148963  -0.0000000300  0.000005  0.000016  0.000042  0.000001
 13   -267.66148964  -0.0000000011  0.000005  0.000009  0.000024  0.000001
 14   -267.66148964  -0.0000000040  0.000003  0.000013  0.000010  0.000000
 15   -267.66148964   0.0000000024  0.000005  0.000008  0.000009  0.000000
                 **** Energy Check signals convergence ****
              ***Rediagonalizing the Fockian in SOSCF/NRSCF***

               *****************************************************
               *                     SUCCESS                       *
               *           SCF CONVERGED AFTER  16 CYCLES          *
               *****************************************************


----------------
TOTAL SCF ENERGY
----------------

Total Energy       :         -267.66148964 Eh           -7283.43942 eV

Components:
Nuclear Repulsion  :          248.60902441 Eh            6764.99548 eV
Electronic Energy  :         -516.27051405 Eh          -14048.43490 eV
One Electron Energy:         -853.69382722 Eh          -23230.19004 eV
Two Electron Energy:          337.42331317 Eh            9181.75514 eV

Virial components:
Potential Energy   :         -534.81563846 Eh          -14553.07339 eV
Kinetic Energy     :          267.15414882 Eh            7269.63397 eV
Virial Ratio       :            2.00189906


DFT components:
N(Alpha)           :       23.999954259205 electrons
N(Beta)            :       23.999954259205 electrons
N(Total)           :       47.999908518411 electrons
E(X)               :      -37.548554793986 Eh       
E(C)               :       -1.583627799068 Eh       
E(XC)              :      -39.132182593054 Eh       
DFET-embed. en.    :        0.000000000000 Eh       

---------------
SCF CONVERGENCE
---------------

  Last Energy change         ...   -3.8572e-09  Tolerance :   1.0000e-08
  Last MAX-Density change    ...    7.6233e-06  Tolerance :   1.0000e-07
  Last RMS-Density change    ...    1.3982e-07  Tolerance :   5.0000e-09
  Last Orbital Gradient      ...    1.4446e-07  Tolerance :   1.0000e-05
  Last Orbital Rotation      ...    6.5317e-07  Tolerance :   1.0000e-05

             **** THE GBW FILE WAS UPDATED (TZVP_PBE_C1_wt_dlpno_pos.gbw) ****
             **** DENSITY TZVP_PBE_C1_wt_dlpno_pos.scfp WAS UPDATED ****
             **** ENERGY FILE WAS UPDATED (TZVP_PBE_C1_wt_dlpno_pos.en.tmp) ****
             **** THE GBW FILE WAS UPDATED (TZVP_PBE_C1_wt_dlpno_pos.gbw) ****
             **** DENSITY TZVP_PBE_C1_wt_dlpno_pos.scfp WAS UPDATED ****
----------------
ORBITAL ENERGIES
----------------

  NO   OCC          E(Eh)            E(eV) 
   0   2.0000     -13.982919      -380.4946 
   1   2.0000     -13.980624      -380.4321 
   2   2.0000      -9.914656      -269.7915 
   3   2.0000      -9.852835      -268.1093 
   4   2.0000      -9.839503      -267.7465 
   5   2.0000      -9.799462      -266.6569 
   6   2.0000      -0.875831       -23.8326 
   7   2.0000      -0.792444       -21.5635 
   8   2.0000      -0.696528       -18.9535 
   9   2.0000      -0.624243       -16.9865 
  10   2.0000      -0.555244       -15.1090 
  11   2.0000      -0.519529       -14.1371 
  12   2.0000      -0.488541       -13.2939 
  13   2.0000      -0.454344       -12.3633 
  14   2.0000      -0.425674       -11.5832 
  15   2.0000      -0.386746       -10.5239 
  16   2.0000      -0.370248       -10.0750 
  17   2.0000      -0.341943        -9.3047 
  18   2.0000      -0.333920        -9.0864 
  19   2.0000      -0.305249        -8.3062 
  20   2.0000      -0.283082        -7.7031 
  21   2.0000      -0.271985        -7.4011 
  22   2.0000      -0.219792        -5.9808 
  23   2.0000      -0.127062        -3.4575 
  24   0.0000      -0.001449        -0.0394 
  25   0.0000       0.028193         0.7672 
  26   0.0000       0.040703         1.1076 
  27   0.0000       0.053986         1.4690 
  28   0.0000       0.063874         1.7381 
  29   0.0000       0.075597         2.0571 
  30   0.0000       0.087233         2.3737 
  31   0.0000       0.108019         2.9393 
  32   0.0000       0.127138         3.4596 
  33   0.0000       0.133708         3.6384 
  34   0.0000       0.144111         3.9215 
  35   0.0000       0.156848         4.2680 
  36   0.0000       0.176782         4.8105 
  37   0.0000       0.187926         5.1137 
  38   0.0000       0.204158         5.5554 
  39   0.0000       0.216606         5.8941 
  40   0.0000       0.224819         6.1176 
  41   0.0000       0.237314         6.4576 
  42   0.0000       0.262925         7.1545 
  43   0.0000       0.273148         7.4327 
  44   0.0000       0.291069         7.9204 
  45   0.0000       0.303861         8.2685 
  46   0.0000       0.312578         8.5057 
  47   0.0000       0.318124         8.6566 
  48   0.0000       0.336571         9.1586 
  49   0.0000       0.349165         9.5013 
  50   0.0000       0.359765         9.7897 
  51   0.0000       0.380837        10.3631 
  52   0.0000       0.392427        10.6785 
  53   0.0000       0.402419        10.9504 
  54   0.0000       0.405243        11.0272 
  55   0.0000       0.421463        11.4686 
  56   0.0000       0.424835        11.5603 
  57   0.0000       0.436534        11.8787 
  58   0.0000       0.450662        12.2631 
  59   0.0000       0.458030        12.4636 
  60   0.0000       0.463907        12.6235 
  61   0.0000       0.477804        13.0017 
  62   0.0000       0.490440        13.3455 
  63   0.0000       0.502102        13.6629 
  64   0.0000       0.509262        13.8577 
  65   0.0000       0.535292        14.5660 
  66   0.0000       0.552006        15.0208 
  67   0.0000       0.575694        15.6654 
  68   0.0000       0.586477        15.9589 
  69   0.0000       0.617885        16.8135 
  70   0.0000       0.620825        16.8935 
  71   0.0000       0.656014        17.8511 
  72   0.0000       0.699853        19.0440 
  73   0.0000       0.736739        20.0477 
  74   0.0000       0.744570        20.2608 
  75   0.0000       0.770868        20.9764 
  76   0.0000       0.785438        21.3729 
  77   0.0000       0.830566        22.6008 
  78   0.0000       0.859360        23.3844 
  79   0.0000       0.882227        24.0066 
  80   0.0000       0.892802        24.2944 
  81   0.0000       0.918291        24.9880 
  82   0.0000       0.939016        25.5519 
  83   0.0000       0.970278        26.4026 
  84   0.0000       1.007293        27.4098 
  85   0.0000       1.032304        28.0904 
  86   0.0000       1.046608        28.4796 
  87   0.0000       1.063953        28.9516 
  88   0.0000       1.070202        29.1217 
  89   0.0000       1.106108        30.0987 
  90   0.0000       1.123458        30.5709 
  91   0.0000       1.169330        31.8191 
  92   0.0000       1.193799        32.4849 
  93   0.0000       1.231468        33.5099 
  94   0.0000       1.252394        34.0794 
  95   0.0000       1.282633        34.9022 
  96   0.0000       1.303589        35.4725 
  97   0.0000       1.348925        36.7061 
  98   0.0000       1.378199        37.5027 
  99   0.0000       1.427680        38.8492 
 100   0.0000       1.444577        39.3089 
 101   0.0000       1.450675        39.4749 
 102   0.0000       1.459744        39.7216 
 103   0.0000       1.487055        40.4648 
 104   0.0000       1.505846        40.9762 
 105   0.0000       1.514206        41.2036 
 106   0.0000       1.516035        41.2534 
 107   0.0000       1.539718        41.8979 
 108   0.0000       1.547830        42.1186 
 109   0.0000       1.554235        42.2929 
 110   0.0000       1.562914        42.5290 
 111   0.0000       1.603515        43.6339 
 112   0.0000       1.628503        44.3138 
 113   0.0000       1.636456        44.5302 
 114   0.0000       1.652362        44.9631 
 115   0.0000       1.661625        45.2151 
 116   0.0000       1.698132        46.2085 
 117   0.0000       1.721860        46.8542 
 118   0.0000       1.762215        47.9523 
 119   0.0000       1.783222        48.5239 
 120   0.0000       1.801536        49.0223 
 121   0.0000       1.829250        49.7764 
 122   0.0000       1.836629        49.9772 
 123   0.0000       1.848350        50.2962 
 124   0.0000       1.875603        51.0377 
 125   0.0000       1.931712        52.5646 
 126   0.0000       1.961246        53.3682 
 127   0.0000       1.995553        54.3018 
 128   0.0000       2.017076        54.8874 
 129   0.0000       2.067076        56.2480 
 130   0.0000       2.085541        56.7504 
 131   0.0000       2.113767        57.5185 
 132   0.0000       2.120927        57.7134 
 133   0.0000       2.200587        59.8810 
 134   0.0000       2.230848        60.7045 
 135   0.0000       2.244251        61.0692 
 136   0.0000       2.256321        61.3976 
 137   0.0000       2.286583        62.2211 
 138   0.0000       2.298337        62.5409 
 139   0.0000       2.305471        62.7350 
 140   0.0000       2.328277        63.3556 
 141   0.0000       2.355899        64.1073 
 142   0.0000       2.383401        64.8556 
 143   0.0000       2.408607        65.5415 
 144   0.0000       2.414438        65.7002 
 145   0.0000       2.470546        67.2270 
 146   0.0000       2.481813        67.5336 
 147   0.0000       2.496867        67.9432 
 148   0.0000       2.529393        68.8283 
 149   0.0000       2.555942        69.5507 
 150   0.0000       2.563640        69.7602 
 151   0.0000       2.598842        70.7181 
 152   0.0000       2.617562        71.2275 
 153   0.0000       2.620698        71.3128 
 154   0.0000       2.641296        71.8733 
 155   0.0000       2.655121        72.2495 
 156   0.0000       2.684123        73.0387 
 157   0.0000       2.745460        74.7078 
 158   0.0000       2.788463        75.8779 
 159   0.0000       2.811073        76.4932 
 160   0.0000       2.829073        76.9830 
 161   0.0000       2.843313        77.3705 
 162   0.0000       2.881962        78.4222 
 163   0.0000       2.889980        78.6404 
 164   0.0000       2.918977        79.4294 
 165   0.0000       2.945790        80.1590 
 166   0.0000       2.973674        80.9178 
 167   0.0000       3.000869        81.6578 
 168   0.0000       3.016055        82.0710 
 169   0.0000       3.029717        82.4428 
 170   0.0000       3.064817        83.3979 
 171   0.0000       3.074105        83.6506 
 172   0.0000       3.098939        84.3264 
 173   0.0000       3.101156        84.3868 
 174   0.0000       3.135533        85.3222 
 175   0.0000       3.160758        86.0086 
 176   0.0000       3.196710        86.9869 
 177   0.0000       3.215654        87.5024 
 178   0.0000       3.251200        88.4696 
 179   0.0000       3.257078        88.6296 
 180   0.0000       3.262682        88.7821 
 181   0.0000       3.297987        89.7428 
 182   0.0000       3.320530        90.3562 
 183   0.0000       3.358372        91.3859 
 184   0.0000       3.385538        92.1252 
 185   0.0000       3.440628        93.6242 
 186   0.0000       3.443800        93.7106 
 187   0.0000       3.473834        94.5278 
 188   0.0000       3.513589        95.6096 
 189   0.0000       3.524089        95.8953 
 190   0.0000       3.564595        96.9976 
 191   0.0000       3.614334        98.3510 
 192   0.0000       3.646271        99.2201 
 193   0.0000       3.654713        99.4498 
 194   0.0000       3.725237       101.3688 
 195   0.0000       3.743407       101.8633 
 196   0.0000       3.773653       102.6863 
 197   0.0000       3.792980       103.2122 
 198   0.0000       3.827442       104.1500 
 199   0.0000       3.853872       104.8692 
 200   0.0000       3.923547       106.7651 
 201   0.0000       4.035283       109.8056 
 202   0.0000       4.038301       109.8878 
 203   0.0000       4.078410       110.9792 
 204   0.0000       4.127672       112.3197 
 205   0.0000       4.155265       113.0705 
 206   0.0000       4.237205       115.3002 
 207   0.0000       4.260636       115.9378 
 208   0.0000       4.315172       117.4218 
 209   0.0000       4.318904       117.5234 
 210   0.0000       4.380224       119.1920 
 211   0.0000       4.417505       120.2064 
 212   0.0000       4.474333       121.7528 
 213   0.0000       4.494035       122.2889 
 214   0.0000       4.538287       123.4931 
 215   0.0000       4.558715       124.0489 
 216   0.0000       4.577236       124.5529 
 217   0.0000       4.610885       125.4686 
 218   0.0000       4.662580       126.8752 
 219   0.0000       4.708656       128.1291 
 220   0.0000       4.734776       128.8398 
 221   0.0000       4.754516       129.3770 
 222   0.0000       4.814336       131.0047 
 223   0.0000       4.820406       131.1699 
 224   0.0000       4.838011       131.6490 
 225   0.0000       4.906386       133.5096 
 226   0.0000       4.984766       135.6424 
 227   0.0000       5.048204       137.3686 
 228   0.0000       5.059319       137.6711 
 229   0.0000       5.123076       139.4060 
 230   0.0000       5.172816       140.7595 
 231   0.0000       5.179795       140.9494 
 232   0.0000       5.207875       141.7135 
 233   0.0000       5.260338       143.1411 
 234   0.0000       5.350416       145.5922 
 235   0.0000       5.366463       146.0289 
 236   0.0000       5.549428       151.0076 
 237   0.0000       5.870108       159.7337 
 238   0.0000       5.972939       162.5319 
 239   0.0000       6.020956       163.8385 
 240   0.0000      22.165340       603.1496 
 241   0.0000      22.323401       607.4506 
 242   0.0000      22.595435       614.8530 
 243   0.0000      23.186862       630.9466 
 244   0.0000      31.663096       861.5966 
 245   0.0000      31.836060       866.3032 

                    ********************************
                    * MULLIKEN POPULATION ANALYSIS *
                    ********************************

-----------------------
MULLIKEN ATOMIC CHARGES
-----------------------
   0 C :   -0.208109
   1 C :   -0.315056
   2 C :    0.293128
   3 N :   -0.425533
   4 N :   -0.443018
   5 H :    0.232189
   6 H :    0.202006
   7 H :    0.080218
   8 H :    0.230599
   9 H :    0.202694
  10 C :   -0.290654
  11 H :    0.083301
  12 H :    0.063721
  13 H :    0.097195
  14 H :    0.095215
  15 H :    0.102104
Sum of atomic charges:   -0.0000000

--------------------------------
MULLIKEN REDUCED ORBITAL CHARGES
--------------------------------
  0 C s       :     3.169220  s :     3.169220
      pz      :     0.952883  p :     2.926987
      px      :     0.942775
      py      :     1.031329
      dz2     :     0.016240  d :     0.106080
      dxz     :     0.040377
      dyz     :     0.020686
      dx2y2   :     0.007387
      dxy     :     0.021389
      f0      :     0.001071  f :     0.005822
      f+1     :     0.001702
      f-1     :     0.001011
      f+2     :     0.000367
      f-2     :     0.000214
      f+3     :     0.000750
      f-3     :     0.000706
  1 C s       :     3.166990  s :     3.166990
      pz      :     0.909729  p :     3.060056
      px      :     1.184078
      py      :     0.966249
      dz2     :     0.014492  d :     0.080492
      dxz     :     0.021289
      dyz     :     0.027924
      dx2y2   :     0.007114
      dxy     :     0.009673
      f0      :     0.001001  f :     0.007518
      f+1     :     0.001246
      f-1     :     0.002107
      f+2     :     0.000437
      f-2     :     0.000867
      f+3     :     0.000892
      f-3     :     0.000968
  2 C s       :     2.996356  s :     2.996356
      pz      :     0.779818  p :     2.500968
      px      :     0.883566
      py      :     0.837584
      dz2     :     0.037933  d :     0.192258
      dxz     :     0.046814
      dyz     :     0.043302
      dx2y2   :     0.030339
      dxy     :     0.033871
      f0      :     0.002207  f :     0.017289
      f+1     :     0.003302
      f-1     :     0.004762
      f+2     :     0.001339
      f-2     :     0.001894
      f+3     :     0.001608
      f-3     :     0.002177
  3 N s       :     3.413907  s :     3.413907
      pz      :     1.115684  p :     3.972374
      px      :     1.749566
      py      :     1.107124
      dz2     :     0.005529  d :     0.035757
      dxz     :     0.010569
      dyz     :     0.014630
      dx2y2   :     0.003632
      dxy     :     0.001398
      f0      :     0.000600  f :     0.003496
      f+1     :     0.000736
      f-1     :     0.000626
      f+2     :     0.000614
      f-2     :     0.000145
      f+3     :     0.000318
      f-3     :     0.000457
  4 N s       :     3.447655  s :     3.447655
      pz      :     1.113799  p :     3.958341
      px      :     1.703966
      py      :     1.140576
      dz2     :     0.006985  d :     0.033768
      dxz     :     0.003039
      dyz     :     0.008186
      dx2y2   :     0.008120
      dxy     :     0.007437
      f0      :     0.000492  f :     0.003254
      f+1     :     0.000261
      f-1     :     0.000503
      f+2     :     0.000501
      f-2     :     0.000264
      f+3     :     0.000549
      f-3     :     0.000683
  5 H s       :     0.729050  s :     0.729050
      pz      :     0.018912  p :     0.038761
      px      :     0.013044
      py      :     0.006805
  6 H s       :     0.759471  s :     0.759471
      pz      :     0.009312  p :     0.038523
      px      :     0.014145
      py      :     0.015066
  7 H s       :     0.894081  s :     0.894081
      pz      :     0.005974  p :     0.025701
      px      :     0.009789
      py      :     0.009937
  8 H s       :     0.731365  s :     0.731365
      pz      :     0.007868  p :     0.038036
      px      :     0.013874
      py      :     0.016294
  9 H s       :     0.758843  s :     0.758843
      pz      :     0.010634  p :     0.038463
      px      :     0.014156
      py      :     0.013673
 10 C s       :     3.201882  s :     3.201882
      pz      :     1.029316  p :     3.036065
      px      :     0.955100
      py      :     1.051649
      dz2     :     0.013642  d :     0.049570
      dxz     :     0.010406
      dyz     :     0.001385
      dx2y2   :     0.004601
      dxy     :     0.019535
      f0      :     0.000831  f :     0.003137
      f+1     :     0.000435
      f-1     :     0.000087
      f+2     :     0.000270
      f-2     :     0.000124
      f+3     :     0.000748
      f-3     :     0.000642
 11 H s       :     0.895069  s :     0.895069
      pz      :     0.005739  p :     0.021630
      px      :     0.007409
      py      :     0.008483
 12 H s       :     0.915046  s :     0.915046
      pz      :     0.006415  p :     0.021233
      px      :     0.006043
      py      :     0.008775
 13 H s       :     0.880957  s :     0.880957
      pz      :     0.006302  p :     0.021847
      px      :     0.006145
      py      :     0.009400
 14 H s       :     0.882912  s :     0.882912
      pz      :     0.011576  p :     0.021873
      px      :     0.005297
      py      :     0.005001
 15 H s       :     0.875989  s :     0.875989
      pz      :     0.005491  p :     0.021907
      px      :     0.007424
      py      :     0.008992


                     *******************************
                     * LOEWDIN POPULATION ANALYSIS *
                     *******************************

----------------------
LOEWDIN ATOMIC CHARGES
----------------------
   0 C :   -0.314612
   1 C :   -0.284181
   2 C :   -0.469094
   3 N :    0.000022
   4 N :   -0.009545
   5 H :    0.171533
   6 H :    0.157895
   7 H :    0.120784
   8 H :    0.176272
   9 H :    0.158466
  10 C :   -0.308826
  11 H :    0.141551
  12 H :    0.123832
  13 H :    0.115019
  14 H :    0.108482
  15 H :    0.112402

-------------------------------
LOEWDIN REDUCED ORBITAL CHARGES
-------------------------------
  0 C s       :     2.759590  s :     2.759590
      pz      :     1.041282  p :     3.065610
      px      :     1.012954
      py      :     1.011375
      dz2     :     0.086892  d :     0.445290
      dxz     :     0.131830
      dyz     :     0.087285
      dx2y2   :     0.051289
      dxy     :     0.087994
      f0      :     0.006995  f :     0.044123
      f+1     :     0.011736
      f-1     :     0.006839
      f+2     :     0.004577
      f-2     :     0.005114
      f+3     :     0.004825
      f-3     :     0.004036
  1 C s       :     2.734802  s :     2.734802
      pz      :     1.009543  p :     3.110449
      px      :     1.066692
      py      :     1.034214
      dz2     :     0.102788  d :     0.392015
      dxz     :     0.084483
      dyz     :     0.132775
      dx2y2   :     0.030921
      dxy     :     0.041049
      f0      :     0.007552  f :     0.046915
      f+1     :     0.006987
      f-1     :     0.013762
      f+2     :     0.005634
      f-2     :     0.005437
      f+3     :     0.004561
      f-3     :     0.002981
  2 C s       :     2.691325  s :     2.691325
      pz      :     0.955981  p :     2.819872
      px      :     0.875161
      py      :     0.988730
      dz2     :     0.195579  d :     0.841821
      dxz     :     0.191278
      dyz     :     0.186644
      dx2y2   :     0.127547
      dxy     :     0.140773
      f0      :     0.015564  f :     0.116076
      f+1     :     0.020393
      f-1     :     0.033138
      f+2     :     0.012919
      f-2     :     0.014533
      f+3     :     0.009417
      f-3     :     0.010112
  3 N s       :     2.958850  s :     2.958850
      pz      :     1.169218  p :     3.873251
      px      :     1.565813
      py      :     1.138221
      dz2     :     0.033720  d :     0.155916
      dxz     :     0.035230
      dyz     :     0.075500
      dx2y2   :     0.008979
      dxy     :     0.002486
      f0      :     0.002659  f :     0.011961
      f+1     :     0.003124
      f-1     :     0.003013
      f+2     :     0.001250
      f-2     :     0.000330
      f+3     :     0.000501
      f-3     :     0.001085
  4 N s       :     2.973617  s :     2.973617
      pz      :     1.142230  p :     3.877714
      px      :     1.559272
      py      :     1.176212
      dz2     :     0.036276  d :     0.147064
      dxz     :     0.010017
      dyz     :     0.047759
      dx2y2   :     0.026950
      dxy     :     0.026061
      f0      :     0.001232  f :     0.011150
      f+1     :     0.000867
      f-1     :     0.002283
      f+2     :     0.001738
      f-2     :     0.001137
      f+3     :     0.001769
      f-3     :     0.002125
  5 H s       :     0.717367  s :     0.717367
      pz      :     0.055994  p :     0.111099
      px      :     0.037165
      py      :     0.017941
  6 H s       :     0.732508  s :     0.732508
      pz      :     0.030952  p :     0.109597
      px      :     0.037458
      py      :     0.041187
  7 H s       :     0.802842  s :     0.802842
      pz      :     0.019568  p :     0.076374
      px      :     0.028661
      py      :     0.028145
  8 H s       :     0.715827  s :     0.715827
      pz      :     0.020531  p :     0.107901
      px      :     0.037760
      py      :     0.049610
  9 H s       :     0.732056  s :     0.732056
      pz      :     0.027705  p :     0.109477
      px      :     0.038331
      py      :     0.043442
 10 C s       :     2.825648  s :     2.825648
      pz      :     1.062302  p :     3.198021
      px      :     1.056778
      py      :     1.078940
      dz2     :     0.069179  d :     0.259791
      dxz     :     0.047720
      dyz     :     0.017442
      dx2y2   :     0.041326
      dxy     :     0.084125
      f0      :     0.004213  f :     0.025367
      f+1     :     0.003338
      f-1     :     0.000669
      f+2     :     0.004672
      f-2     :     0.003775
      f+3     :     0.004841
      f-3     :     0.003858
 11 H s       :     0.800100  s :     0.800100
      pz      :     0.014948  p :     0.058349
      px      :     0.019114
      py      :     0.024287
 12 H s       :     0.817289  s :     0.817289
      pz      :     0.017043  p :     0.058879
      px      :     0.015952
      py      :     0.025884
 13 H s       :     0.819695  s :     0.819695
      pz      :     0.019290  p :     0.065286
      px      :     0.017308
      py      :     0.028688
 14 H s       :     0.826085  s :     0.826085
      pz      :     0.035035  p :     0.065433
      px      :     0.015036
      py      :     0.015361
 15 H s       :     0.821757  s :     0.821757
      pz      :     0.016647  p :     0.065841
      px      :     0.020886
      py      :     0.028308


                      *****************************
                      * MAYER POPULATION ANALYSIS *
                      *****************************

  NA   - Mulliken gross atomic population
  ZA   - Total nuclear charge
  QA   - Mulliken gross atomic charge
  VA   - Mayer's total valence
  BVA  - Mayer's bonded valence
  FA   - Mayer's free valence

  ATOM       NA         ZA         QA         VA         BVA        FA
  0 C      6.2081     6.0000    -0.2081     4.0583     4.0583    -0.0000
  1 C      6.3151     6.0000    -0.3151     3.7841     3.7841    -0.0000
  2 C      5.7069     6.0000     0.2931     4.0833     4.0833    -0.0000
  3 N      7.4255     7.0000    -0.4255     3.1110     3.1110    -0.0000
  4 N      7.4430     7.0000    -0.4430     3.1128     3.1128    -0.0000
  5 H      0.7678     1.0000     0.2322     0.9605     0.9605     0.0000
  6 H      0.7980     1.0000     0.2020     0.9696     0.9696    -0.0000
  7 H      0.9198     1.0000     0.0802     0.9873     0.9873    -0.0000
  8 H      0.7694     1.0000     0.2306     0.9599     0.9599     0.0000
  9 H      0.7973     1.0000     0.2027     0.9705     0.9705    -0.0000
 10 C      6.2907     6.0000    -0.2907     3.8195     3.8195    -0.0000
 11 H      0.9167     1.0000     0.0833     0.9754     0.9754     0.0000
 12 H      0.9363     1.0000     0.0637     0.9627     0.9627    -0.0000
 13 H      0.9028     1.0000     0.0972     0.9953     0.9953    -0.0000
 14 H      0.9048     1.0000     0.0952     0.9756     0.9756    -0.0000
 15 H      0.8979     1.0000     0.1021     0.9869     0.9869     0.0000

  Mayer bond orders larger than 0.100000
B(  0-C ,  1-C ) :   1.0693 B(  0-C , 10-C ) :   0.9835 B(  0-C , 11-H ) :   0.9548 
B(  0-C , 12-H ) :   0.9547 B(  1-C ,  2-C ) :   1.6646 B(  1-C ,  7-H ) :   0.9739 
B(  2-C ,  3-N ) :   1.1676 B(  2-C ,  4-N ) :   1.1516 B(  3-N ,  8-H ) :   0.9177 
B(  3-N ,  9-H ) :   0.9183 B(  4-N ,  5-H ) :   0.9087 B(  4-N ,  6-H ) :   0.9245 
B( 10-C , 13-H ) :   0.9719 B( 10-C , 14-H ) :   0.9642 B( 10-C , 15-H ) :   0.9720 


-------
TIMINGS
-------

Total SCF time: 0 days 0 hours 0 min 8 sec 

Total time                  ....       8.686 sec
Sum of individual times     ....       8.448 sec  ( 97.3%)

Fock matrix formation       ....       7.444 sec  ( 85.7%)
  Split-RI-J                ....       2.009 sec  ( 27.0% of F)
  XC integration            ....       5.369 sec  ( 72.1% of F)
    Basis function eval.    ....       1.830 sec  ( 34.1% of XC)
    Density eval.           ....       1.396 sec  ( 26.0% of XC)
    XC-Functional eval.     ....       0.268 sec  (  5.0% of XC)
    XC-Potential eval.      ....       1.612 sec  ( 30.0% of XC)
Diagonalization             ....       0.097 sec  (  1.1%)
Density matrix formation    ....       0.007 sec  (  0.1%)
Population analysis         ....       0.012 sec  (  0.1%)
Initial guess               ....       0.213 sec  (  2.4%)
Orbital Transformation      ....       0.000 sec  (  0.0%)
Orbital Orthonormalization  ....       0.000 sec  (  0.0%)
DIIS solution               ....       0.061 sec  (  0.7%)
SOSCF solution              ....       0.104 sec  (  1.2%)
Grid generation             ....       0.509 sec  (  5.9%)

Maximum memory used throughout the entire SCF-calculation: 27.7 MB


-------------------------------------------------------------------------------
                          DFT DISPERSION CORRECTION                            
                                                                               
                              DFTD3 V3.1  Rev 1                                
                          USING Becke-Johnson damping                          
-------------------------------------------------------------------------------
The PBE functional is recognized
Active option DFTDOPT                   ...         4   

molecular C6(AA) [au] = 1933.264128 


            DFT-D V3
 parameters
 s6 scaling factor         :     1.0000 
 a1 scaling factor         :     0.4289 
 s8 scaling factor         :     0.7875 
 a2 scaling factor         :     4.4407 
 ad hoc parameters k1-k3   :    16.0000     1.3333    -4.0000 

 Edisp/kcal,au: -8.092855668054  -0.012896785052 
 E6   /kcal   :  -5.838165815 
 E8   /kcal   :  -2.254689853 
 % E8         :  27.860250388 

-------------------------   ----------------
Dispersion correction           -0.012896785
-------------------------   ----------------


-------------------------   --------------------
FINAL SINGLE POINT ENERGY      -267.674386426039
-------------------------   --------------------


                            ***************************************
                            *     ORCA property calculations      *
                            ***************************************

                                    ---------------------
                                    Active property flags
                                    ---------------------
   (+) Dipole Moment


------------------------------------------------------------------------------
                       ORCA ELECTRIC PROPERTIES CALCULATION
------------------------------------------------------------------------------

Dipole Moment Calculation                       ... on
Quadrupole Moment Calculation                   ... off
Polarizability Calculation                      ... off
GBWName                                         ... TZVP_PBE_C1_wt_dlpno_pos.gbw
Electron density file                           ... TZVP_PBE_C1_wt_dlpno_pos.scfp
The origin for moment calculation is the CENTER OF MASS  = ( 9.163260,  3.554204 -7.330027)

-------------
DIPOLE MOMENT
-------------
                                X             Y             Z
Electronic contribution:     -1.25603       2.03782      -4.21437
Nuclear contribution   :      1.23062      -1.24683       3.43056
                        -----------------------------------------
Total Dipole Moment    :     -0.02542       0.79099      -0.78381
                        -----------------------------------------
Magnitude (a.u.)       :      1.11385
Magnitude (Debye)      :      2.83118



--------------------
Rotational spectrum 
--------------------
 
Rotational constants in cm-1:     0.231477     0.075416     0.065327 
Rotational constants in MHz :  6939.497385  2260.912204  1958.442932 

 Dipole components along the rotational axes: 
x,y,z [a.u.] :    -1.028545     0.427393     0.009538 
x,y,z [Debye]:    -2.614353     1.086348     0.024244 

 

Timings for individual modules:

Sum of individual times         ...        9.328 sec (=   0.155 min)
GTO integral calculation        ...        0.437 sec (=   0.007 min)   4.7 %
SCF iterations                  ...        8.891 sec (=   0.148 min)  95.3 %
                             ****ORCA TERMINATED NORMALLY****
TOTAL RUN TIME: 0 days 0 hours 0 minutes 9 seconds 747 msec
