
                                        *****************
                                        * O   R   C   A *
                                        *****************

                                            #,                                       
                                            ###                                      
                                            ####                                     
                                            #####                                    
                                            ######                                   
                                           ########,                                 
                                     ,,################,,,,,                         
                               ,,#################################,,                 
                          ,,##########################################,,             
                       ,#########################################, ''#####,          
                    ,#############################################,,   '####,        
                  ,##################################################,,,,####,       
                ,###########''''           ''''###############################       
              ,#####''   ,,,,##########,,,,          '''####'''          '####       
            ,##' ,,,,###########################,,,                        '##       
           ' ,,###''''                  '''############,,,                           
         ,,##''                                '''############,,,,        ,,,,,,###''
      ,#''                                            '''#######################'''  
     '                                                          ''''####''''         
             ,#######,   #######,   ,#######,      ##                                
            ,#'     '#,  ##    ##  ,#'     '#,    #''#        ######   ,####,        
            ##       ##  ##   ,#'  ##            #'  '#       #        #'  '#        
            ##       ##  #######   ##           ,######,      #####,   #    #        
            '#,     ,#'  ##    ##  '#,     ,#' ,#      #,         ##   #,  ,#        
             '#######'   ##     ##  '#######'  #'      '#     #####' # '####'        



                  #######################################################
                  #                        -***-                        #
                  #          Department of theory and spectroscopy      #
                  #    Directorship and core code : Frank Neese         #
                  #        Max Planck Institute fuer Kohlenforschung    #
                  #                Kaiser Wilhelm Platz 1               #
                  #                 D-45470 Muelheim/Ruhr               #
                  #                      Germany                        #
                  #                                                     #
                  #                  All rights reserved                #
                  #                        -***-                        #
                  #######################################################


                         Program Version 5.0.0 -  RELEASE  -
                                (SVN: $Rev: 19529$)
                ($Date: 2021-06-28 11:36:33 +0200 (Mo, 28 Jun 2021) $)


 With contributions from (in alphabetic order):
   Daniel Aravena         : Magnetic Suceptibility
   Michael Atanasov       : Ab Initio Ligand Field Theory (pilot matlab implementation)
   Alexander A. Auer      : GIAO ZORA, VPT2 properties, NMR spectrum
   Ute Becker             : Parallelization
   Giovanni Bistoni       : ED, misc. LED, open-shell LED, HFLD
   Martin Brehm           : Molecular dynamics
   Dmytro Bykov           : SCF Hessian
   Vijay G. Chilkuri      : MRCI spin determinant printing, contributions to CSF-ICE
   Dipayan Datta          : RHF DLPNO-CCSD density
   Achintya Kumar Dutta   : EOM-CC, STEOM-CC
   Dmitry Ganyushin       : Spin-Orbit,Spin-Spin,Magnetic field MRCI
   Miquel Garcia          : C-PCM Hessian, Gaussian charge scheme
   Yang Guo               : DLPNO-NEVPT2, F12-NEVPT2, CIM, IAO-localization
   Andreas Hansen         : Spin unrestricted coupled pair/coupled cluster methods
   Benjamin Helmich-Paris : MC-RPA, TRAH-SCF, COSX integrals
   Lee Huntington         : MR-EOM, pCC
   Robert Izsak           : Overlap fitted RIJCOSX, COSX-SCS-MP3, EOM
   Marcus Kettner         : VPT2
   Christian Kollmar      : KDIIS, OOCD, Brueckner-CCSD(T), CCSD density, CASPT2, CASPT2-K
   Simone Kossmann        : Meta GGA functionals, TD-DFT gradient, OOMP2, MP2 Hessian
   Martin Krupicka        : Initial AUTO-CI
   Lucas Lang             : DCDCAS
   Marvin Lechner         : AUTO-CI (C++ implementation), FIC-MRCC
   Dagmar Lenk            : GEPOL surface, SMD
   Dimitrios Liakos       : Extrapolation schemes; Compound Job, initial MDCI parallelization
   Dimitrios Manganas     : Further ROCIS development; embedding schemes
   Dimitrios Pantazis     : SARC Basis sets
   Anastasios Papadopoulos: AUTO-CI, single reference methods and gradients
   Taras Petrenko         : DFT Hessian,TD-DFT gradient, ASA, ECA, R-Raman, ABS, FL, XAS/XES, NRVS
   Peter Pinski           : DLPNO-MP2, DLPNO-MP2 Gradient
   Christoph Reimann      : Effective Core Potentials
   Marius Retegan         : Local ZFS, SOC
   Christoph Riplinger    : Optimizer, TS searches, QM/MM, DLPNO-CCSD(T), (RO)-DLPNO pert. Triples
   Tobias Risthaus        : Range-separated hybrids, TD-DFT gradient, RPA, STAB
   Michael Roemelt        : Original ROCIS implementation
   Masaaki Saitow         : Open-shell DLPNO-CCSD energy and density
   Barbara Sandhoefer     : DKH picture change effects
   Avijit Sen             : IP-ROCIS
   Kantharuban Sivalingam : CASSCF convergence, NEVPT2, FIC-MRCI
   Bernardo de Souza      : ESD, SOC TD-DFT
   Georgi Stoychev        : AutoAux, RI-MP2 NMR
   Willem Van den Heuvel  : Paramagnetic NMR
   Boris Wezisla          : Elementary symmetry handling
   Frank Wennmohs         : Technical directorship


 We gratefully acknowledge several colleagues who have allowed us to
 interface, adapt or use parts of their codes:
   Stefan Grimme, W. Hujo, H. Kruse, P. Pracht,  : VdW corrections, initial TS optimization,
                  C. Bannwarth, S. Ehlert          DFT functionals, gCP, sTDA/sTD-DF
   Ed Valeev, F. Pavosevic, A. Kumar             : LibInt (2-el integral package), F12 methods
   Garnet Chan, S. Sharma, J. Yang, R. Olivares  : DMRG
   Ulf Ekstrom                                   : XCFun DFT Library
   Mihaly Kallay                                 : mrcc  (arbitrary order and MRCC methods)
   Jiri Pittner, Ondrej Demel                    : Mk-CCSD
   Frank Weinhold                                : gennbo (NPA and NBO analysis)
   Christopher J. Cramer and Donald G. Truhlar   : smd solvation model
   Lars Goerigk                                  : TD-DFT with DH, B97 family of functionals
   V. Asgeirsson, H. Jonsson                     : NEB implementation
   FAccTs GmbH                                   : IRC, NEB, NEB-TS, DLPNO-Multilevel, CI-OPT
                                                   MM, QMMM, 2- and 3-layer-ONIOM, Crystal-QMMM,
                                                   LR-CPCM, SF, NACMEs, symmetry and pop. for TD-DFT,
                                                   nearIR, NL-DFT gradient (VV10), updates on ESD,
                                                   ML-optimized integration grids
   S Lehtola, MJT Oliveira, MAL Marques          : LibXC Library
   Liviu Ungur et al                             : ANISO software


 Your calculation uses the libint2 library for the computation of 2-el integrals
 For citations please refer to: http://libint.valeyev.net

 Your ORCA version has been built with support for libXC version: 5.1.0
 For citations please refer to: https://tddft.org/programs/libxc/

 This ORCA versions uses:
   CBLAS   interface :  Fast vector & matrix operations
   LAPACKE interface :  Fast linear algebra routines
   SCALAPACK package :  Parallel linear algebra routines
   Shared memory     :  Shared parallel matrices
   BLAS/LAPACK       :  OpenBLAS 0.3.15  USE64BITINT DYNAMIC_ARCH NO_AFFINITY Haswell SINGLE_THREADED
        Core in use  :  Haswell
   Copyright (c) 2011-2014, The OpenBLAS Project


Your calculation utilizes the atom-pairwise dispersion correction
with the Becke-Johnson damping scheme (D3BJ)
Cite in your paper:
S.Grimme, S.Ehrlich, L.Goerigk, J Comput Chem, (2011), 32, 1456–1465 
S.Grimme, J.Antony, S.Ehrlich and H.Krieg, J.Chem.Phys., 132, (2010), 154104 
   

================================================================================

----- Orbital basis set information -----
Your calculation utilizes the basis: def2-TZVP
   F. Weigend and R. Ahlrichs, Phys. Chem. Chem. Phys. 7, 3297 (2005).

----- AuxJ basis set information -----
Your calculation utilizes the auxiliary basis: def2/J
   F. Weigend, Phys. Chem. Chem. Phys. 8, 1057 (2006).

================================================================================
                                        WARNINGS
                       Please study these warnings very carefully!
================================================================================


INFO   : the flag for use of the SHARK integral package has been found!

================================================================================
                                       INPUT FILE
================================================================================
NAME = TZVP_B3LYP_C1_wt_dlpno_neg.com
|  1> !B3LYP D3BJ RIJCOSX def2-TZVP def2/J TightSCF 
|  2> *xyz 0 1 
|  3> C         -0.77894        0.17197        1.80496
|  4> C         -0.60249       -0.63071        0.49224
|  5> H          0.31389       -1.24035        0.60350
|  6> H         -0.36383        0.11332       -0.30117
|  7> F         -1.71206       -1.37684        0.20253
|  8> H         -1.65864        0.77733        1.73736
|  9> H          0.07466        0.79896        1.95712
| 10> H         -0.87474       -0.50584        2.62734
| 11> *
| 12> %MaxCore 64000
| 13> 
| 14> %pal nprocs 4 
| 15> end  
| 16> 
| 17> %scf
| 18>   MaxIter 150
| 19> end
| 20> 
| 21> 
| 22>                          ****END OF INPUT****
================================================================================

                       ****************************
                       * Single Point Calculation *
                       ****************************

---------------------------------
CARTESIAN COORDINATES (ANGSTROEM)
---------------------------------
  C     -0.778940    0.171970    1.804960
  C     -0.602490   -0.630710    0.492240
  H      0.313890   -1.240350    0.603500
  H     -0.363830    0.113320   -0.301170
  F     -1.712060   -1.376840    0.202530
  H     -1.658640    0.777330    1.737360
  H      0.074660    0.798960    1.957120
  H     -0.874740   -0.505840    2.627340

----------------------------
CARTESIAN COORDINATES (A.U.)
----------------------------
  NO LB      ZA    FRAG     MASS         X           Y           Z
   0 C     6.0000    0    12.011   -1.471983    0.324976    3.410880
   1 C     6.0000    0    12.011   -1.138541   -1.191869    0.930199
   2 H     1.0000    0     1.008    0.593166   -2.343922    1.140450
   3 H     1.0000    0     1.008   -0.687539    0.214144   -0.569129
   4 F     9.0000    0    18.998   -3.235325   -2.601851    0.382726
   5 H     1.0000    0     1.008   -3.134375    1.468941    3.283135
   6 H     1.0000    0     1.008    0.141087    1.509816    3.698421
   7 H     1.0000    0     1.008   -1.653019   -0.955899    4.964953

--------------------------------
INTERNAL COORDINATES (ANGSTROEM)
--------------------------------
 C      0   0   0     0.000000000000     0.00000000     0.00000000
 C      1   0   0     1.548761951786     0.00000000     0.00000000
 H      2   1   0     1.106251337446   107.14208476     0.00000000
 H      2   1   3     1.113570233349   106.38189140   247.86336931
 F      2   1   3     1.368132831965   111.69904673   124.39446908
 H      1   2   3     1.070001205420   109.47126364   180.00070714
 H      1   2   3     1.070000974626   109.47143415    59.99995464
 H      1   2   3     1.070006028254   109.47119049   300.00076547

---------------------------
INTERNAL COORDINATES (A.U.)
---------------------------
 C      0   0   0     0.000000000000     0.00000000     0.00000000
 C      1   0   0     2.926735935513     0.00000000     0.00000000
 H      2   1   0     2.090512063056   107.14208476     0.00000000
 H      2   1   3     2.104342771916   106.38189140   247.86336931
 F      2   1   3     2.585396367240   111.69904673   124.39446908
 H      1   2   3     2.022009241209   109.47126364   180.00070714
 H      1   2   3     2.022008805071   109.47143415    59.99995464
 H      1   2   3     2.022018355045   109.47119049   300.00076547

---------------------
BASIS SET INFORMATION
---------------------
There are 3 groups of distinct atoms

 Group   1 Type C   : 11s6p2d1f contracted to 5s3p2d1f pattern {62111/411/11/1}
 Group   2 Type H   : 5s1p contracted to 3s1p pattern {311/1}
 Group   3 Type F   : 11s6p2d1f contracted to 5s3p2d1f pattern {62111/411/11/1}

Atom   0C    basis set group =>   1
Atom   1C    basis set group =>   1
Atom   2H    basis set group =>   2
Atom   3H    basis set group =>   2
Atom   4F    basis set group =>   3
Atom   5H    basis set group =>   2
Atom   6H    basis set group =>   2
Atom   7H    basis set group =>   2
---------------------------------
AUXILIARY/J BASIS SET INFORMATION
---------------------------------
There are 3 groups of distinct atoms

 Group   1 Type C   : 12s5p4d2f1g contracted to 6s4p3d1f1g pattern {711111/2111/211/2/1}
 Group   2 Type H   : 5s2p1d contracted to 3s1p1d pattern {311/2/1}
 Group   3 Type F   : 12s5p4d2f1g contracted to 6s4p3d1f1g pattern {711111/2111/211/2/1}

Atom   0C    basis set group =>   1
Atom   1C    basis set group =>   1
Atom   2H    basis set group =>   2
Atom   3H    basis set group =>   2
Atom   4F    basis set group =>   3
Atom   5H    basis set group =>   2
Atom   6H    basis set group =>   2
Atom   7H    basis set group =>   2


           ************************************************************
           *        Program running with 4 parallel MPI-processes     *
           *              working on a common directory               *
           ************************************************************
------------------------------------------------------------------------------
                           ORCA GTO INTEGRAL CALCULATION
                           -- RI-GTO INTEGRALS CHOSEN --
------------------------------------------------------------------------------
------------------------------------------------------------------------------
                   ___                                                        
                  /   \      - P O W E R E D   B Y -                         
                 /     \                                                     
                 |  |  |   _    _      __       _____    __    __             
                 |  |  |  | |  | |    /  \     |  _  \  |  |  /  |          
                  \  \/   | |  | |   /    \    | | | |  |  | /  /          
                 / \  \   | |__| |  /  /\  \   | |_| |  |  |/  /          
                |  |  |   |  __  | /  /__\  \  |    /   |      \           
                |  |  |   | |  | | |   __   |  |    \   |  |\   \          
                \     /   | |  | | |  |  |  |  | |\  \  |  | \   \       
                 \___/    |_|  |_| |__|  |__|  |_| \__\ |__|  \__/        
                                                                              
                      - O R C A' S   B I G   F R I E N D -                    
                                      &                                       
                       - I N T E G R A L  F E E D E R -                       
                                                                              
 v1 FN, 2020, v2 2021                                                         
------------------------------------------------------------------------------


Reading SHARK input file TZVP_B3LYP_C1_wt_dlpno_neg.SHARKINP.tmp ... ok
----------------------
SHARK INTEGRAL PACKAGE
----------------------

Number of atoms                             ...      8
Number of basis functions                   ...    123
Number of shells                            ...     53
Maximum angular momentum                    ...      3
Integral batch strategy                     ... SHARK/LIBINT Hybrid
RI-J (if used) integral strategy            ... SPLIT-RIJ (Revised 2003 algorithm where possible)
Printlevel                                  ...      1
Contraction scheme used                     ... SEGMENTED contraction
Coulomb Range Separation                    ... NOT USED
Exchange Range Separation                   ... NOT USED
Finite Nucleus Model                        ... NOT USED
Auxiliary Coulomb fitting basis             ... AVAILABLE
   # of basis functions in Aux-J            ...    202
   # of shells in Aux-J                     ...     70
   Maximum angular momentum in Aux-J        ...      4
Auxiliary J/K fitting basis                 ... NOT available
Auxiliary Correlation fitting basis         ... NOT available
Auxiliary 'external' fitting basis          ... NOT available
Integral threshold                          ...     2.500000e-11
Primitive cut-off                           ...     2.500000e-12
Primitive pair pre-selection threshold      ...     2.500000e-12

Calculating pre-screening integrals         ... done (  0.1 sec) Dimension = 53
Organizing shell pair data                  ... done (  0.0 sec)
Shell pair information
Total number of shell pairs                 ...      1431
Shell pairs after pre-screening             ...      1410
Total number of primitive shell pairs       ...      4176
Primitive shell pairs kept                  ...      3490
          la=0 lb=0:    452 shell pairs
          la=1 lb=0:    416 shell pairs
          la=1 lb=1:    105 shell pairs
          la=2 lb=0:    177 shell pairs
          la=2 lb=1:     84 shell pairs
          la=2 lb=2:     21 shell pairs
          la=3 lb=0:     89 shell pairs
          la=3 lb=1:     42 shell pairs
          la=3 lb=2:     18 shell pairs
          la=3 lb=3:      6 shell pairs

Calculating one electron integrals          ... done (  0.0 sec)
Calculating RI/J V-Matrix + Cholesky decomp.... done (  0.0 sec)
Calculating Nuclear repulsion               ... done (  0.0 sec) ENN=     79.022121046631 Eh

SHARK setup successfully completed in   0.2 seconds

Maximum memory used throughout the entire GTOINT-calculation: 13.8 MB


           ************************************************************
           *        Program running with 4 parallel MPI-processes     *
           *              working on a common directory               *
           ************************************************************
-------------------------------------------------------------------------------
                                 ORCA SCF
-------------------------------------------------------------------------------

------------
SCF SETTINGS
------------
Hamiltonian:
 Density Functional     Method          .... DFT(GTOs)
 Exchange Functional    Exchange        .... B88
   X-Alpha parameter    XAlpha          ....  0.666667
   Becke's b parameter  XBeta           ....  0.004200
 Correlation Functional Correlation     .... LYP
 LDA part of GGA corr.  LDAOpt          .... VWN-5
 Gradients option       PostSCFGGA      .... off
 Hybrid DFT is turned on
   Fraction HF Exchange ScalHFX         ....  0.200000
   Scaling of DF-GGA-X  ScalDFX         ....  0.720000
   Scaling of DF-GGA-C  ScalDFC         ....  0.810000
   Scaling of DF-LDA-C  ScalLDAC        ....  1.000000
   Perturbative correction              ....  0.000000
   Density functional embedding theory  .... OFF
   NL short-range parameter             ....  4.800000
 RI-approximation to the Coulomb term is turned on
   Number of AuxJ basis functions       .... 202
   RIJ-COSX (HFX calculated with COS-X)).... on


General Settings:
 Integral files         IntName         .... TZVP_B3LYP_C1_wt_dlpno_neg
 Hartree-Fock type      HFTyp           .... RHF
 Total Charge           Charge          ....    0
 Multiplicity           Mult            ....    1
 Number of Electrons    NEL             ....   26
 Basis Dimension        Dim             ....  123
 Nuclear Repulsion      ENuc            ....     79.0221210466 Eh

Convergence Acceleration:
 DIIS                   CNVDIIS         .... on
   Start iteration      DIISMaxIt       ....    12
   Startup error        DIISStart       ....  0.200000
   # of expansion vecs  DIISMaxEq       ....     5
   Bias factor          DIISBfac        ....   1.050
   Max. coefficient     DIISMaxC        ....  10.000
 Trust-Rad. Augm. Hess. CNVTRAH         .... auto
   Auto Start mean grad. ratio tolernc. ....  1.125000
   Auto Start start iteration           ....    20
   Auto Start num. interpolation iter.  ....    10
   Max. Number of Micro iterations      ....    16
   Max. Number of Macro iterations      .... Maxiter - #DIIS iter
   Number of Davidson start vectors     ....     2
   Converg. threshold I  (grad. norm)   ....   1.000e-05
   Converg. threshold II (energy diff.) ....   1.000e-08
   Grad. Scal. Fac. for Micro threshold ....   0.100
   Minimum threshold for Micro iter.    ....   0.010
   NR start threshold (gradient norm)   ....   0.001
   Initial trust radius                 ....   0.400
   Minimum AH scaling param. (alpha)    ....   1.000
   Maximum AH scaling param. (alpha)    .... 1000.000
   Orbital update algorithm             .... Taylor
   White noise on init. David. guess    .... on
   Maximum white noise                  ....   0.010
   Quad. conv. algorithm                .... NR
 SOSCF                  CNVSOSCF        .... on
   Start iteration      SOSCFMaxIt      ....   150
   Startup grad/error   SOSCFStart      ....  0.003300
 Level Shifting         CNVShift        .... on
   Level shift para.    LevelShift      ....    0.2500
   Turn off err/grad.   ShiftErr        ....    0.0010
 Zerner damping         CNVZerner       .... off
 Static damping         CNVDamp         .... on
   Fraction old density DampFac         ....    0.7000
   Max. Damping (<1)    DampMax         ....    0.9800
   Min. Damping (>=0)   DampMin         ....    0.0000
   Turn off err/grad.   DampErr         ....    0.1000
 Fernandez-Rico         CNVRico         .... off

SCF Procedure:
 Maximum # iterations   MaxIter         ....   150
 SCF integral mode      SCFMode         .... Direct
   Integral package                     .... SHARK and LIBINT hybrid scheme
 Reset frequency        DirectResetFreq ....    20
 Integral Threshold     Thresh          ....  2.500e-11 Eh
 Primitive CutOff       TCut            ....  2.500e-12 Eh

Convergence Tolerance:
 Convergence Check Mode ConvCheckMode   .... Total+1el-Energy
 Convergence forced     ConvForced      .... 0
 Energy Change          TolE            ....  1.000e-08 Eh
 1-El. energy change                    ....  1.000e-05 Eh
 Orbital Gradient       TolG            ....  1.000e-05
 Orbital Rotation angle TolX            ....  1.000e-05
 DIIS Error             TolErr          ....  5.000e-07


Diagonalization of the overlap matrix:
Smallest eigenvalue                        ... 6.186e-04
Time for diagonalization                   ...    0.004 sec
Threshold for overlap eigenvalues          ... 1.000e-08
Number of eigenvalues below threshold      ... 0
Time for construction of square roots      ...    0.004 sec
Total time needed                          ...    0.009 sec

Time for model grid setup =    0.037 sec

------------------------------
INITIAL GUESS: MODEL POTENTIAL
------------------------------
Loading Hartree-Fock densities                     ... done
Calculating cut-offs                               ... done
Initializing the effective Hamiltonian             ... done
Setting up the integral package (SHARK)            ... done
Starting the Coulomb interaction                   ... done (   0.0 sec)
Reading the grid                                   ... done
Mapping shells                                     ... done
Starting the XC term evaluation                    ... done (   0.0 sec)
  promolecular density results
     # of electrons  =     25.997371235
     EX              =    -21.805186907
     EC              =     -0.869494070
     EX+EC           =    -22.674680976
Transforming the Hamiltonian                       ... done (   0.0 sec)
Diagonalizing the Hamiltonian                      ... done (   0.0 sec)
Back transforming the eigenvectors                 ... done (   0.0 sec)
Now organizing SCF variables                       ... done
                      ------------------
                      INITIAL GUESS DONE (   0.1 sec)
                      ------------------
-------------------
DFT GRID GENERATION
-------------------

General Integration Accuracy     IntAcc      ... 4.388
Radial Grid Type                 RadialGrid  ... OptM3 with GC (2021)
Angular Grid (max. ang.)         AngularGrid ... 4 (Lebedev-302)
Angular grid pruning method      GridPruning ... 4 (adaptive)
Weight generation scheme         WeightScheme... Becke
Basis function cutoff            BFCut       ... 1.0000e-11
Integration weight cutoff        WCut        ... 1.0000e-14
Angular grids for H and He will be reduced by one unit
Partially contracted basis set               ... off
Rotationally invariant grid construction     ... off

Total number of grid points                  ...    34550
Total number of batches                      ...      545
Average number of points per batch           ...       63
Average number of grid points per atom       ...     4319
Time for grid setup =    0.205 sec

--------------------
COSX GRID GENERATION
--------------------

GRIDX 1
-------
General Integration Accuracy     IntAcc      ... 3.816
Radial Grid Type                 RadialGrid  ... OptM3 with GC (2021)
Angular Grid (max. ang.)         AngularGrid ... 1 (Lebedev-50)
Angular grid pruning method      GridPruning ... 4 (adaptive)
Weight generation scheme         WeightScheme... Becke
Basis function cutoff            BFCut       ... 1.0000e-11
Integration weight cutoff        WCut        ... 1.0000e-14
Angular grids for H and He will be reduced by one unit
Partially contracted basis set               ... on
Rotationally invariant grid construction     ... off

Total number of grid points                  ...     4455
Total number of batches                      ...       74
Average number of points per batch           ...       60
Average number of grid points per atom       ...      557
UseSFitting                                  ... on

GRIDX 2
-------
General Integration Accuracy     IntAcc      ... 4.020
Radial Grid Type                 RadialGrid  ... OptM3 with GC (2021)
Angular Grid (max. ang.)         AngularGrid ... 2 (Lebedev-110)
Angular grid pruning method      GridPruning ... 4 (adaptive)
Weight generation scheme         WeightScheme... Becke
Basis function cutoff            BFCut       ... 1.0000e-11
Integration weight cutoff        WCut        ... 1.0000e-14
Angular grids for H and He will be reduced by one unit
Partially contracted basis set               ... on
Rotationally invariant grid construction     ... off

Total number of grid points                  ...     9503
Total number of batches                      ...      153
Average number of points per batch           ...       62
Average number of grid points per atom       ...     1188
UseSFitting                                  ... on

GRIDX 3
-------
General Integration Accuracy     IntAcc      ... 4.338
Radial Grid Type                 RadialGrid  ... OptM3 with GC (2021)
Angular Grid (max. ang.)         AngularGrid ... 3 (Lebedev-194)
Angular grid pruning method      GridPruning ... 4 (adaptive)
Weight generation scheme         WeightScheme... Becke
Basis function cutoff            BFCut       ... 1.0000e-11
Integration weight cutoff        WCut        ... 1.0000e-14
Angular grids for H and He will be reduced by one unit
Partially contracted basis set               ... on
Rotationally invariant grid construction     ... off

Total number of grid points                  ...    20889
Total number of batches                      ...      330
Average number of points per batch           ...       63
Average number of grid points per atom       ...     2611
UseSFitting                                  ... on

Time for X-Grid setup             =    0.181 sec

--------------
SCF ITERATIONS
--------------
ITER       Energy         Delta-E        Max-DP      RMS-DP      [F,P]     Damp
               ***  Starting incremental Fock matrix formation  ***
  0   -178.9506457960   0.000000000000 0.04217178  0.00122888  0.2039098 0.7000
  1   -178.9924186108  -0.041772814830 0.02482081  0.00090265  0.1061166 0.7000
                               ***Turning on DIIS***
  2   -179.0098843512  -0.017465740341 0.03639216  0.00153444  0.0397813 0.0000
  3   -179.0348139381  -0.024929586939 0.01747085  0.00062657  0.0595668 0.0000
  4   -179.0415748462  -0.006760908071 0.00319946  0.00016856  0.0099613 0.0000
  5   -179.0418204954  -0.000245649218 0.00143646  0.00007298  0.0038898 0.0000
                      *** Initiating the SOSCF procedure ***
                           *** Shutting down DIIS ***
                      *** Re-Reading the Fockian *** 
                      *** Removing any level shift *** 
ITER      Energy       Delta-E        Grad      Rot      Max-DP    RMS-DP
  6   -179.04184384  -0.0000233398  0.000246  0.000246  0.000560  0.000027
               *** Restarting incremental Fock matrix formation ***
  7   -179.04184785  -0.0000040187  0.000069  0.000185  0.000397  0.000017
  8   -179.04184795  -0.0000000976  0.000042  0.000040  0.000079  0.000004
  9   -179.04184799  -0.0000000398  0.000014  0.000025  0.000051  0.000003
 10   -179.04184799  -0.0000000035  0.000006  0.000005  0.000011  0.000000
 11   -179.04184800  -0.0000000009  0.000004  0.000004  0.000008  0.000000
                  ***Gradient check signals convergence***
              ***Rediagonalizing the Fockian in SOSCF/NRSCF***

               *****************************************************
               *                     SUCCESS                       *
               *           SCF CONVERGED AFTER  12 CYCLES          *
               *****************************************************

Old exchange energy                            =     -4.440872689 Eh
New exchange energy                            =     -4.440873219 Eh
Exchange energy change after final integration =     -0.000000531 Eh
Total energy after final integration           =   -179.041848526 Eh
Final COS-X integration done in                =     0.693 sec

----------------
TOTAL SCF ENERGY
----------------

Total Energy       :         -179.04184853 Eh           -4871.97638 eV

Components:
Nuclear Repulsion  :           79.02212105 Eh            2150.30123 eV
Electronic Energy  :         -258.06396957 Eh           -7022.27762 eV
One Electron Energy:         -401.53494829 Eh          -10926.32143 eV
Two Electron Energy:          143.47097872 Eh            3904.04381 eV
Max COSX asymmetry :            0.00000129 Eh               0.00004 eV

Virial components:
Potential Energy   :         -357.38200988 Eh           -9724.85889 eV
Kinetic Energy     :          178.34016136 Eh            4852.88251 eV
Virial Ratio       :            2.00393454


DFT components:
N(Alpha)           :       13.000010954350 electrons
N(Beta)            :       13.000010954350 electrons
N(Total)           :       26.000021908699 electrons
E(X)               :      -17.644931860035 Eh       
E(C)               :       -1.032300009190 Eh       
E(XC)              :      -18.677231869225 Eh       
DFET-embed. en.    :        0.000000000000 Eh       

---------------
SCF CONVERGENCE
---------------

  Last Energy change         ...   -1.1903e-10  Tolerance :   1.0000e-08
  Last MAX-Density change    ...    5.5511e-16  Tolerance :   1.0000e-07
  Last RMS-Density change    ...    1.6010e-17  Tolerance :   5.0000e-09
  Last Orbital Gradient      ...    9.4641e-07  Tolerance :   1.0000e-05
  Last Orbital Rotation      ...    1.3220e-06  Tolerance :   1.0000e-05

             **** THE GBW FILE WAS UPDATED (TZVP_B3LYP_C1_wt_dlpno_neg.gbw) ****
             **** DENSITY TZVP_B3LYP_C1_wt_dlpno_neg.scfp WAS UPDATED ****
             **** ENERGY FILE WAS UPDATED (TZVP_B3LYP_C1_wt_dlpno_neg.en.tmp) ****
             **** THE GBW FILE WAS UPDATED (TZVP_B3LYP_C1_wt_dlpno_neg.gbw) ****
             **** DENSITY TZVP_B3LYP_C1_wt_dlpno_neg.scfp WAS UPDATED ****
----------------
ORBITAL ENERGIES
----------------

  NO   OCC          E(Eh)            E(eV) 
   0   2.0000     -24.666693      -671.2149 
   1   2.0000     -10.247537      -278.8496 
   2   2.0000     -10.162402      -276.5330 
   3   2.0000      -1.198517       -32.6133 
   4   2.0000      -0.761375       -20.7181 
   5   2.0000      -0.631579       -17.1861 
   6   2.0000      -0.508278       -13.8309 
   7   2.0000      -0.494663       -13.4605 
   8   2.0000      -0.457103       -12.4384 
   9   2.0000      -0.405015       -11.0210 
  10   2.0000      -0.401265       -10.9190 
  11   2.0000      -0.334569        -9.1041 
  12   2.0000      -0.332383        -9.0446 
  13   0.0000       0.041003         1.1157 
  14   0.0000       0.078950         2.1483 
  15   0.0000       0.095269         2.5924 
  16   0.0000       0.097877         2.6634 
  17   0.0000       0.113124         3.0783 
  18   0.0000       0.128172         3.4877 
  19   0.0000       0.164432         4.4744 
  20   0.0000       0.196553         5.3485 
  21   0.0000       0.226056         6.1513 
  22   0.0000       0.250314         6.8114 
  23   0.0000       0.270450         7.3593 
  24   0.0000       0.305429         8.3112 
  25   0.0000       0.366971         9.9858 
  26   0.0000       0.387967        10.5571 
  27   0.0000       0.404680        11.0119 
  28   0.0000       0.421375        11.4662 
  29   0.0000       0.443538        12.0693 
  30   0.0000       0.483645        13.1607 
  31   0.0000       0.489654        13.3242 
  32   0.0000       0.542086        14.7509 
  33   0.0000       0.555335        15.1114 
  34   0.0000       0.619724        16.8635 
  35   0.0000       0.622675        16.9438 
  36   0.0000       0.727993        19.8097 
  37   0.0000       0.752585        20.4789 
  38   0.0000       0.831942        22.6383 
  39   0.0000       0.842951        22.9379 
  40   0.0000       0.924498        25.1569 
  41   0.0000       0.962165        26.1818 
  42   0.0000       0.992834        27.0164 
  43   0.0000       1.045426        28.4475 
  44   0.0000       1.059203        28.8224 
  45   0.0000       1.092525        29.7291 
  46   0.0000       1.129500        30.7353 
  47   0.0000       1.458056        39.6757 
  48   0.0000       1.461860        39.7792 
  49   0.0000       1.488446        40.5027 
  50   0.0000       1.529299        41.6143 
  51   0.0000       1.537619        41.8408 
  52   0.0000       1.543162        41.9916 
  53   0.0000       1.610947        43.8361 
  54   0.0000       1.676217        45.6122 
  55   0.0000       1.708903        46.5016 
  56   0.0000       1.793870        48.8137 
  57   0.0000       1.807967        49.1973 
  58   0.0000       1.852648        50.4131 
  59   0.0000       1.853879        50.4466 
  60   0.0000       1.940686        52.8087 
  61   0.0000       2.014993        54.8307 
  62   0.0000       2.041622        55.5554 
  63   0.0000       2.152248        58.5656 
  64   0.0000       2.241722        61.0003 
  65   0.0000       2.302161        62.6450 
  66   0.0000       2.325788        63.2879 
  67   0.0000       2.337286        63.6008 
  68   0.0000       2.369414        64.4750 
  69   0.0000       2.376880        64.6782 
  70   0.0000       2.448400        66.6244 
  71   0.0000       2.473620        67.3106 
  72   0.0000       2.578045        70.1522 
  73   0.0000       2.581917        70.2575 
  74   0.0000       2.635044        71.7032 
  75   0.0000       2.637671        71.7747 
  76   0.0000       2.684642        73.0528 
  77   0.0000       2.727582        74.2213 
  78   0.0000       2.769898        75.3728 
  79   0.0000       2.921725        79.5042 
  80   0.0000       2.956950        80.4627 
  81   0.0000       3.018206        82.1296 
  82   0.0000       3.061488        83.3073 
  83   0.0000       3.091509        84.1242 
  84   0.0000       3.140940        85.4693 
  85   0.0000       3.158199        85.9390 
  86   0.0000       3.184330        86.6500 
  87   0.0000       3.239444        88.1497 
  88   0.0000       3.262260        88.7706 
  89   0.0000       3.292167        89.5844 
  90   0.0000       3.372475        91.7697 
  91   0.0000       3.394644        92.3730 
  92   0.0000       3.516402        95.6862 
  93   0.0000       3.665772        99.7507 
  94   0.0000       3.674621        99.9915 
  95   0.0000       3.787285       103.0573 
  96   0.0000       3.794703       103.2591 
  97   0.0000       3.815987       103.8383 
  98   0.0000       3.866888       105.2234 
  99   0.0000       3.936245       107.1107 
 100   0.0000       3.969410       108.0131 
 101   0.0000       4.201450       114.3273 
 102   0.0000       4.252734       115.7228 
 103   0.0000       4.398177       119.6805 
 104   0.0000       4.421549       120.3165 
 105   0.0000       4.512644       122.7953 
 106   0.0000       4.703548       127.9900 
 107   0.0000       5.204994       141.6351 
 108   0.0000       6.883989       187.3229 
 109   0.0000       6.887200       187.4103 
 110   0.0000       6.978224       189.8871 
 111   0.0000       6.980844       189.9584 
 112   0.0000       7.233774       196.8410 
 113   0.0000       7.256317       197.4544 
 114   0.0000       7.292994       198.4525 
 115   0.0000       8.352870       227.2931 
 116   0.0000       8.359699       227.4790 
 117   0.0000       8.755427       238.2473 
 118   0.0000       8.796343       239.3607 
 119   0.0000       8.989978       244.6297 
 120   0.0000      22.247257       605.3787 
 121   0.0000      22.346671       608.0838 
 122   0.0000      57.031872      1551.9161 

                    ********************************
                    * MULLIKEN POPULATION ANALYSIS *
                    ********************************

-----------------------
MULLIKEN ATOMIC CHARGES
-----------------------
   0 C :   -0.303469
   1 C :    0.064622
   2 H :    0.082725
   3 H :    0.081820
   4 F :   -0.244006
   5 H :    0.110436
   6 H :    0.098930
   7 H :    0.108943
Sum of atomic charges:   -0.0000000

--------------------------------
MULLIKEN REDUCED ORBITAL CHARGES
--------------------------------
  0 C s       :     3.246856  s :     3.246856
      pz      :     0.961603  p :     3.009510
      px      :     1.034563
      py      :     1.013344
      dz2     :     0.016791  d :     0.043610
      dxz     :     0.003928
      dyz     :     0.010458
      dx2y2   :     0.000937
      dxy     :     0.011497
      f0      :     0.000677  f :     0.003493
      f+1     :     0.000176
      f-1     :     0.001265
      f+2     :     0.000204
      f-2     :     0.000433
      f+3     :     0.000037
      f-3     :     0.000700
  1 C s       :     3.227348  s :     3.227348
      pz      :     0.956147  p :     2.565657
      px      :     0.740687
      py      :     0.868823
      dz2     :     0.021748  d :     0.129562
      dxz     :     0.027466
      dyz     :     0.023746
      dx2y2   :     0.028118
      dxy     :     0.028484
      f0      :     0.001688  f :     0.012811
      f+1     :     0.001456
      f-1     :     0.001525
      f+2     :     0.000893
      f-2     :     0.002280
      f+3     :     0.002953
      f-3     :     0.002015
  2 H s       :     0.897223  s :     0.897223
      pz      :     0.004470  p :     0.020052
      px      :     0.009954
      py      :     0.005628
  3 H s       :     0.898341  s :     0.898341
      pz      :     0.008665  p :     0.019840
      px      :     0.003323
      py      :     0.007851
  4 F s       :     3.919709  s :     3.919709
      pz      :     1.900852  p :     5.309121
      px      :     1.619339
      py      :     1.788929
      dz2     :     0.001904  d :     0.014565
      dxz     :     0.002563
      dyz     :     0.001448
      dx2y2   :     0.003430
      dxy     :     0.005220
      f0      :     0.000059  f :     0.000612
      f+1     :     0.000080
      f-1     :     0.000039
      f+2     :     0.000027
      f-2     :     0.000101
      f+3     :     0.000120
      f-3     :     0.000185
  5 H s       :     0.867515  s :     0.867515
      pz      :     0.004674  p :     0.022049
      px      :     0.010108
      py      :     0.007267
  6 H s       :     0.879156  s :     0.879156
      pz      :     0.004922  p :     0.021914
      px      :     0.009378
      py      :     0.007614
  7 H s       :     0.869021  s :     0.869021
      pz      :     0.009792  p :     0.022036
      px      :     0.004681
      py      :     0.007562


                     *******************************
                     * LOEWDIN POPULATION ANALYSIS *
                     *******************************

----------------------
LOEWDIN ATOMIC CHARGES
----------------------
   0 C :   -0.304876
   1 C :   -0.362766
   2 H :    0.113370
   3 H :    0.114592
   4 F :    0.094540
   5 H :    0.114333
   6 H :    0.117626
   7 H :    0.113180

-------------------------------
LOEWDIN REDUCED ORBITAL CHARGES
-------------------------------
  0 C s       :     2.837966  s :     2.837966
      pz      :     1.057879  p :     3.203922
      px      :     1.076705
      py      :     1.069338
      dz2     :     0.074700  d :     0.238624
      dxz     :     0.020853
      dyz     :     0.067045
      dx2y2   :     0.012905
      dxy     :     0.063122
      f0      :     0.004178  f :     0.024364
      f+1     :     0.004193
      f-1     :     0.004851
      f+2     :     0.004691
      f-2     :     0.001999
      f+3     :     0.000770
      f-3     :     0.003682
  1 C s       :     2.830259  s :     2.830259
      pz      :     1.055021  p :     2.878202
      px      :     0.853547
      py      :     0.969634
      dz2     :     0.099853  d :     0.566906
      dxz     :     0.091802
      dyz     :     0.119004
      dx2y2   :     0.108271
      dxy     :     0.147975
      f0      :     0.010808  f :     0.087399
      f+1     :     0.013663
      f-1     :     0.006998
      f+2     :     0.009104
      f-2     :     0.012473
      f+3     :     0.017082
      f-3     :     0.017269
  2 H s       :     0.830130  s :     0.830130
      pz      :     0.013138  p :     0.056500
      px      :     0.026729
      py      :     0.016632
  3 H s       :     0.830062  s :     0.830062
      pz      :     0.023048  p :     0.055347
      px      :     0.009500
      py      :     0.022798
  4 F s       :     3.617478  s :     3.617478
      pz      :     1.839417  p :     5.256413
      px      :     1.651610
      py      :     1.765386
      dz2     :     0.003668  d :     0.030185
      dxz     :     0.005775
      dyz     :     0.003112
      dx2y2   :     0.007796
      dxy     :     0.009835
      f0      :     0.000138  f :     0.001383
      f+1     :     0.000172
      f-1     :     0.000089
      f+2     :     0.000067
      f-2     :     0.000245
      f+3     :     0.000345
      f-3     :     0.000327
  5 H s       :     0.820932  s :     0.820932
      pz      :     0.014399  p :     0.064735
      px      :     0.029362
      py      :     0.020974
  6 H s       :     0.817957  s :     0.817957
      pz      :     0.014647  p :     0.064417
      px      :     0.028023
      py      :     0.021747
  7 H s       :     0.822137  s :     0.822137
      pz      :     0.026901  p :     0.064683
      px      :     0.014486
      py      :     0.023295


                      *****************************
                      * MAYER POPULATION ANALYSIS *
                      *****************************

  NA   - Mulliken gross atomic population
  ZA   - Total nuclear charge
  QA   - Mulliken gross atomic charge
  VA   - Mayer's total valence
  BVA  - Mayer's bonded valence
  FA   - Mayer's free valence

  ATOM       NA         ZA         QA         VA         BVA        FA
  0 C      6.3035     6.0000    -0.3035     3.8364     3.8364    -0.0000
  1 C      5.9354     6.0000     0.0646     3.9058     3.9058    -0.0000
  2 H      0.9173     1.0000     0.0827     0.9481     0.9481    -0.0000
  3 H      0.9182     1.0000     0.0818     0.9490     0.9490     0.0000
  4 F      9.2440     9.0000    -0.2440     0.9941     0.9941    -0.0000
  5 H      0.8896     1.0000     0.1104     0.9732     0.9732    -0.0000
  6 H      0.9011     1.0000     0.0989     0.9765     0.9765     0.0000
  7 H      0.8911     1.0000     0.1089     0.9713     0.9713    -0.0000

  Mayer bond orders larger than 0.100000
B(  0-C ,  1-C ) :   0.9736 B(  0-C ,  5-H ) :   0.9714 B(  0-C ,  6-H ) :   0.9585 
B(  0-C ,  7-H ) :   0.9726 B(  1-C ,  2-H ) :   0.9677 B(  1-C ,  3-H ) :   0.9689 
B(  1-C ,  4-F ) :   0.9870 

-------
TIMINGS
-------

Total SCF time: 0 days 0 hours 0 min 6 sec 

Total time                  ....       6.369 sec
Sum of individual times     ....       6.226 sec  ( 97.7%)

Fock matrix formation       ....       5.668 sec  ( 89.0%)
  Split-RI-J                ....       0.501 sec  (  8.8% of F)
  Chain of spheres X        ....       3.977 sec  ( 70.2% of F)
  XC integration            ....       1.166 sec  ( 20.6% of F)
    Basis function eval.    ....       0.420 sec  ( 36.1% of XC)
    Density eval.           ....       0.242 sec  ( 20.8% of XC)
    XC-Functional eval.     ....       0.113 sec  (  9.7% of XC)
    XC-Potential eval.      ....       0.303 sec  ( 26.0% of XC)
Diagonalization             ....       0.028 sec  (  0.4%)
Density matrix formation    ....       0.002 sec  (  0.0%)
Population analysis         ....       0.005 sec  (  0.1%)
Initial guess               ....       0.061 sec  (  1.0%)
Orbital Transformation      ....       0.000 sec  (  0.0%)
Orbital Orthonormalization  ....       0.000 sec  (  0.0%)
DIIS solution               ....       0.020 sec  (  0.3%)
SOSCF solution              ....       0.018 sec  (  0.3%)
Grid generation             ....       0.422 sec  (  6.6%)

Maximum memory used throughout the entire SCF-calculation: 61.9 MB


-------------------------------------------------------------------------------
                          DFT DISPERSION CORRECTION                            
                                                                               
                              DFTD3 V3.1  Rev 1                                
                          USING Becke-Johnson damping                          
-------------------------------------------------------------------------------
The B3LYP functional is recognized
Active option DFTDOPT                   ...         4   

molecular C6(AA) [au] = 394.319355 


            DFT-D V3
 parameters
 s6 scaling factor         :     1.0000 
 a1 scaling factor         :     0.3981 
 s8 scaling factor         :     1.9889 
 a2 scaling factor         :     4.4211 
 ad hoc parameters k1-k3   :    16.0000     1.3333    -4.0000 

 Edisp/kcal,au: -3.602773265737  -0.005741384043 
 E6   /kcal   :  -1.827227132 
 E8   /kcal   :  -1.775546134 
 % E8         :  49.282760891 

-------------------------   ----------------
Dispersion correction           -0.005741384
-------------------------   ----------------


-------------------------   --------------------
FINAL SINGLE POINT ENERGY      -179.047589910455
-------------------------   --------------------


                            ***************************************
                            *     ORCA property calculations      *
                            ***************************************

                                    ---------------------
                                    Active property flags
                                    ---------------------
   (+) Dipole Moment


------------------------------------------------------------------------------
                       ORCA ELECTRIC PROPERTIES CALCULATION
------------------------------------------------------------------------------

Dipole Moment Calculation                       ... on
Quadrupole Moment Calculation                   ... off
Polarizability Calculation                      ... off
GBWName                                         ... TZVP_B3LYP_C1_wt_dlpno_neg.gbw
Electron density file                           ... TZVP_B3LYP_C1_wt_dlpno_neg.scfp
The origin for moment calculation is the CENTER OF MASS  = (-2.030760, -1.247399  1.498745)

-------------
DIPOLE MOMENT
-------------
                                X             Y             Z
Electronic contribution:     -2.74860      -3.30391      -2.83210
Nuclear contribution   :      3.27800       3.70743       3.04146
                        -----------------------------------------
Total Dipole Moment    :      0.52940       0.40352       0.20936
                        -----------------------------------------
Magnitude (a.u.)       :      0.69780
Magnitude (Debye)      :      1.77367



--------------------
Rotational spectrum 
--------------------
 
Rotational constants in cm-1:     1.234437     0.305084     0.268865 
Rotational constants in MHz : 37007.496448  9146.194083  8060.380630 

 Dipole components along the rotational axes: 
x,y,z [a.u.] :     0.601225    -0.354199     0.001181 
x,y,z [Debye]:     1.528191    -0.900303     0.003002 

 

Timings for individual modules:

Sum of individual times         ...       10.499 sec (=   0.175 min)
GTO integral calculation        ...        2.244 sec (=   0.037 min)  21.4 %
SCF iterations                  ...        8.255 sec (=   0.138 min)  78.6 %
                             ****ORCA TERMINATED NORMALLY****
TOTAL RUN TIME: 0 days 0 hours 0 minutes 11 seconds 20 msec
