
                                        *****************
                                        * O   R   C   A *
                                        *****************

                                            #,                                       
                                            ###                                      
                                            ####                                     
                                            #####                                    
                                            ######                                   
                                           ########,                                 
                                     ,,################,,,,,                         
                               ,,#################################,,                 
                          ,,##########################################,,             
                       ,#########################################, ''#####,          
                    ,#############################################,,   '####,        
                  ,##################################################,,,,####,       
                ,###########''''           ''''###############################       
              ,#####''   ,,,,##########,,,,          '''####'''          '####       
            ,##' ,,,,###########################,,,                        '##       
           ' ,,###''''                  '''############,,,                           
         ,,##''                                '''############,,,,        ,,,,,,###''
      ,#''                                            '''#######################'''  
     '                                                          ''''####''''         
             ,#######,   #######,   ,#######,      ##                                
            ,#'     '#,  ##    ##  ,#'     '#,    #''#        ######   ,####,        
            ##       ##  ##   ,#'  ##            #'  '#       #        #'  '#        
            ##       ##  #######   ##           ,######,      #####,   #    #        
            '#,     ,#'  ##    ##  '#,     ,#' ,#      #,         ##   #,  ,#        
             '#######'   ##     ##  '#######'  #'      '#     #####' # '####'        



                  #######################################################
                  #                        -***-                        #
                  #          Department of theory and spectroscopy      #
                  #    Directorship and core code : Frank Neese         #
                  #        Max Planck Institute fuer Kohlenforschung    #
                  #                Kaiser Wilhelm Platz 1               #
                  #                 D-45470 Muelheim/Ruhr               #
                  #                      Germany                        #
                  #                                                     #
                  #                  All rights reserved                #
                  #                        -***-                        #
                  #######################################################


                         Program Version 5.0.0 -  RELEASE  -
                                (SVN: $Rev: 19529$)
                ($Date: 2021-06-28 11:36:33 +0200 (Mo, 28 Jun 2021) $)


 With contributions from (in alphabetic order):
   Daniel Aravena         : Magnetic Suceptibility
   Michael Atanasov       : Ab Initio Ligand Field Theory (pilot matlab implementation)
   Alexander A. Auer      : GIAO ZORA, VPT2 properties, NMR spectrum
   Ute Becker             : Parallelization
   Giovanni Bistoni       : ED, misc. LED, open-shell LED, HFLD
   Martin Brehm           : Molecular dynamics
   Dmytro Bykov           : SCF Hessian
   Vijay G. Chilkuri      : MRCI spin determinant printing, contributions to CSF-ICE
   Dipayan Datta          : RHF DLPNO-CCSD density
   Achintya Kumar Dutta   : EOM-CC, STEOM-CC
   Dmitry Ganyushin       : Spin-Orbit,Spin-Spin,Magnetic field MRCI
   Miquel Garcia          : C-PCM Hessian, Gaussian charge scheme
   Yang Guo               : DLPNO-NEVPT2, F12-NEVPT2, CIM, IAO-localization
   Andreas Hansen         : Spin unrestricted coupled pair/coupled cluster methods
   Benjamin Helmich-Paris : MC-RPA, TRAH-SCF, COSX integrals
   Lee Huntington         : MR-EOM, pCC
   Robert Izsak           : Overlap fitted RIJCOSX, COSX-SCS-MP3, EOM
   Marcus Kettner         : VPT2
   Christian Kollmar      : KDIIS, OOCD, Brueckner-CCSD(T), CCSD density, CASPT2, CASPT2-K
   Simone Kossmann        : Meta GGA functionals, TD-DFT gradient, OOMP2, MP2 Hessian
   Martin Krupicka        : Initial AUTO-CI
   Lucas Lang             : DCDCAS
   Marvin Lechner         : AUTO-CI (C++ implementation), FIC-MRCC
   Dagmar Lenk            : GEPOL surface, SMD
   Dimitrios Liakos       : Extrapolation schemes; Compound Job, initial MDCI parallelization
   Dimitrios Manganas     : Further ROCIS development; embedding schemes
   Dimitrios Pantazis     : SARC Basis sets
   Anastasios Papadopoulos: AUTO-CI, single reference methods and gradients
   Taras Petrenko         : DFT Hessian,TD-DFT gradient, ASA, ECA, R-Raman, ABS, FL, XAS/XES, NRVS
   Peter Pinski           : DLPNO-MP2, DLPNO-MP2 Gradient
   Christoph Reimann      : Effective Core Potentials
   Marius Retegan         : Local ZFS, SOC
   Christoph Riplinger    : Optimizer, TS searches, QM/MM, DLPNO-CCSD(T), (RO)-DLPNO pert. Triples
   Tobias Risthaus        : Range-separated hybrids, TD-DFT gradient, RPA, STAB
   Michael Roemelt        : Original ROCIS implementation
   Masaaki Saitow         : Open-shell DLPNO-CCSD energy and density
   Barbara Sandhoefer     : DKH picture change effects
   Avijit Sen             : IP-ROCIS
   Kantharuban Sivalingam : CASSCF convergence, NEVPT2, FIC-MRCI
   Bernardo de Souza      : ESD, SOC TD-DFT
   Georgi Stoychev        : AutoAux, RI-MP2 NMR
   Willem Van den Heuvel  : Paramagnetic NMR
   Boris Wezisla          : Elementary symmetry handling
   Frank Wennmohs         : Technical directorship


 We gratefully acknowledge several colleagues who have allowed us to
 interface, adapt or use parts of their codes:
   Stefan Grimme, W. Hujo, H. Kruse, P. Pracht,  : VdW corrections, initial TS optimization,
                  C. Bannwarth, S. Ehlert          DFT functionals, gCP, sTDA/sTD-DF
   Ed Valeev, F. Pavosevic, A. Kumar             : LibInt (2-el integral package), F12 methods
   Garnet Chan, S. Sharma, J. Yang, R. Olivares  : DMRG
   Ulf Ekstrom                                   : XCFun DFT Library
   Mihaly Kallay                                 : mrcc  (arbitrary order and MRCC methods)
   Jiri Pittner, Ondrej Demel                    : Mk-CCSD
   Frank Weinhold                                : gennbo (NPA and NBO analysis)
   Christopher J. Cramer and Donald G. Truhlar   : smd solvation model
   Lars Goerigk                                  : TD-DFT with DH, B97 family of functionals
   V. Asgeirsson, H. Jonsson                     : NEB implementation
   FAccTs GmbH                                   : IRC, NEB, NEB-TS, DLPNO-Multilevel, CI-OPT
                                                   MM, QMMM, 2- and 3-layer-ONIOM, Crystal-QMMM,
                                                   LR-CPCM, SF, NACMEs, symmetry and pop. for TD-DFT,
                                                   nearIR, NL-DFT gradient (VV10), updates on ESD,
                                                   ML-optimized integration grids
   S Lehtola, MJT Oliveira, MAL Marques          : LibXC Library
   Liviu Ungur et al                             : ANISO software


 Your calculation uses the libint2 library for the computation of 2-el integrals
 For citations please refer to: http://libint.valeyev.net

 Your ORCA version has been built with support for libXC version: 5.1.0
 For citations please refer to: https://tddft.org/programs/libxc/

 This ORCA versions uses:
   CBLAS   interface :  Fast vector & matrix operations
   LAPACKE interface :  Fast linear algebra routines
   SCALAPACK package :  Parallel linear algebra routines
   Shared memory     :  Shared parallel matrices
   BLAS/LAPACK       :  OpenBLAS 0.3.15  USE64BITINT DYNAMIC_ARCH NO_AFFINITY Haswell SINGLE_THREADED
        Core in use  :  Haswell
   Copyright (c) 2011-2014, The OpenBLAS Project


Your calculation utilizes the atom-pairwise dispersion correction
with the Becke-Johnson damping scheme (D3BJ)
Cite in your paper:
S.Grimme, S.Ehrlich, L.Goerigk, J Comput Chem, (2011), 32, 1456–1465 
S.Grimme, J.Antony, S.Ehrlich and H.Krieg, J.Chem.Phys., 132, (2010), 154104 
   

================================================================================

----- Orbital basis set information -----
Your calculation utilizes the basis: def2-SVPD
   F. Weigend and R. Ahlrichs, Phys. Chem. Chem. Phys. 7, 3297 (2005).
   D. Rappoport and F. Furche, J. Chem. Phys. 133 134105 (2010).

----- AuxJ basis set information -----
Your calculation utilizes the auxiliary basis: def2/J
   F. Weigend, Phys. Chem. Chem. Phys. 8, 1057 (2006).

================================================================================
                                        WARNINGS
                       Please study these warnings very carefully!
================================================================================



WARNING: Found flag for RIJCOSX approximation but no HF exchange needed!
  ===> : RIJCOSX  will be disabled and Split-RI-J is turned on

INFO   : the flag for use of the SHARK integral package has been found!

================================================================================
                                       INPUT FILE
================================================================================
NAME = SVPD_PBE_C1_wt_dlpno_pos.com
|  1> !PBE D3BJ RIJCOSX def2-SVPD def2/J TightSCF
|  2> *xyz 0 1
|  3> C          1.96337       -1.74915       -1.89689
|  4> C          2.73849       -2.01517       -3.09711
|  5> C          4.04974       -2.15472       -3.15204
|  6> N          4.65821       -1.98629       -4.31866
|  7> N          4.76423       -2.45444       -2.05049
|  8> H          4.28736       -2.77626       -1.21750
|  9> H          5.75082       -2.65835       -2.12599
| 10> H          2.34518       -1.69027       -3.97145
| 11> H          4.10900       -1.59268       -5.07176
| 12> H          5.64910       -2.15646       -4.42724
| 13> C          2.08852       -0.30091       -1.41520
| 14> H          2.23127       -2.45162       -1.10264
| 15> H          0.93025       -1.97780       -2.15544
| 16> H          1.82118        0.36368       -2.21003
| 17> H          3.09792       -0.11068       -1.11551
| 18> H          1.43391       -0.14382       -0.58352
| 19> *
| 20> %MaxCore 64000
| 21> 
| 22> %pal nprocs 4
| 23> end  
| 24> 
| 25> %scf
| 26>   MaxIter 150
| 27> end
| 28> 
| 29> 
| 30>                          ****END OF INPUT****
================================================================================

                       ****************************
                       * Single Point Calculation *
                       ****************************

---------------------------------
CARTESIAN COORDINATES (ANGSTROEM)
---------------------------------
  C      1.963370   -1.749150   -1.896890
  C      2.738490   -2.015170   -3.097110
  C      4.049740   -2.154720   -3.152040
  N      4.658210   -1.986290   -4.318660
  N      4.764230   -2.454440   -2.050490
  H      4.287360   -2.776260   -1.217500
  H      5.750820   -2.658350   -2.125990
  H      2.345180   -1.690270   -3.971450
  H      4.109000   -1.592680   -5.071760
  H      5.649100   -2.156460   -4.427240
  C      2.088520   -0.300910   -1.415200
  H      2.231270   -2.451620   -1.102640
  H      0.930250   -1.977800   -2.155440
  H      1.821180    0.363680   -2.210030
  H      3.097920   -0.110680   -1.115510
  H      1.433910   -0.143820   -0.583520

----------------------------
CARTESIAN COORDINATES (A.U.)
----------------------------
  NO LB      ZA    FRAG     MASS         X           Y           Z
   0 C     6.0000    0    12.011    3.710232   -3.305414   -3.584603
   1 C     6.0000    0    12.011    5.174996   -3.808119   -5.852690
   2 C     6.0000    0    12.011    7.652900   -4.071831   -5.956492
   3 N     7.0000    0    14.007    8.802741   -3.753544   -8.161085
   4 N     7.0000    0    14.007    9.003090   -4.638219   -3.874865
   5 H     1.0000    0     1.008    8.101936   -5.246371   -2.300742
   6 H     1.0000    0     1.008   10.867475   -5.023553   -4.017539
   7 H     1.0000    0     1.008    4.431748   -3.194147   -7.504953
   8 H     1.0000    0     1.008    7.764885   -3.009729   -9.584237
   9 H     1.0000    0     1.008   10.675252   -4.075119   -8.366271
  10 C     6.0000    0    12.011    3.946731   -0.568637   -2.674340
  11 H     1.0000    0     1.008    4.216489   -4.632890   -2.083688
  12 H     1.0000    0     1.008    1.757918   -3.737500   -4.073191
  13 H     1.0000    0     1.008    3.441531    0.687256   -4.176351
  14 H     1.0000    0     1.008    5.854220   -0.209155   -2.108008
  15 H     1.0000    0     1.008    2.709697   -0.271780   -1.102693

--------------------------------
INTERNAL COORDINATES (ANGSTROEM)
--------------------------------
 C      0   0   0     0.000000000000     0.00000000     0.00000000
 C      1   0   0     1.453308536822     0.00000000     0.00000000
 C      2   1   0     1.319798495945   125.70558414     0.00000000
 N      3   2   1     1.326501651036   118.61421616   200.38175597
 N      3   2   1     1.346751811211   121.10321023    20.01727886
 H      5   3   2     1.012346506588   119.59453702    13.56866466
 H      5   3   2     1.010266977685   120.12495650   173.22985716
 H      2   1   3     1.012286126399   116.57303880   207.34688220
 H      4   3   2     1.011790524862   117.06612917    10.99918763
 H      4   3   2     1.011242027113   121.50248980   185.08027543
 C      1   2   3     1.531367648933   112.91044782    74.86377029
 H      1   2   3     1.093648743153   110.58185151   309.76306189
 H      1   2   3     1.089250136286   105.74830411   195.84517559
 H     11   1   2     1.070002463829   109.47038636    55.14781126
 H     11   1   2     1.069995284569   109.47112396   295.14850402
 H     11   1   2     1.069992122681   109.47150790   175.14805691

---------------------------
INTERNAL COORDINATES (A.U.)
---------------------------
 C      0   0   0     0.000000000000     0.00000000     0.00000000
 C      1   0   0     2.746355122684     0.00000000     0.00000000
 C      2   1   0     2.494057709298   125.70558414     0.00000000
 N      3   2   1     2.506724836652   118.61421616   200.38175597
 N      3   2   1     2.544992093551   121.10321023    20.01727886
 H      5   3   2     1.913057650082   119.59453702    13.56866466
 H      5   3   2     1.909127909968   120.12495650   173.22985716
 H      2   1   3     1.912943548062   116.57303880   207.34688220
 H      4   3   2     1.912006996885   117.06612917    10.99918763
 H      4   3   2     1.910970486355   121.50248980   185.08027543
 C      1   2   3     2.893865466831   112.91044782    74.86377029
 H      1   2   3     2.066696611266   110.58185151   309.76306189
 H      1   2   3     2.058384448918   105.74830411   195.84517559
 H     11   1   2     2.022011619258   109.47038636    55.14781126
 H     11   1   2     2.021998052423   109.47112396   295.14850402
 H     11   1   2     2.021992077321   109.47150790   175.14805691

---------------------
BASIS SET INFORMATION
---------------------
There are 3 groups of distinct atoms

 Group   1 Type C   : 8s4p2d contracted to 4s2p2d pattern {5111/31/11}
 Group   2 Type N   : 8s4p2d contracted to 4s2p2d pattern {5111/31/11}
 Group   3 Type H   : 4s2p contracted to 2s2p pattern {31/11}

Atom   0C    basis set group =>   1
Atom   1C    basis set group =>   1
Atom   2C    basis set group =>   1
Atom   3N    basis set group =>   2
Atom   4N    basis set group =>   2
Atom   5H    basis set group =>   3
Atom   6H    basis set group =>   3
Atom   7H    basis set group =>   3
Atom   8H    basis set group =>   3
Atom   9H    basis set group =>   3
Atom  10C    basis set group =>   1
Atom  11H    basis set group =>   3
Atom  12H    basis set group =>   3
Atom  13H    basis set group =>   3
Atom  14H    basis set group =>   3
Atom  15H    basis set group =>   3
---------------------------------
AUXILIARY/J BASIS SET INFORMATION
---------------------------------
There are 3 groups of distinct atoms

 Group   1 Type C   : 12s5p4d2f1g contracted to 6s4p3d1f1g pattern {711111/2111/211/2/1}
 Group   2 Type N   : 12s5p4d2f1g contracted to 6s4p3d1f1g pattern {711111/2111/211/2/1}
 Group   3 Type H   : 5s2p1d contracted to 3s1p1d pattern {311/2/1}

Atom   0C    basis set group =>   1
Atom   1C    basis set group =>   1
Atom   2C    basis set group =>   1
Atom   3N    basis set group =>   2
Atom   4N    basis set group =>   2
Atom   5H    basis set group =>   3
Atom   6H    basis set group =>   3
Atom   7H    basis set group =>   3
Atom   8H    basis set group =>   3
Atom   9H    basis set group =>   3
Atom  10C    basis set group =>   1
Atom  11H    basis set group =>   3
Atom  12H    basis set group =>   3
Atom  13H    basis set group =>   3
Atom  14H    basis set group =>   3
Atom  15H    basis set group =>   3


           ************************************************************
           *        Program running with 4 parallel MPI-processes     *
           *              working on a common directory               *
           ************************************************************
------------------------------------------------------------------------------
                           ORCA GTO INTEGRAL CALCULATION
                           -- RI-GTO INTEGRALS CHOSEN --
------------------------------------------------------------------------------
------------------------------------------------------------------------------
                   ___                                                        
                  /   \      - P O W E R E D   B Y -                         
                 /     \                                                     
                 |  |  |   _    _      __       _____    __    __             
                 |  |  |  | |  | |    /  \     |  _  \  |  |  /  |          
                  \  \/   | |  | |   /    \    | | | |  |  | /  /          
                 / \  \   | |__| |  /  /\  \   | |_| |  |  |/  /          
                |  |  |   |  __  | /  /__\  \  |    /   |      \           
                |  |  |   | |  | | |   __   |  |    \   |  |\   \          
                \     /   | |  | | |  |  |  |  | |\  \  |  | \   \       
                 \___/    |_|  |_| |__|  |__|  |_| \__\ |__|  \__/        
                                                                              
                      - O R C A' S   B I G   F R I E N D -                    
                                      &                                       
                       - I N T E G R A L  F E E D E R -                       
                                                                              
 v1 FN, 2020, v2 2021                                                         
------------------------------------------------------------------------------


Reading SHARK input file SVPD_PBE_C1_wt_dlpno_pos.SHARKINP.tmp ... ok
----------------------
SHARK INTEGRAL PACKAGE
----------------------

Number of atoms                             ...     16
Number of basis functions                   ...    200
Number of shells                            ...     88
Maximum angular momentum                    ...      2
Integral batch strategy                     ... SHARK/LIBINT Hybrid
RI-J (if used) integral strategy            ... SPLIT-RIJ (Revised 2003 algorithm where possible)
Printlevel                                  ...      1
Contraction scheme used                     ... SEGMENTED contraction
Coulomb Range Separation                    ... NOT USED
Exchange Range Separation                   ... NOT USED
Finite Nucleus Model                        ... NOT USED
Auxiliary Coulomb fitting basis             ... AVAILABLE
   # of basis functions in Aux-J            ...    404
   # of shells in Aux-J                     ...    140
   Maximum angular momentum in Aux-J        ...      4
Auxiliary J/K fitting basis                 ... NOT available
Auxiliary Correlation fitting basis         ... NOT available
Auxiliary 'external' fitting basis          ... NOT available
Integral threshold                          ...     2.500000e-11
Primitive cut-off                           ...     2.500000e-12
Primitive pair pre-selection threshold      ...     2.500000e-12

Calculating pre-screening integrals         ... done (  0.0 sec) Dimension = 88
Organizing shell pair data                  ... done (  0.0 sec)
Shell pair information
Total number of shell pairs                 ...      3916
Shell pairs after pre-screening             ...      3851
Total number of primitive shell pairs       ...     10548
Primitive shell pairs kept                  ...      8644
          la=0 lb=0:    970 shell pairs
          la=1 lb=0:   1382 shell pairs
          la=1 lb=1:    518 shell pairs
          la=2 lb=0:    521 shell pairs
          la=2 lb=1:    382 shell pairs
          la=2 lb=2:     78 shell pairs

Calculating one electron integrals          ... done (  0.0 sec)
Calculating RI/J V-Matrix + Cholesky decomp.... done (  0.0 sec)
Calculating Nuclear repulsion               ... done (  0.0 sec) ENN=    248.453890473290 Eh

SHARK setup successfully completed in   0.2 seconds

Maximum memory used throughout the entire GTOINT-calculation: 8.9 MB


           ************************************************************
           *        Program running with 4 parallel MPI-processes     *
           *              working on a common directory               *
           ************************************************************
-------------------------------------------------------------------------------
                                 ORCA SCF
-------------------------------------------------------------------------------

------------
SCF SETTINGS
------------
Hamiltonian:
 Density Functional     Method          .... DFT(GTOs)
 Exchange Functional    Exchange        .... PBE
   PBE kappa parameter   XKappa         ....  0.804000
   PBE mue parameter    XMuePBE         ....  0.219520
 Correlation Functional Correlation     .... PBE
   PBE beta parameter  CBetaPBE         ....  0.066725
 LDA part of GGA corr.  LDAOpt          .... PW91-LDA
 Gradients option       PostSCFGGA      .... off
   Density functional embedding theory  .... OFF
   NL short-range parameter             ....  6.400000
 RI-approximation to the Coulomb term is turned on
   Number of AuxJ basis functions       .... 404


General Settings:
 Integral files         IntName         .... SVPD_PBE_C1_wt_dlpno_pos
 Hartree-Fock type      HFTyp           .... RHF
 Total Charge           Charge          ....    0
 Multiplicity           Mult            ....    1
 Number of Electrons    NEL             ....   48
 Basis Dimension        Dim             ....  200
 Nuclear Repulsion      ENuc            ....    248.4538904733 Eh

Convergence Acceleration:
 DIIS                   CNVDIIS         .... on
   Start iteration      DIISMaxIt       ....    12
   Startup error        DIISStart       ....  0.200000
   # of expansion vecs  DIISMaxEq       ....     5
   Bias factor          DIISBfac        ....   1.050
   Max. coefficient     DIISMaxC        ....  10.000
 Trust-Rad. Augm. Hess. CNVTRAH         .... auto
   Auto Start mean grad. ratio tolernc. ....  1.125000
   Auto Start start iteration           ....    20
   Auto Start num. interpolation iter.  ....    10
   Max. Number of Micro iterations      ....    16
   Max. Number of Macro iterations      .... Maxiter - #DIIS iter
   Number of Davidson start vectors     ....     2
   Converg. threshold I  (grad. norm)   ....   1.000e-05
   Converg. threshold II (energy diff.) ....   1.000e-08
   Grad. Scal. Fac. for Micro threshold ....   0.100
   Minimum threshold for Micro iter.    ....   0.010
   NR start threshold (gradient norm)   ....   0.001
   Initial trust radius                 ....   0.400
   Minimum AH scaling param. (alpha)    ....   1.000
   Maximum AH scaling param. (alpha)    .... 1000.000
   Orbital update algorithm             .... Taylor
   White noise on init. David. guess    .... on
   Maximum white noise                  ....   0.010
   Quad. conv. algorithm                .... NR
 SOSCF                  CNVSOSCF        .... on
   Start iteration      SOSCFMaxIt      ....   150
   Startup grad/error   SOSCFStart      ....  0.003300
 Level Shifting         CNVShift        .... on
   Level shift para.    LevelShift      ....    0.2500
   Turn off err/grad.   ShiftErr        ....    0.0010
 Zerner damping         CNVZerner       .... off
 Static damping         CNVDamp         .... on
   Fraction old density DampFac         ....    0.7000
   Max. Damping (<1)    DampMax         ....    0.9800
   Min. Damping (>=0)   DampMin         ....    0.0000
   Turn off err/grad.   DampErr         ....    0.1000
 Fernandez-Rico         CNVRico         .... off

SCF Procedure:
 Maximum # iterations   MaxIter         ....   150
 SCF integral mode      SCFMode         .... Direct
   Integral package                     .... SHARK and LIBINT hybrid scheme
 Reset frequency        DirectResetFreq ....    20
 Integral Threshold     Thresh          ....  2.500e-11 Eh
 Primitive CutOff       TCut            ....  2.500e-12 Eh

Convergence Tolerance:
 Convergence Check Mode ConvCheckMode   .... Total+1el-Energy
 Convergence forced     ConvForced      .... 0
 Energy Change          TolE            ....  1.000e-08 Eh
 1-El. energy change                    ....  1.000e-05 Eh
 Orbital Gradient       TolG            ....  1.000e-05
 Orbital Rotation angle TolX            ....  1.000e-05
 DIIS Error             TolErr          ....  5.000e-07


Diagonalization of the overlap matrix:
Smallest eigenvalue                        ... 4.267e-05
Time for diagonalization                   ...    0.011 sec
Threshold for overlap eigenvalues          ... 1.000e-08
Number of eigenvalues below threshold      ... 0
Time for construction of square roots      ...    0.007 sec
Total time needed                          ...    0.018 sec

Time for model grid setup =    0.091 sec

------------------------------
INITIAL GUESS: MODEL POTENTIAL
------------------------------
Loading Hartree-Fock densities                     ... done
Calculating cut-offs                               ... done
Initializing the effective Hamiltonian             ... done
Setting up the integral package (SHARK)            ... done
Starting the Coulomb interaction                   ... done (   0.0 sec)
Reading the grid                                   ... done
Mapping shells                                     ... done
Starting the XC term evaluation                    ... done (   0.1 sec)
  promolecular density results
     # of electrons  =     47.997275055
     EX              =    -36.588631550
     EC              =     -1.577622365
     EX+EC           =    -38.166253915
Transforming the Hamiltonian                       ... done (   0.0 sec)
Diagonalizing the Hamiltonian                      ... done (   0.0 sec)
Back transforming the eigenvectors                 ... done (   0.0 sec)
Now organizing SCF variables                       ... done
                      ------------------
                      INITIAL GUESS DONE (   0.3 sec)
                      ------------------
-------------------
DFT GRID GENERATION
-------------------

General Integration Accuracy     IntAcc      ... 4.388
Radial Grid Type                 RadialGrid  ... OptM3 with GC (2021)
Angular Grid (max. ang.)         AngularGrid ... 4 (Lebedev-302)
Angular grid pruning method      GridPruning ... 4 (adaptive)
Weight generation scheme         WeightScheme... Becke
Basis function cutoff            BFCut       ... 1.0000e-11
Integration weight cutoff        WCut        ... 1.0000e-14
Angular grids for H and He will be reduced by one unit
Partially contracted basis set               ... off
Rotationally invariant grid construction     ... off

Total number of grid points                  ...    70224
Total number of batches                      ...     1106
Average number of points per batch           ...       63
Average number of grid points per atom       ...     4389
Time for grid setup =    0.438 sec

--------------
SCF ITERATIONS
--------------
ITER       Energy         Delta-E        Max-DP      RMS-DP      [F,P]     Damp
               ***  Starting incremental Fock matrix formation  ***
  0   -267.1000818944   0.000000000000 0.10115655  0.00352621  0.2011285 0.7000
  1   -267.2448689355  -0.144787041019 0.13319512  0.00274538  0.0891627 0.7000
                               ***Turning on DIIS***
  2   -267.2918350816  -0.046966146124 0.25328217  0.00483381  0.0214965 0.0000
  3   -267.3583852833  -0.066550201679 0.10772237  0.00184270  0.0581036 0.0000
  4   -267.3834270932  -0.025041809980 0.06484708  0.00089880  0.0136964 0.0000
  5   -267.3850662076  -0.001639114308 0.03143410  0.00045302  0.0040775 0.0000
                      *** Initiating the SOSCF procedure ***
                           *** Shutting down DIIS ***
                      *** Re-Reading the Fockian *** 
                      *** Removing any level shift *** 
ITER      Energy       Delta-E        Grad      Rot      Max-DP    RMS-DP
  6   -267.38521420  -0.0001479934  0.000511  0.000511  0.014091  0.000197
               *** Restarting incremental Fock matrix formation ***
  7   -267.38523503  -0.0000208318  0.000202  0.001087  0.011670  0.000171
  8   -267.38523618  -0.0000011424  0.000213  0.000407  0.003476  0.000054
  9   -267.38523769  -0.0000015178  0.000100  0.000335  0.004434  0.000063
 10   -267.38523821  -0.0000005206  0.000065  0.000107  0.000504  0.000014
 11   -267.38523832  -0.0000001032  0.000057  0.000143  0.001333  0.000020
 12   -267.38523848  -0.0000001592  0.000015  0.000048  0.000232  0.000006
 13   -267.38523850  -0.0000000192  0.000013  0.000011  0.000194  0.000004
 14   -267.38523850  -0.0000000075  0.000005  0.000007  0.000063  0.000001
                  ***Gradient check signals convergence***
              ***Rediagonalizing the Fockian in SOSCF/NRSCF***

               *****************************************************
               *                     SUCCESS                       *
               *           SCF CONVERGED AFTER  15 CYCLES          *
               *****************************************************


----------------
TOTAL SCF ENERGY
----------------

Total Energy       :         -267.38523850 Eh           -7275.92224 eV

Components:
Nuclear Repulsion  :          248.45389047 Eh            6760.77407 eV
Electronic Energy  :         -515.83912898 Eh          -14036.69631 eV
One Electron Energy:         -852.63790204 Eh          -23201.45685 eV
Two Electron Energy:          336.79877306 Eh            9164.76054 eV

Virial components:
Potential Energy   :         -532.45518343 Eh          -14488.84214 eV
Kinetic Energy     :          265.06994493 Eh            7212.91990 eV
Virial Ratio       :            2.00873465


DFT components:
N(Alpha)           :       23.999988047373 electrons
N(Beta)            :       23.999988047373 electrons
N(Total)           :       47.999976094745 electrons
E(X)               :      -37.434638012833 Eh       
E(C)               :       -1.589581682047 Eh       
E(XC)              :      -39.024219694880 Eh       
DFET-embed. en.    :        0.000000000000 Eh       

---------------
SCF CONVERGENCE
---------------

  Last Energy change         ...   -1.3874e-09  Tolerance :   1.0000e-08
  Last MAX-Density change    ...    7.1322e-05  Tolerance :   1.0000e-07
  Last RMS-Density change    ...    1.4212e-06  Tolerance :   5.0000e-09
  Last Orbital Gradient      ...    2.2479e-06  Tolerance :   1.0000e-05
  Last Orbital Rotation      ...    3.8073e-06  Tolerance :   1.0000e-05

             **** THE GBW FILE WAS UPDATED (SVPD_PBE_C1_wt_dlpno_pos.gbw) ****
             **** DENSITY SVPD_PBE_C1_wt_dlpno_pos.scfp WAS UPDATED ****
             **** ENERGY FILE WAS UPDATED (SVPD_PBE_C1_wt_dlpno_pos.en.tmp) ****
             **** THE GBW FILE WAS UPDATED (SVPD_PBE_C1_wt_dlpno_pos.gbw) ****
             **** DENSITY SVPD_PBE_C1_wt_dlpno_pos.scfp WAS UPDATED ****
----------------
ORBITAL ENERGIES
----------------

  NO   OCC          E(Eh)            E(eV) 
   0   2.0000     -14.003054      -381.0425 
   1   2.0000     -14.000437      -380.9713 
   2   2.0000      -9.932354      -270.2731 
   3   2.0000      -9.871569      -268.6191 
   4   2.0000      -9.860323      -268.3130 
   5   2.0000      -9.817850      -267.1573 
   6   2.0000      -0.870994       -23.7010 
   7   2.0000      -0.787694       -21.4343 
   8   2.0000      -0.694639       -18.9021 
   9   2.0000      -0.621053       -16.8997 
  10   2.0000      -0.552724       -15.0404 
  11   2.0000      -0.522990       -14.2313 
  12   2.0000      -0.492087       -13.3904 
  13   2.0000      -0.456677       -12.4268 
  14   2.0000      -0.427419       -11.6306 
  15   2.0000      -0.391033       -10.6405 
  16   2.0000      -0.372019       -10.1231 
  17   2.0000      -0.338931        -9.2228 
  18   2.0000      -0.334999        -9.1158 
  19   2.0000      -0.313813        -8.5393 
  20   2.0000      -0.285871        -7.7790 
  21   2.0000      -0.275665        -7.5012 
  22   2.0000      -0.223758        -6.0888 
  23   2.0000      -0.130148        -3.5415 
  24   0.0000      -0.007634        -0.2077 
  25   0.0000       0.020222         0.5503 
  26   0.0000       0.026566         0.7229 
  27   0.0000       0.037443         1.0189 
  28   0.0000       0.055527         1.5110 
  29   0.0000       0.060794         1.6543 
  30   0.0000       0.066799         1.8177 
  31   0.0000       0.091121         2.4795 
  32   0.0000       0.098981         2.6934 
  33   0.0000       0.115979         3.1559 
  34   0.0000       0.118752         3.2314 
  35   0.0000       0.126335         3.4378 
  36   0.0000       0.134304         3.6546 
  37   0.0000       0.140222         3.8156 
  38   0.0000       0.147438         4.0120 
  39   0.0000       0.156584         4.2609 
  40   0.0000       0.163620         4.4523 
  41   0.0000       0.175288         4.7698 
  42   0.0000       0.184728         5.0267 
  43   0.0000       0.193271         5.2592 
  44   0.0000       0.210414         5.7257 
  45   0.0000       0.213966         5.8223 
  46   0.0000       0.229863         6.2549 
  47   0.0000       0.234102         6.3702 
  48   0.0000       0.241670         6.5762 
  49   0.0000       0.250437         6.8147 
  50   0.0000       0.264406         7.1948 
  51   0.0000       0.286166         7.7870 
  52   0.0000       0.292764         7.9665 
  53   0.0000       0.298455         8.1214 
  54   0.0000       0.301831         8.2132 
  55   0.0000       0.310445         8.4476 
  56   0.0000       0.313806         8.5391 
  57   0.0000       0.323801         8.8111 
  58   0.0000       0.332810         9.0562 
  59   0.0000       0.340586         9.2678 
  60   0.0000       0.345448         9.4001 
  61   0.0000       0.351744         9.5714 
  62   0.0000       0.357749         9.7349 
  63   0.0000       0.358878         9.7656 
  64   0.0000       0.370050        10.0696 
  65   0.0000       0.375457        10.2167 
  66   0.0000       0.379933        10.3385 
  67   0.0000       0.389353        10.5948 
  68   0.0000       0.397051        10.8043 
  69   0.0000       0.409501        11.1431 
  70   0.0000       0.420232        11.4351 
  71   0.0000       0.426478        11.6050 
  72   0.0000       0.431988        11.7550 
  73   0.0000       0.445367        12.1190 
  74   0.0000       0.448135        12.1944 
  75   0.0000       0.462279        12.5793 
  76   0.0000       0.468021        12.7355 
  77   0.0000       0.470738        12.8094 
  78   0.0000       0.479834        13.0570 
  79   0.0000       0.491865        13.3843 
  80   0.0000       0.502636        13.6774 
  81   0.0000       0.506672        13.7872 
  82   0.0000       0.513480        13.9725 
  83   0.0000       0.515137        14.0176 
  84   0.0000       0.529875        14.4186 
  85   0.0000       0.537781        14.6338 
  86   0.0000       0.544913        14.8278 
  87   0.0000       0.555315        15.1109 
  88   0.0000       0.561517        15.2797 
  89   0.0000       0.576330        15.6827 
  90   0.0000       0.577271        15.7084 
  91   0.0000       0.590713        16.0741 
  92   0.0000       0.611025        16.6268 
  93   0.0000       0.615674        16.7533 
  94   0.0000       0.622855        16.9487 
  95   0.0000       0.646577        17.5942 
  96   0.0000       0.657663        17.8959 
  97   0.0000       0.660045        17.9607 
  98   0.0000       0.685262        18.6469 
  99   0.0000       0.703061        19.1313 
 100   0.0000       0.716238        19.4898 
 101   0.0000       0.730463        19.8769 
 102   0.0000       0.734277        19.9807 
 103   0.0000       0.747332        20.3359 
 104   0.0000       0.752155        20.4672 
 105   0.0000       0.762895        20.7594 
 106   0.0000       0.829880        22.5822 
 107   0.0000       0.866262        23.5722 
 108   0.0000       0.874013        23.7831 
 109   0.0000       0.913175        24.8488 
 110   0.0000       0.928796        25.2738 
 111   0.0000       0.935710        25.4620 
 112   0.0000       0.972626        26.4665 
 113   0.0000       0.986910        26.8552 
 114   0.0000       0.999570        27.1997 
 115   0.0000       1.011050        27.5121 
 116   0.0000       1.018297        27.7093 
 117   0.0000       1.037539        28.2329 
 118   0.0000       1.060995        28.8711 
 119   0.0000       1.078640        29.3513 
 120   0.0000       1.103706        30.0334 
 121   0.0000       1.117576        30.4108 
 122   0.0000       1.125863        30.6363 
 123   0.0000       1.141626        31.0652 
 124   0.0000       1.152250        31.3543 
 125   0.0000       1.168587        31.7989 
 126   0.0000       1.184182        32.2232 
 127   0.0000       1.196304        32.5531 
 128   0.0000       1.240433        33.7539 
 129   0.0000       1.269567        34.5467 
 130   0.0000       1.297982        35.3199 
 131   0.0000       1.329987        36.1908 
 132   0.0000       1.367144        37.2019 
 133   0.0000       1.436336        39.0847 
 134   0.0000       1.477226        40.1974 
 135   0.0000       1.498631        40.7798 
 136   0.0000       1.526511        41.5385 
 137   0.0000       1.570051        42.7233 
 138   0.0000       1.578290        42.9474 
 139   0.0000       1.597464        43.4692 
 140   0.0000       1.625755        44.2390 
 141   0.0000       1.635256        44.4976 
 142   0.0000       1.660205        45.1765 
 143   0.0000       1.666945        45.3599 
 144   0.0000       1.715649        46.6852 
 145   0.0000       1.750828        47.6425 
 146   0.0000       1.787664        48.6448 
 147   0.0000       1.793532        48.8045 
 148   0.0000       1.813340        49.3435 
 149   0.0000       1.828333        49.7515 
 150   0.0000       1.832166        49.8558 
 151   0.0000       1.869812        50.8802 
 152   0.0000       1.887819        51.3702 
 153   0.0000       1.912080        52.0304 
 154   0.0000       1.932334        52.5815 
 155   0.0000       1.944572        52.9145 
 156   0.0000       1.970290        53.6143 
 157   0.0000       1.987042        54.0702 
 158   0.0000       2.009873        54.6914 
 159   0.0000       2.018007        54.9128 
 160   0.0000       2.037916        55.4545 
 161   0.0000       2.048075        55.7310 
 162   0.0000       2.066704        56.2379 
 163   0.0000       2.083315        56.6899 
 164   0.0000       2.096308        57.0434 
 165   0.0000       2.145209        58.3741 
 166   0.0000       2.159263        58.7565 
 167   0.0000       2.202913        59.9443 
 168   0.0000       2.239659        60.9442 
 169   0.0000       2.276294        61.9411 
 170   0.0000       2.291821        62.3636 
 171   0.0000       2.315084        62.9966 
 172   0.0000       2.355884        64.1069 
 173   0.0000       2.384062        64.8736 
 174   0.0000       2.397561        65.2410 
 175   0.0000       2.413587        65.6770 
 176   0.0000       2.468284        67.1654 
 177   0.0000       2.524373        68.6917 
 178   0.0000       2.545875        69.2768 
 179   0.0000       2.576580        70.1123 
 180   0.0000       2.585917        70.3664 
 181   0.0000       2.610273        71.0291 
 182   0.0000       2.635540        71.7167 
 183   0.0000       2.665242        72.5249 
 184   0.0000       2.734478        74.4089 
 185   0.0000       2.796881        76.1070 
 186   0.0000       2.826728        76.9192 
 187   0.0000       2.943548        80.0980 
 188   0.0000       2.957903        80.4886 
 189   0.0000       2.995703        81.5172 
 190   0.0000       3.035725        82.6063 
 191   0.0000       3.117362        84.8277 
 192   0.0000       3.158779        85.9547 
 193   0.0000       3.177861        86.4740 
 194   0.0000       3.191027        86.8323 
 195   0.0000       3.261468        88.7490 
 196   0.0000       3.267453        88.9119 
 197   0.0000       3.334434        90.7346 
 198   0.0000       3.618287        98.4586 
 199   0.0000       3.655070        99.4595 

                    ********************************
                    * MULLIKEN POPULATION ANALYSIS *
                    ********************************

-----------------------
MULLIKEN ATOMIC CHARGES
-----------------------
   0 C :   -0.162885
   1 C :   -0.364617
   2 C :    0.870230
   3 N :   -0.004276
   4 N :   -0.058412
   5 H :   -0.023789
   6 H :   -0.295933
   7 H :   -0.116161
   8 H :   -0.019757
   9 H :   -0.193656
  10 C :    0.707858
  11 H :   -0.082843
  12 H :   -0.113805
  13 H :   -0.054252
  14 H :   -0.061325
  15 H :   -0.026377
Sum of atomic charges:   -0.0000000

--------------------------------
MULLIKEN REDUCED ORBITAL CHARGES
--------------------------------
  0 C s       :     2.745483  s :     2.745483
      pz      :     0.962815  p :     2.852482
      px      :     0.898276
      py      :     0.991390
      dz2     :     0.143787  d :     0.564920
      dxz     :     0.031260
      dyz     :     0.141434
      dx2y2   :     0.101985
      dxy     :     0.146456
  1 C s       :     3.085431  s :     3.085431
      pz      :     0.740062  p :     2.882696
      px      :     1.014643
      py      :     1.127991
      dz2     :     0.156798  d :     0.396490
      dxz     :     0.099607
      dyz     :     0.044632
      dx2y2   :     0.071112
      dxy     :     0.024341
  2 C s       :     2.697505  s :     2.697505
      pz      :     0.788555  p :     2.391163
      px      :     0.738716
      py      :     0.863892
      dz2     :    -0.110240  d :     0.041102
      dxz     :     0.059834
      dyz     :     0.029390
      dx2y2   :    -0.006383
      dxy     :     0.068500
  3 N s       :     3.400643  s :     3.400643
      pz      :     1.039987  p :     3.586511
      px      :     0.977261
      py      :     1.569263
      dz2     :    -0.004826  d :     0.017122
      dxz     :    -0.004206
      dyz     :     0.007601
      dx2y2   :     0.004276
      dxy     :     0.014277
  4 N s       :     3.450507  s :     3.450507
      pz      :     1.056558  p :     3.607363
      px      :     0.972765
      py      :     1.578041
      dz2     :    -0.016326  d :     0.000542
      dxz     :     0.001921
      dyz     :     0.011902
      dx2y2   :     0.001460
      dxy     :     0.001584
  5 H s       :     1.018154  s :     1.018154
      pz      :     0.006519  p :     0.005635
      px      :    -0.063779
      py      :     0.062895
  6 H s       :     1.228404  s :     1.228404
      pz      :    -0.010560  p :     0.067530
      px      :    -0.001164
      py      :     0.079254
  7 H s       :     1.006151  s :     1.006151
      pz      :     0.057866  p :     0.110010
      px      :    -0.000903
      py      :     0.053047
  8 H s       :     0.997779  s :     0.997779
      pz      :     0.001826  p :     0.021978
      px      :    -0.040263
      py      :     0.060415
  9 H s       :     1.125340  s :     1.125340
      pz      :    -0.008321  p :     0.068316
      px      :     0.001157
      py      :     0.075481
 10 C s       :     2.512059  s :     2.512059
      pz      :     0.869221  p :     2.730321
      px      :     0.878946
      py      :     0.982153
      dz2     :    -0.009455  d :     0.049763
      dxz     :    -0.024597
      dyz     :     0.024344
      dx2y2   :     0.007191
      dxy     :     0.052279
 11 H s       :     1.021986  s :     1.021986
      pz      :     0.012224  p :     0.060857
      px      :     0.024878
      py      :     0.023754
 12 H s       :     1.062800  s :     1.062800
      pz      :     0.005419  p :     0.051005
      px      :     0.060511
      py      :    -0.014925
 13 H s       :     0.984452  s :     0.984452
      pz      :     0.068226  p :     0.069800
      px      :    -0.022108
      py      :     0.023682
 14 H s       :     0.972363  s :     0.972363
      pz      :    -0.019315  p :     0.088961
      px      :     0.099871
      py      :     0.008405
 15 H s       :     0.999965  s :     0.999965
      pz      :     0.017853  p :     0.026412
      px      :     0.006972
      py      :     0.001587


                     *******************************
                     * LOEWDIN POPULATION ANALYSIS *
                     *******************************

----------------------
LOEWDIN ATOMIC CHARGES
----------------------
   0 C :   -0.104050
   1 C :   -0.044976
   2 C :   -0.234519
   3 N :    0.190397
   4 N :    0.213658
   5 H :   -0.010475
   6 H :   -0.016206
   7 H :   -0.049271
   8 H :    0.003463
   9 H :   -0.010648
  10 C :    0.122555
  11 H :    0.002374
  12 H :    0.011988
  13 H :   -0.019485
  14 H :   -0.026453
  15 H :   -0.028350

-------------------------------
LOEWDIN REDUCED ORBITAL CHARGES
-------------------------------
  0 C s       :     2.685931  s :     2.685931
      pz      :     0.913222  p :     2.706676
      px      :     0.908821
      py      :     0.884633
      dz2     :     0.142116  d :     0.711443
      dxz     :     0.086610
      dyz     :     0.212102
      dx2y2   :     0.148479
      dxy     :     0.122136
  1 C s       :     2.694400  s :     2.694400
      pz      :     0.895184  p :     2.734593
      px      :     0.907893
      py      :     0.931516
      dz2     :     0.142987  d :     0.615983
      dxz     :     0.176664
      dyz     :     0.088893
      dx2y2   :     0.115957
      dxy     :     0.091482
  2 C s       :     2.629852  s :     2.629852
      pz      :     0.832742  p :     2.537399
      px      :     0.939434
      py      :     0.765223
      dz2     :     0.233128  d :     1.067268
      dxz     :     0.290683
      dyz     :     0.187875
      dx2y2   :     0.133961
      dxy     :     0.221622
  3 N s       :     2.927655  s :     2.927655
      pz      :     1.089676  p :     3.522715
      px      :     1.066623
      py      :     1.366416
      dz2     :     0.096775  d :     0.359233
      dxz     :     0.099103
      dyz     :     0.072567
      dx2y2   :     0.051022
      dxy     :     0.039766
  4 N s       :     2.931667  s :     2.931667
      pz      :     1.092950  p :     3.512251
      px      :     1.056839
      py      :     1.362462
      dz2     :     0.098383  d :     0.342424
      dxz     :     0.087298
      dyz     :     0.060444
      dx2y2   :     0.053580
      dxy     :     0.042718
  5 H s       :     0.645108  s :     0.645108
      pz      :     0.123395  p :     0.365366
      px      :     0.117668
      py      :     0.124303
  6 H s       :     0.667493  s :     0.667493
      pz      :     0.078506  p :     0.348713
      px      :     0.143153
      py      :     0.127053
  7 H s       :     0.741278  s :     0.741278
      pz      :     0.113847  p :     0.307994
      px      :     0.084179
      py      :     0.109968
  8 H s       :     0.648297  s :     0.648297
      pz      :     0.114488  p :     0.348241
      px      :     0.110397
      py      :     0.123355
  9 H s       :     0.665299  s :     0.665299
      pz      :     0.075543  p :     0.345349
      px      :     0.144678
      py      :     0.125128
 10 C s       :     2.716619  s :     2.716619
      pz      :     0.924445  p :     2.756990
      px      :     0.930418
      py      :     0.902127
      dz2     :     0.050760  d :     0.403836
      dxz     :     0.060611
      dyz     :     0.110897
      dx2y2   :     0.095243
      dxy     :     0.086324
 11 H s       :     0.724167  s :     0.724167
      pz      :     0.097793  p :     0.273459
      px      :     0.091514
      py      :     0.084152
 12 H s       :     0.725506  s :     0.725506
      pz      :     0.074412  p :     0.262506
      px      :     0.122981
      py      :     0.065112
 13 H s       :     0.738782  s :     0.738782
      pz      :     0.113227  p :     0.280703
      px      :     0.079567
      py      :     0.087908
 14 H s       :     0.737362  s :     0.737362
      pz      :     0.080233  p :     0.289091
      px      :     0.134715
      py      :     0.074144
 15 H s       :     0.744991  s :     0.744991
      pz      :     0.112648  p :     0.283359
      px      :     0.099733
      py      :     0.070978


                      *****************************
                      * MAYER POPULATION ANALYSIS *
                      *****************************

  NA   - Mulliken gross atomic population
  ZA   - Total nuclear charge
  QA   - Mulliken gross atomic charge
  VA   - Mayer's total valence
  BVA  - Mayer's bonded valence
  FA   - Mayer's free valence

  ATOM       NA         ZA         QA         VA         BVA        FA
  0 C      6.1629     6.0000    -0.1629     5.2730     5.2730    -0.0000
  1 C      6.3646     6.0000    -0.3646     4.7273     4.7273    -0.0000
  2 C      5.1298     6.0000     0.8702     3.2508     3.2508    -0.0000
  3 N      7.0043     7.0000    -0.0043     3.8913     3.8913    -0.0000
  4 N      7.0584     7.0000    -0.0584     3.7671     3.7671    -0.0000
  5 H      1.0238     1.0000    -0.0238     0.8409     0.8409    -0.0000
  6 H      1.2959     1.0000    -0.2959     0.9649     0.9649     0.0000
  7 H      1.1162     1.0000    -0.1162     1.3484     1.3484    -0.0000
  8 H      1.0198     1.0000    -0.0198     0.8342     0.8342    -0.0000
  9 H      1.1937     1.0000    -0.1937     0.9860     0.9860     0.0000
 10 C      5.2921     6.0000     0.7079     3.8457     3.8457    -0.0000
 11 H      1.0828     1.0000    -0.0828     1.1323     1.1323     0.0000
 12 H      1.1138     1.0000    -0.1138     1.1922     1.1922    -0.0000
 13 H      1.0543     1.0000    -0.0543     1.0973     1.0973    -0.0000
 14 H      1.0613     1.0000    -0.0613     1.1483     1.1483    -0.0000
 15 H      1.0264     1.0000    -0.0264     1.0365     1.0365     0.0000

  Mayer bond orders larger than 0.100000
B(  0-C ,  1-C ) :   1.2704 B(  0-C ,  7-H ) :   0.3126 B(  0-C , 10-C ) :   1.2533 
B(  0-C , 11-H ) :   0.8612 B(  0-C , 12-H ) :   0.7902 B(  0-C , 13-H ) :   0.2444 
B(  0-C , 14-H ) :   0.2128 B(  0-C , 15-H ) :   0.1884 B(  1-C ,  2-C ) :   1.6798 
B(  1-C ,  3-N ) :   0.3572 B(  1-C ,  4-N ) :   0.2514 B(  1-C ,  7-H ) :   0.7552 
B(  1-C , 11-H ) :   0.2225 B(  1-C , 12-H ) :   0.2850 B(  2-C ,  3-N ) :   0.8510 
B(  2-C ,  4-N ) :   0.8586 B(  2-C ,  6-H ) :  -0.2271 B(  2-C ,  7-H ) :   0.2861 
B(  2-C ,  9-H ) :  -0.1030 B(  3-N ,  4-N ) :   0.1418 B(  3-N ,  8-H ) :   1.1394 
B(  3-N ,  9-H ) :   1.2678 B(  4-N ,  5-H ) :   1.0383 B(  4-N ,  6-H ) :   1.3944 
B(  5-H ,  6-H ) :  -0.2170 B(  8-H ,  9-H ) :  -0.1757 B( 10-C , 13-H ) :   0.8156 
B( 10-C , 14-H ) :   0.8278 B( 10-C , 15-H ) :   0.7848 

-------
TIMINGS
-------

Total SCF time: 0 days 0 hours 0 min 7 sec 

Total time                  ....       7.220 sec
Sum of individual times     ....       7.033 sec  ( 97.4%)

Fock matrix formation       ....       6.166 sec  ( 85.4%)
  Split-RI-J                ....       1.355 sec  ( 22.0% of F)
  XC integration            ....       4.763 sec  ( 77.3% of F)
    Basis function eval.    ....       1.606 sec  ( 33.7% of XC)
    Density eval.           ....       1.194 sec  ( 25.1% of XC)
    XC-Functional eval.     ....       0.253 sec  (  5.3% of XC)
    XC-Potential eval.      ....       1.537 sec  ( 32.3% of XC)
Diagonalization             ....       0.064 sec  (  0.9%)
Density matrix formation    ....       0.005 sec  (  0.1%)
Population analysis         ....       0.008 sec  (  0.1%)
Initial guess               ....       0.161 sec  (  2.2%)
Orbital Transformation      ....       0.000 sec  (  0.0%)
Orbital Orthonormalization  ....       0.000 sec  (  0.0%)
DIIS solution               ....       0.044 sec  (  0.6%)
SOSCF solution              ....       0.057 sec  (  0.8%)
Grid generation             ....       0.529 sec  (  7.3%)

Maximum memory used throughout the entire SCF-calculation: 23.6 MB


-------------------------------------------------------------------------------
                          DFT DISPERSION CORRECTION                            
                                                                               
                              DFTD3 V3.1  Rev 1                                
                          USING Becke-Johnson damping                          
-------------------------------------------------------------------------------
The PBE functional is recognized
Active option DFTDOPT                   ...         4   

molecular C6(AA) [au] = 1932.877032 


            DFT-D V3
 parameters
 s6 scaling factor         :     1.0000 
 a1 scaling factor         :     0.4289 
 s8 scaling factor         :     0.7875 
 a2 scaling factor         :     4.4407 
 ad hoc parameters k1-k3   :    16.0000     1.3333    -4.0000 

 Edisp/kcal,au: -8.080683398553  -0.012877387307 
 E6   /kcal   :  -5.831433161 
 E8   /kcal   :  -2.249250237 
 % E8         :  27.834901161 

-------------------------   ----------------
Dispersion correction           -0.012877387
-------------------------   ----------------


-------------------------   --------------------
FINAL SINGLE POINT ENERGY      -267.398115891308
-------------------------   --------------------


                            ***************************************
                            *     ORCA property calculations      *
                            ***************************************

                                    ---------------------
                                    Active property flags
                                    ---------------------
   (+) Dipole Moment


------------------------------------------------------------------------------
                       ORCA ELECTRIC PROPERTIES CALCULATION
------------------------------------------------------------------------------

Dipole Moment Calculation                       ... on
Quadrupole Moment Calculation                   ... off
Polarizability Calculation                      ... off
GBWName                                         ... SVPD_PBE_C1_wt_dlpno_pos.gbw
Electron density file                           ... SVPD_PBE_C1_wt_dlpno_pos.scfp
The origin for moment calculation is the CENTER OF MASS  = ( 6.451852, -3.339565 -5.006896)

-------------
DIPOLE MOMENT
-------------
                                X             Y             Z
Electronic contribution:      3.29847      -2.44223      -2.53849
Nuclear contribution   :     -2.31778       2.31977       2.35294
                        -----------------------------------------
Total Dipole Moment    :      0.98069      -0.12246      -0.18555
                        -----------------------------------------
Magnitude (a.u.)       :      1.00558
Magnitude (Debye)      :      2.55597



--------------------
Rotational spectrum 
--------------------
 
Rotational constants in cm-1:     0.219415     0.075373     0.066689 
Rotational constants in MHz :  6577.897266  2259.621393  1999.290981 

 Dipole components along the rotational axes: 
x,y,z [a.u.] :    -0.885768     0.359481    -0.312042 
x,y,z [Debye]:    -2.251444     0.913729    -0.793147 

 

Timings for individual modules:

Sum of individual times         ...        7.822 sec (=   0.130 min)
GTO integral calculation        ...        0.388 sec (=   0.006 min)   5.0 %
SCF iterations                  ...        7.434 sec (=   0.124 min)  95.0 %
                             ****ORCA TERMINATED NORMALLY****
TOTAL RUN TIME: 0 days 0 hours 0 minutes 8 seconds 215 msec
