
                                        *****************
                                        * O   R   C   A *
                                        *****************

                                            #,                                       
                                            ###                                      
                                            ####                                     
                                            #####                                    
                                            ######                                   
                                           ########,                                 
                                     ,,################,,,,,                         
                               ,,#################################,,                 
                          ,,##########################################,,             
                       ,#########################################, ''#####,          
                    ,#############################################,,   '####,        
                  ,##################################################,,,,####,       
                ,###########''''           ''''###############################       
              ,#####''   ,,,,##########,,,,          '''####'''          '####       
            ,##' ,,,,###########################,,,                        '##       
           ' ,,###''''                  '''############,,,                           
         ,,##''                                '''############,,,,        ,,,,,,###''
      ,#''                                            '''#######################'''  
     '                                                          ''''####''''         
             ,#######,   #######,   ,#######,      ##                                
            ,#'     '#,  ##    ##  ,#'     '#,    #''#        ######   ,####,        
            ##       ##  ##   ,#'  ##            #'  '#       #        #'  '#        
            ##       ##  #######   ##           ,######,      #####,   #    #        
            '#,     ,#'  ##    ##  '#,     ,#' ,#      #,         ##   #,  ,#        
             '#######'   ##     ##  '#######'  #'      '#     #####' # '####'        



                  #######################################################
                  #                        -***-                        #
                  #          Department of theory and spectroscopy      #
                  #    Directorship and core code : Frank Neese         #
                  #        Max Planck Institute fuer Kohlenforschung    #
                  #                Kaiser Wilhelm Platz 1               #
                  #                 D-45470 Muelheim/Ruhr               #
                  #                      Germany                        #
                  #                                                     #
                  #                  All rights reserved                #
                  #                        -***-                        #
                  #######################################################


                         Program Version 5.0.0 -  RELEASE  -
                                (SVN: $Rev: 19529$)
                ($Date: 2021-06-28 11:36:33 +0200 (Mo, 28 Jun 2021) $)


 With contributions from (in alphabetic order):
   Daniel Aravena         : Magnetic Suceptibility
   Michael Atanasov       : Ab Initio Ligand Field Theory (pilot matlab implementation)
   Alexander A. Auer      : GIAO ZORA, VPT2 properties, NMR spectrum
   Ute Becker             : Parallelization
   Giovanni Bistoni       : ED, misc. LED, open-shell LED, HFLD
   Martin Brehm           : Molecular dynamics
   Dmytro Bykov           : SCF Hessian
   Vijay G. Chilkuri      : MRCI spin determinant printing, contributions to CSF-ICE
   Dipayan Datta          : RHF DLPNO-CCSD density
   Achintya Kumar Dutta   : EOM-CC, STEOM-CC
   Dmitry Ganyushin       : Spin-Orbit,Spin-Spin,Magnetic field MRCI
   Miquel Garcia          : C-PCM Hessian, Gaussian charge scheme
   Yang Guo               : DLPNO-NEVPT2, F12-NEVPT2, CIM, IAO-localization
   Andreas Hansen         : Spin unrestricted coupled pair/coupled cluster methods
   Benjamin Helmich-Paris : MC-RPA, TRAH-SCF, COSX integrals
   Lee Huntington         : MR-EOM, pCC
   Robert Izsak           : Overlap fitted RIJCOSX, COSX-SCS-MP3, EOM
   Marcus Kettner         : VPT2
   Christian Kollmar      : KDIIS, OOCD, Brueckner-CCSD(T), CCSD density, CASPT2, CASPT2-K
   Simone Kossmann        : Meta GGA functionals, TD-DFT gradient, OOMP2, MP2 Hessian
   Martin Krupicka        : Initial AUTO-CI
   Lucas Lang             : DCDCAS
   Marvin Lechner         : AUTO-CI (C++ implementation), FIC-MRCC
   Dagmar Lenk            : GEPOL surface, SMD
   Dimitrios Liakos       : Extrapolation schemes; Compound Job, initial MDCI parallelization
   Dimitrios Manganas     : Further ROCIS development; embedding schemes
   Dimitrios Pantazis     : SARC Basis sets
   Anastasios Papadopoulos: AUTO-CI, single reference methods and gradients
   Taras Petrenko         : DFT Hessian,TD-DFT gradient, ASA, ECA, R-Raman, ABS, FL, XAS/XES, NRVS
   Peter Pinski           : DLPNO-MP2, DLPNO-MP2 Gradient
   Christoph Reimann      : Effective Core Potentials
   Marius Retegan         : Local ZFS, SOC
   Christoph Riplinger    : Optimizer, TS searches, QM/MM, DLPNO-CCSD(T), (RO)-DLPNO pert. Triples
   Tobias Risthaus        : Range-separated hybrids, TD-DFT gradient, RPA, STAB
   Michael Roemelt        : Original ROCIS implementation
   Masaaki Saitow         : Open-shell DLPNO-CCSD energy and density
   Barbara Sandhoefer     : DKH picture change effects
   Avijit Sen             : IP-ROCIS
   Kantharuban Sivalingam : CASSCF convergence, NEVPT2, FIC-MRCI
   Bernardo de Souza      : ESD, SOC TD-DFT
   Georgi Stoychev        : AutoAux, RI-MP2 NMR
   Willem Van den Heuvel  : Paramagnetic NMR
   Boris Wezisla          : Elementary symmetry handling
   Frank Wennmohs         : Technical directorship


 We gratefully acknowledge several colleagues who have allowed us to
 interface, adapt or use parts of their codes:
   Stefan Grimme, W. Hujo, H. Kruse, P. Pracht,  : VdW corrections, initial TS optimization,
                  C. Bannwarth, S. Ehlert          DFT functionals, gCP, sTDA/sTD-DF
   Ed Valeev, F. Pavosevic, A. Kumar             : LibInt (2-el integral package), F12 methods
   Garnet Chan, S. Sharma, J. Yang, R. Olivares  : DMRG
   Ulf Ekstrom                                   : XCFun DFT Library
   Mihaly Kallay                                 : mrcc  (arbitrary order and MRCC methods)
   Jiri Pittner, Ondrej Demel                    : Mk-CCSD
   Frank Weinhold                                : gennbo (NPA and NBO analysis)
   Christopher J. Cramer and Donald G. Truhlar   : smd solvation model
   Lars Goerigk                                  : TD-DFT with DH, B97 family of functionals
   V. Asgeirsson, H. Jonsson                     : NEB implementation
   FAccTs GmbH                                   : IRC, NEB, NEB-TS, DLPNO-Multilevel, CI-OPT
                                                   MM, QMMM, 2- and 3-layer-ONIOM, Crystal-QMMM,
                                                   LR-CPCM, SF, NACMEs, symmetry and pop. for TD-DFT,
                                                   nearIR, NL-DFT gradient (VV10), updates on ESD,
                                                   ML-optimized integration grids
   S Lehtola, MJT Oliveira, MAL Marques          : LibXC Library
   Liviu Ungur et al                             : ANISO software


 Your calculation uses the libint2 library for the computation of 2-el integrals
 For citations please refer to: http://libint.valeyev.net

 Your ORCA version has been built with support for libXC version: 5.1.0
 For citations please refer to: https://tddft.org/programs/libxc/

 This ORCA versions uses:
   CBLAS   interface :  Fast vector & matrix operations
   LAPACKE interface :  Fast linear algebra routines
   SCALAPACK package :  Parallel linear algebra routines
   Shared memory     :  Shared parallel matrices
   BLAS/LAPACK       :  OpenBLAS 0.3.15  USE64BITINT DYNAMIC_ARCH NO_AFFINITY Haswell SINGLE_THREADED
        Core in use  :  Haswell
   Copyright (c) 2011-2014, The OpenBLAS Project


Your calculation utilizes the atom-pairwise dispersion correction
with the Becke-Johnson damping scheme (D3BJ)
Cite in your paper:
S.Grimme, S.Ehrlich, L.Goerigk, J Comput Chem, (2011), 32, 1456–1465 
S.Grimme, J.Antony, S.Ehrlich and H.Krieg, J.Chem.Phys., 132, (2010), 154104 
   

================================================================================

----- Orbital basis set information -----
Your calculation utilizes the basis: def2-TZVPD
   F. Weigend and R. Ahlrichs, Phys. Chem. Chem. Phys. 7, 3297 (2005).
   D. Rappoport and F. Furche, J. Chem. Phys. 133 134105 (2010).

----- AuxJ basis set information -----
Your calculation utilizes the auxiliary basis: def2/J
   F. Weigend, Phys. Chem. Chem. Phys. 8, 1057 (2006).

================================================================================
                                        WARNINGS
                       Please study these warnings very carefully!
================================================================================


INFO   : the flag for use of the SHARK integral package has been found!

================================================================================
                                       INPUT FILE
================================================================================
NAME = TZVPD_B3LYP_C1_wt_dlpno_pos.com
|  1> !B3LYP D3BJ RIJCOSX def2-TZVPD def2/J TightSCF
|  2> *xyz 0 1 
|  3> C          0.81607       -2.10149       -2.18655
|  4> H          1.69623       -2.36869       -1.60046
|  5> C          1.10055       -2.46749       -3.59927
|  6> C          0.51624       -0.61363       -2.03937
|  7> H         -0.02007       -2.71285       -1.84084
|  8> H          1.70061       -1.75723       -4.07838
|  9> H          0.29386       -2.35977       -4.25632
| 10> H          1.50132       -3.42848       -3.69491
| 11> H         -0.34841       -0.36504       -2.61858
| 12> H          1.35358       -0.04503       -2.38643
| 13> H          0.33317       -0.38682       -1.00984
| 14> *
| 15> %MaxCore 64000
| 16> 
| 17> %pal nprocs 4
| 18> end  
| 19> 
| 20> %scf
| 21>   MaxIter 150
| 22> end
| 23> 
| 24> 
| 25>                          ****END OF INPUT****
================================================================================

                       ****************************
                       * Single Point Calculation *
                       ****************************

---------------------------------
CARTESIAN COORDINATES (ANGSTROEM)
---------------------------------
  C      0.816070   -2.101490   -2.186550
  H      1.696230   -2.368690   -1.600460
  C      1.100550   -2.467490   -3.599270
  C      0.516240   -0.613630   -2.039370
  H     -0.020070   -2.712850   -1.840840
  H      1.700610   -1.757230   -4.078380
  H      0.293860   -2.359770   -4.256320
  H      1.501320   -3.428480   -3.694910
  H     -0.348410   -0.365040   -2.618580
  H      1.353580   -0.045030   -2.386430
  H      0.333170   -0.386820   -1.009840

----------------------------
CARTESIAN COORDINATES (A.U.)
----------------------------
  NO LB      ZA    FRAG     MASS         X           Y           Z
   0 C     6.0000    0    12.011    1.542149   -3.971241   -4.131981
   1 H     1.0000    0     1.008    3.205410   -4.476175   -3.024431
   2 C     6.0000    0    12.011    2.079738   -4.662880   -6.801635
   3 C     6.0000    0    12.011    0.975552   -1.159593   -3.853851
   4 H     1.0000    0     1.008   -0.037927   -5.126544   -3.478683
   5 H     1.0000    0     1.008    3.213687   -3.320683   -7.707021
   6 H     1.0000    0     1.008    0.555315   -4.459319   -8.043279
   7 H     1.0000    0     1.008    2.837084   -6.478888   -6.982368
   8 H     1.0000    0     1.008   -0.658399   -0.689826   -4.948399
   9 H     1.0000    0     1.008    2.557896   -0.085094   -4.509699
  10 H     1.0000    0     1.008    0.629600   -0.730984   -1.908321

--------------------------------
INTERNAL COORDINATES (ANGSTROEM)
--------------------------------
 C      0   0   0     0.000000000000     0.00000000     0.00000000
 H      1   0   0     1.090678208135     0.00000000     0.00000000
 C      1   2   0     1.486829737663   107.20969654     0.00000000
 C      1   2   3     1.524889294637   110.23327792   238.23497714
 H      1   2   3     1.091973696249   108.09753525   116.23750786
 H      3   1   2     1.045986454645   112.19915537   280.57074603
 H      3   1   2     1.045976604423   115.08391716   173.58599447
 H      3   1   2     1.045593316065   112.73631811    47.10374094
 H      4   1   2     1.070000390047   109.47083399   180.00016847
 H      4   1   2     1.069997607100   109.47052368    60.00053848
 H      4   1   2     1.069995056951   109.47133092   300.00053156

---------------------------
INTERNAL COORDINATES (A.U.)
---------------------------
 C      0   0   0     0.000000000000     0.00000000     0.00000000
 H      1   0   0     2.061083113611     0.00000000     0.00000000
 C      1   2   0     2.809701011954   107.20969654     0.00000000
 C      1   2   3     2.881623151413   110.23327792   238.23497714
 H      1   2   3     2.063531231357   108.09753525   116.23750786
 H      3   1   2     1.976627939070   112.19915537   280.57074603
 H      3   1   2     1.976609324848   115.08391716   173.58599447
 H      3   1   2     1.975885014822   112.73631811    47.10374094
 H      4   1   2     2.022007700377   109.47083399   180.00016847
 H      4   1   2     2.022002441370   109.47052368    60.00053848
 H      4   1   2     2.021997622287   109.47133092   300.00053156

---------------------
BASIS SET INFORMATION
---------------------
There are 2 groups of distinct atoms

 Group   1 Type C   : 12s6p3d1f contracted to 6s3p3d1f pattern {621111/411/111/1}
 Group   2 Type H   : 5s2p contracted to 3s2p pattern {311/11}

Atom   0C    basis set group =>   1
Atom   1H    basis set group =>   2
Atom   2C    basis set group =>   1
Atom   3C    basis set group =>   1
Atom   4H    basis set group =>   2
Atom   5H    basis set group =>   2
Atom   6H    basis set group =>   2
Atom   7H    basis set group =>   2
Atom   8H    basis set group =>   2
Atom   9H    basis set group =>   2
Atom  10H    basis set group =>   2
---------------------------------
AUXILIARY/J BASIS SET INFORMATION
---------------------------------
There are 2 groups of distinct atoms

 Group   1 Type C   : 12s5p4d2f1g contracted to 6s4p3d1f1g pattern {711111/2111/211/2/1}
 Group   2 Type H   : 5s2p1d contracted to 3s1p1d pattern {311/2/1}

Atom   0C    basis set group =>   1
Atom   1H    basis set group =>   2
Atom   2C    basis set group =>   1
Atom   3C    basis set group =>   1
Atom   4H    basis set group =>   2
Atom   5H    basis set group =>   2
Atom   6H    basis set group =>   2
Atom   7H    basis set group =>   2
Atom   8H    basis set group =>   2
Atom   9H    basis set group =>   2
Atom  10H    basis set group =>   2


           ************************************************************
           *        Program running with 4 parallel MPI-processes     *
           *              working on a common directory               *
           ************************************************************
------------------------------------------------------------------------------
                           ORCA GTO INTEGRAL CALCULATION
                           -- RI-GTO INTEGRALS CHOSEN --
------------------------------------------------------------------------------
------------------------------------------------------------------------------
                   ___                                                        
                  /   \      - P O W E R E D   B Y -                         
                 /     \                                                     
                 |  |  |   _    _      __       _____    __    __             
                 |  |  |  | |  | |    /  \     |  _  \  |  |  /  |          
                  \  \/   | |  | |   /    \    | | | |  |  | /  /          
                 / \  \   | |__| |  /  /\  \   | |_| |  |  |/  /          
                |  |  |   |  __  | /  /__\  \  |    /   |      \           
                |  |  |   | |  | | |   __   |  |    \   |  |\   \          
                \     /   | |  | | |  |  |  |  | |\  \  |  | \   \       
                 \___/    |_|  |_| |__|  |__|  |_| \__\ |__|  \__/        
                                                                              
                      - O R C A' S   B I G   F R I E N D -                    
                                      &                                       
                       - I N T E G R A L  F E E D E R -                       
                                                                              
 v1 FN, 2020, v2 2021                                                         
------------------------------------------------------------------------------


Reading SHARK input file TZVPD_B3LYP_C1_wt_dlpno_pos.SHARKINP.tmp ... ok
----------------------
SHARK INTEGRAL PACKAGE
----------------------

Number of atoms                             ...     11
Number of basis functions                   ...    183
Number of shells                            ...     79
Maximum angular momentum                    ...      3
Integral batch strategy                     ... SHARK/LIBINT Hybrid
RI-J (if used) integral strategy            ... SPLIT-RIJ (Revised 2003 algorithm where possible)
Printlevel                                  ...      1
Contraction scheme used                     ... SEGMENTED contraction
Coulomb Range Separation                    ... NOT USED
Exchange Range Separation                   ... NOT USED
Finite Nucleus Model                        ... NOT USED
Auxiliary Coulomb fitting basis             ... AVAILABLE
   # of basis functions in Aux-J            ...    235
   # of shells in Aux-J                     ...     85
   Maximum angular momentum in Aux-J        ...      4
Auxiliary J/K fitting basis                 ... NOT available
Auxiliary Correlation fitting basis         ... NOT available
Auxiliary 'external' fitting basis          ... NOT available
Integral threshold                          ...     2.500000e-11
Primitive cut-off                           ...     2.500000e-12
Primitive pair pre-selection threshold      ...     2.500000e-12

Calculating pre-screening integrals         ... done (  0.1 sec) Dimension = 79
Organizing shell pair data                  ... done (  0.0 sec)
Shell pair information
Total number of shell pairs                 ...      3160
Shell pairs after pre-screening             ...      3137
Total number of primitive shell pairs       ...      7593
Primitive shell pairs kept                  ...      6669
          la=0 lb=0:    884 shell pairs
          la=1 lb=0:   1046 shell pairs
          la=1 lb=1:    325 shell pairs
          la=2 lb=0:    378 shell pairs
          la=2 lb=1:    225 shell pairs
          la=2 lb=2:     45 shell pairs
          la=3 lb=0:    126 shell pairs
          la=3 lb=1:     75 shell pairs
          la=3 lb=2:     27 shell pairs
          la=3 lb=3:      6 shell pairs

Calculating one electron integrals          ... done (  0.0 sec)
Calculating RI/J V-Matrix + Cholesky decomp.... done (  0.0 sec)
Calculating Nuclear repulsion               ... done (  0.0 sec) ENN=     84.242459195857 Eh

SHARK setup successfully completed in   0.2 seconds

Maximum memory used throughout the entire GTOINT-calculation: 13.8 MB


           ************************************************************
           *        Program running with 4 parallel MPI-processes     *
           *              working on a common directory               *
           ************************************************************
-------------------------------------------------------------------------------
                                 ORCA SCF
-------------------------------------------------------------------------------

------------
SCF SETTINGS
------------
Hamiltonian:
 Density Functional     Method          .... DFT(GTOs)
 Exchange Functional    Exchange        .... B88
   X-Alpha parameter    XAlpha          ....  0.666667
   Becke's b parameter  XBeta           ....  0.004200
 Correlation Functional Correlation     .... LYP
 LDA part of GGA corr.  LDAOpt          .... VWN-5
 Gradients option       PostSCFGGA      .... off
 Hybrid DFT is turned on
   Fraction HF Exchange ScalHFX         ....  0.200000
   Scaling of DF-GGA-X  ScalDFX         ....  0.720000
   Scaling of DF-GGA-C  ScalDFC         ....  0.810000
   Scaling of DF-LDA-C  ScalLDAC        ....  1.000000
   Perturbative correction              ....  0.000000
   Density functional embedding theory  .... OFF
   NL short-range parameter             ....  4.800000
 RI-approximation to the Coulomb term is turned on
   Number of AuxJ basis functions       .... 235
   RIJ-COSX (HFX calculated with COS-X)).... on


General Settings:
 Integral files         IntName         .... TZVPD_B3LYP_C1_wt_dlpno_pos
 Hartree-Fock type      HFTyp           .... RHF
 Total Charge           Charge          ....    0
 Multiplicity           Mult            ....    1
 Number of Electrons    NEL             ....   26
 Basis Dimension        Dim             ....  183
 Nuclear Repulsion      ENuc            ....     84.2424591959 Eh

Convergence Acceleration:
 DIIS                   CNVDIIS         .... on
   Start iteration      DIISMaxIt       ....    12
   Startup error        DIISStart       ....  0.200000
   # of expansion vecs  DIISMaxEq       ....     5
   Bias factor          DIISBfac        ....   1.050
   Max. coefficient     DIISMaxC        ....  10.000
 Trust-Rad. Augm. Hess. CNVTRAH         .... auto
   Auto Start mean grad. ratio tolernc. ....  1.125000
   Auto Start start iteration           ....    20
   Auto Start num. interpolation iter.  ....    10
   Max. Number of Micro iterations      ....    16
   Max. Number of Macro iterations      .... Maxiter - #DIIS iter
   Number of Davidson start vectors     ....     2
   Converg. threshold I  (grad. norm)   ....   1.000e-05
   Converg. threshold II (energy diff.) ....   1.000e-08
   Grad. Scal. Fac. for Micro threshold ....   0.100
   Minimum threshold for Micro iter.    ....   0.010
   NR start threshold (gradient norm)   ....   0.001
   Initial trust radius                 ....   0.400
   Minimum AH scaling param. (alpha)    ....   1.000
   Maximum AH scaling param. (alpha)    .... 1000.000
   Orbital update algorithm             .... Taylor
   White noise on init. David. guess    .... on
   Maximum white noise                  ....   0.010
   Quad. conv. algorithm                .... NR
 SOSCF                  CNVSOSCF        .... on
   Start iteration      SOSCFMaxIt      ....   150
   Startup grad/error   SOSCFStart      ....  0.003300
 Level Shifting         CNVShift        .... on
   Level shift para.    LevelShift      ....    0.2500
   Turn off err/grad.   ShiftErr        ....    0.0010
 Zerner damping         CNVZerner       .... off
 Static damping         CNVDamp         .... on
   Fraction old density DampFac         ....    0.7000
   Max. Damping (<1)    DampMax         ....    0.9800
   Min. Damping (>=0)   DampMin         ....    0.0000
   Turn off err/grad.   DampErr         ....    0.1000
 Fernandez-Rico         CNVRico         .... off

SCF Procedure:
 Maximum # iterations   MaxIter         ....   150
 SCF integral mode      SCFMode         .... Direct
   Integral package                     .... SHARK and LIBINT hybrid scheme
 Reset frequency        DirectResetFreq ....    20
 Integral Threshold     Thresh          ....  2.500e-11 Eh
 Primitive CutOff       TCut            ....  2.500e-12 Eh

Convergence Tolerance:
 Convergence Check Mode ConvCheckMode   .... Total+1el-Energy
 Convergence forced     ConvForced      .... 0
 Energy Change          TolE            ....  1.000e-08 Eh
 1-El. energy change                    ....  1.000e-05 Eh
 Orbital Gradient       TolG            ....  1.000e-05
 Orbital Rotation angle TolX            ....  1.000e-05
 DIIS Error             TolErr          ....  5.000e-07


Diagonalization of the overlap matrix:
Smallest eigenvalue                        ... 1.021e-05
Time for diagonalization                   ...    0.010 sec
Threshold for overlap eigenvalues          ... 1.000e-08
Number of eigenvalues below threshold      ... 0
Time for construction of square roots      ...    0.007 sec
Total time needed                          ...    0.018 sec

Time for model grid setup =    0.061 sec

------------------------------
INITIAL GUESS: MODEL POTENTIAL
------------------------------
Loading Hartree-Fock densities                     ... done
Calculating cut-offs                               ... done
Initializing the effective Hamiltonian             ... done
Setting up the integral package (SHARK)            ... done
Starting the Coulomb interaction                   ... done (   0.0 sec)
Reading the grid                                   ... done
Mapping shells                                     ... done
Starting the XC term evaluation                    ... done (   0.1 sec)
  promolecular density results
     # of electrons  =     25.996607448
     EX              =    -17.837444969
     EC              =     -0.805946662
     EX+EC           =    -18.643391631
Transforming the Hamiltonian                       ... done (   0.0 sec)
Diagonalizing the Hamiltonian                      ... done (   0.0 sec)
Back transforming the eigenvectors                 ... done (   0.0 sec)
Now organizing SCF variables                       ... done
                      ------------------
                      INITIAL GUESS DONE (   0.2 sec)
                      ------------------
-------------------
DFT GRID GENERATION
-------------------

General Integration Accuracy     IntAcc      ... 4.388
Radial Grid Type                 RadialGrid  ... OptM3 with GC (2021)
Angular Grid (max. ang.)         AngularGrid ... 4 (Lebedev-302)
Angular grid pruning method      GridPruning ... 4 (adaptive)
Weight generation scheme         WeightScheme... Becke
Basis function cutoff            BFCut       ... 1.0000e-11
Integration weight cutoff        WCut        ... 1.0000e-14
Angular grids for H and He will be reduced by one unit
Partially contracted basis set               ... off
Rotationally invariant grid construction     ... off

Total number of grid points                  ...    46387
Total number of batches                      ...      730
Average number of points per batch           ...       63
Average number of grid points per atom       ...     4217
Time for grid setup =    0.363 sec

--------------------
COSX GRID GENERATION
--------------------

GRIDX 1
-------
General Integration Accuracy     IntAcc      ... 3.816
Radial Grid Type                 RadialGrid  ... OptM3 with GC (2021)
Angular Grid (max. ang.)         AngularGrid ... 1 (Lebedev-50)
Angular grid pruning method      GridPruning ... 4 (adaptive)
Weight generation scheme         WeightScheme... Becke
Basis function cutoff            BFCut       ... 1.0000e-11
Integration weight cutoff        WCut        ... 1.0000e-14
Angular grids for H and He will be reduced by one unit
Partially contracted basis set               ... on
Rotationally invariant grid construction     ... off

Total number of grid points                  ...     5837
Total number of batches                      ...       97
Average number of points per batch           ...       60
Average number of grid points per atom       ...      531
UseSFitting                                  ... on

GRIDX 2
-------
General Integration Accuracy     IntAcc      ... 4.020
Radial Grid Type                 RadialGrid  ... OptM3 with GC (2021)
Angular Grid (max. ang.)         AngularGrid ... 2 (Lebedev-110)
Angular grid pruning method      GridPruning ... 4 (adaptive)
Weight generation scheme         WeightScheme... Becke
Basis function cutoff            BFCut       ... 1.0000e-11
Integration weight cutoff        WCut        ... 1.0000e-14
Angular grids for H and He will be reduced by one unit
Partially contracted basis set               ... on
Rotationally invariant grid construction     ... off

Total number of grid points                  ...    13405
Total number of batches                      ...      217
Average number of points per batch           ...       61
Average number of grid points per atom       ...     1219
UseSFitting                                  ... on

GRIDX 3
-------
General Integration Accuracy     IntAcc      ... 4.338
Radial Grid Type                 RadialGrid  ... OptM3 with GC (2021)
Angular Grid (max. ang.)         AngularGrid ... 3 (Lebedev-194)
Angular grid pruning method      GridPruning ... 4 (adaptive)
Weight generation scheme         WeightScheme... Becke
Basis function cutoff            BFCut       ... 1.0000e-11
Integration weight cutoff        WCut        ... 1.0000e-14
Angular grids for H and He will be reduced by one unit
Partially contracted basis set               ... on
Rotationally invariant grid construction     ... off

Total number of grid points                  ...    30574
Total number of batches                      ...      482
Average number of points per batch           ...       63
Average number of grid points per atom       ...     2779
UseSFitting                                  ... on

Time for X-Grid setup             =    0.420 sec

--------------
SCF ITERATIONS
--------------
ITER       Energy         Delta-E        Max-DP      RMS-DP      [F,P]     Damp
               ***  Starting incremental Fock matrix formation  ***
  0   -118.9008324427   0.000000000000 0.17228226  0.00268676  0.2194577 0.7000
  1   -118.9877709382  -0.086938495572 0.10285429  0.00174364  0.1142761 0.7000
                               ***Turning on DIIS***
  2   -119.0225585939  -0.034787655706 0.09917909  0.00279697  0.0427316 0.0000
  3   -119.0703279552  -0.047769361303 0.08170691  0.00112623  0.0636190 0.0000
  4   -119.0853976135  -0.015069658224 0.01333521  0.00021968  0.0136731 0.0000
                      *** Initiating the SOSCF procedure ***
                           *** Shutting down DIIS ***
                      *** Re-Reading the Fockian *** 
                      *** Removing any level shift *** 
ITER      Energy       Delta-E        Grad      Rot      Max-DP    RMS-DP
  5   -119.08613006  -0.0007324438  0.000834  0.000834  0.002478  0.000078
               *** Restarting incremental Fock matrix formation ***
  6   -119.08618347  -0.0000534155  0.000371  0.000938  0.003294  0.000101
  7   -119.08618458  -0.0000011121  0.000316  0.000255  0.001158  0.000022
  8   -119.08618912  -0.0000045304  0.000025  0.000037  0.000152  0.000006
  9   -119.08618914  -0.0000000225  0.000016  0.000011  0.000042  0.000002
 10   -119.08618915  -0.0000000087  0.000003  0.000008  0.000049  0.000001
                  ***Gradient check signals convergence***
              ***Rediagonalizing the Fockian in SOSCF/NRSCF***

               *****************************************************
               *                     SUCCESS                       *
               *           SCF CONVERGED AFTER  11 CYCLES          *
               *****************************************************

Old exchange energy                            =     -3.699943875 Eh
New exchange energy                            =     -3.699935574 Eh
Exchange energy change after final integration =      0.000008301 Eh
Total energy after final integration           =   -119.086180844 Eh
Final COS-X integration done in                =     1.836 sec

----------------
TOTAL SCF ENERGY
----------------

Total Energy       :         -119.08618084 Eh           -3240.49972 eV

Components:
Nuclear Repulsion  :           84.24245920 Eh            2292.35386 eV
Electronic Energy  :         -203.32864004 Eh           -5532.85358 eV
One Electron Energy:         -325.07113050 Eh           -8845.63516 eV
Two Electron Energy:          121.74249046 Eh            3312.78158 eV
Max COSX asymmetry :            0.00000081 Eh               0.00002 eV

Virial components:
Potential Energy   :         -237.92718357 Eh           -6474.32781 eV
Kinetic Energy     :          118.84100272 Eh            3233.82809 eV
Virial Ratio       :            2.00206308


DFT components:
N(Alpha)           :       12.999982495178 electrons
N(Beta)            :       12.999982495178 electrons
N(Total)           :       25.999964990355 electrons
E(X)               :      -14.644376366340 Eh       
E(C)               :       -0.964204019487 Eh       
E(XC)              :      -15.608580385827 Eh       
DFET-embed. en.    :        0.000000000000 Eh       

---------------
SCF CONVERGENCE
---------------

  Last Energy change         ...    1.1355e-09  Tolerance :   1.0000e-08
  Last MAX-Density change    ...    6.6613e-16  Tolerance :   1.0000e-07
  Last RMS-Density change    ...    1.5770e-17  Tolerance :   5.0000e-09
  Last Orbital Gradient      ...    2.4492e-06  Tolerance :   1.0000e-05
  Last Orbital Rotation      ...    3.1663e-06  Tolerance :   1.0000e-05

             **** THE GBW FILE WAS UPDATED (TZVPD_B3LYP_C1_wt_dlpno_pos.gbw) ****
             **** DENSITY TZVPD_B3LYP_C1_wt_dlpno_pos.scfp WAS UPDATED ****
             **** ENERGY FILE WAS UPDATED (TZVPD_B3LYP_C1_wt_dlpno_pos.en.tmp) ****
             **** THE GBW FILE WAS UPDATED (TZVPD_B3LYP_C1_wt_dlpno_pos.gbw) ****
             **** DENSITY TZVPD_B3LYP_C1_wt_dlpno_pos.scfp WAS UPDATED ****
----------------
ORBITAL ENERGIES
----------------

  NO   OCC          E(Eh)            E(eV) 
   0   2.0000     -10.155907      -276.3563 
   1   2.0000     -10.145668      -276.0777 
   2   2.0000     -10.132713      -275.7251 
   3   2.0000      -0.788519       -21.4567 
   4   2.0000      -0.687650       -18.7119 
   5   2.0000      -0.589121       -16.0308 
   6   2.0000      -0.459378       -12.5003 
   7   2.0000      -0.445274       -12.1165 
   8   2.0000      -0.412127       -11.2146 
   9   2.0000      -0.376184       -10.2365 
  10   2.0000      -0.342079        -9.3084 
  11   2.0000      -0.336890        -9.1672 
  12   2.0000      -0.321574        -8.7505 
  13   0.0000       0.012454         0.3389 
  14   0.0000       0.036263         0.9868 
  15   0.0000       0.037944         1.0325 
  16   0.0000       0.060557         1.6479 
  17   0.0000       0.081598         2.2204 
  18   0.0000       0.096115         2.6154 
  19   0.0000       0.099989         2.7208 
  20   0.0000       0.103201         2.8083 
  21   0.0000       0.122482         3.3329 
  22   0.0000       0.136778         3.7219 
  23   0.0000       0.141576         3.8525 
  24   0.0000       0.147423         4.0116 
  25   0.0000       0.167205         4.5499 
  26   0.0000       0.172174         4.6851 
  27   0.0000       0.183498         4.9932 
  28   0.0000       0.192836         5.2473 
  29   0.0000       0.222848         6.0640 
  30   0.0000       0.226947         6.1755 
  31   0.0000       0.235982         6.4214 
  32   0.0000       0.247255         6.7282 
  33   0.0000       0.253742         6.9047 
  34   0.0000       0.266112         7.2413 
  35   0.0000       0.270394         7.3578 
  36   0.0000       0.278366         7.5747 
  37   0.0000       0.285508         7.7691 
  38   0.0000       0.289577         7.8798 
  39   0.0000       0.305383         8.3099 
  40   0.0000       0.306748         8.3470 
  41   0.0000       0.309698         8.4273 
  42   0.0000       0.314645         8.5619 
  43   0.0000       0.322197         8.7674 
  44   0.0000       0.324439         8.8284 
  45   0.0000       0.330985         9.0066 
  46   0.0000       0.349425         9.5083 
  47   0.0000       0.354788         9.6543 
  48   0.0000       0.378090        10.2883 
  49   0.0000       0.381536        10.3821 
  50   0.0000       0.402728        10.9588 
  51   0.0000       0.413221        11.2443 
  52   0.0000       0.416937        11.3454 
  53   0.0000       0.420742        11.4490 
  54   0.0000       0.424620        11.5545 
  55   0.0000       0.426330        11.6010 
  56   0.0000       0.435370        11.8470 
  57   0.0000       0.438484        11.9318 
  58   0.0000       0.447661        12.1815 
  59   0.0000       0.456974        12.4349 
  60   0.0000       0.460219        12.5232 
  61   0.0000       0.481272        13.0961 
  62   0.0000       0.500654        13.6235 
  63   0.0000       0.521014        14.1775 
  64   0.0000       0.532127        14.4799 
  65   0.0000       0.541313        14.7299 
  66   0.0000       0.589983        16.0543 
  67   0.0000       0.624519        16.9940 
  68   0.0000       0.647132        17.6094 
  69   0.0000       0.651621        17.7315 
  70   0.0000       0.658337        17.9143 
  71   0.0000       0.680462        18.5163 
  72   0.0000       0.688571        18.7370 
  73   0.0000       0.694916        18.9096 
  74   0.0000       0.700556        19.0631 
  75   0.0000       0.707097        19.2411 
  76   0.0000       0.717906        19.5352 
  77   0.0000       0.727572        19.7982 
  78   0.0000       0.736960        20.0537 
  79   0.0000       0.744938        20.2708 
  80   0.0000       0.757962        20.6252 
  81   0.0000       0.764744        20.8097 
  82   0.0000       0.795962        21.6592 
  83   0.0000       0.834642        22.7118 
  84   0.0000       0.847926        23.0732 
  85   0.0000       0.936698        25.4888 
  86   0.0000       0.959236        26.1021 
  87   0.0000       0.969618        26.3847 
  88   0.0000       1.003419        27.3044 
  89   0.0000       1.051472        28.6120 
  90   0.0000       1.073307        29.2062 
  91   0.0000       1.160637        31.5825 
  92   0.0000       1.179446        32.0943 
  93   0.0000       1.228550        33.4305 
  94   0.0000       1.232352        33.5340 
  95   0.0000       1.263431        34.3797 
  96   0.0000       1.290032        35.1036 
  97   0.0000       1.307439        35.5772 
  98   0.0000       1.352337        36.7990 
  99   0.0000       1.397673        38.0326 
 100   0.0000       1.645602        44.7791 
 101   0.0000       1.735232        47.2181 
 102   0.0000       1.747700        47.5573 
 103   0.0000       1.756124        47.7866 
 104   0.0000       1.767897        48.1069 
 105   0.0000       1.811128        49.2833 
 106   0.0000       1.830909        49.8216 
 107   0.0000       1.831241        49.8306 
 108   0.0000       1.838493        50.0279 
 109   0.0000       1.845271        50.2124 
 110   0.0000       1.877586        51.0917 
 111   0.0000       1.893960        51.5373 
 112   0.0000       1.928036        52.4645 
 113   0.0000       1.935040        52.6551 
 114   0.0000       2.030595        55.2553 
 115   0.0000       2.042398        55.5765 
 116   0.0000       2.054334        55.9013 
 117   0.0000       2.094877        57.0045 
 118   0.0000       2.151766        58.5525 
 119   0.0000       2.223468        60.5036 
 120   0.0000       2.294384        62.4334 
 121   0.0000       2.333993        63.5112 
 122   0.0000       2.379198        64.7413 
 123   0.0000       2.414028        65.6890 
 124   0.0000       2.429557        66.1116 
 125   0.0000       2.482491        67.5520 
 126   0.0000       2.507776        68.2400 
 127   0.0000       2.517356        68.5007 
 128   0.0000       2.535562        68.9961 
 129   0.0000       2.589245        70.4570 
 130   0.0000       2.633058        71.6491 
 131   0.0000       2.647241        72.0351 
 132   0.0000       2.667629        72.5899 
 133   0.0000       2.703997        73.5795 
 134   0.0000       2.725102        74.1538 
 135   0.0000       2.737707        74.4968 
 136   0.0000       2.748249        74.7837 
 137   0.0000       2.772831        75.4526 
 138   0.0000       2.807574        76.3980 
 139   0.0000       2.862997        77.9061 
 140   0.0000       2.875859        78.2561 
 141   0.0000       2.952434        80.3398 
 142   0.0000       3.005826        81.7927 
 143   0.0000       3.097712        84.2930 
 144   0.0000       3.118027        84.8458 
 145   0.0000       3.125654        85.0534 
 146   0.0000       3.179738        86.5251 
 147   0.0000       3.212798        87.4247 
 148   0.0000       3.272470        89.0484 
 149   0.0000       3.288112        89.4741 
 150   0.0000       3.299151        89.7745 
 151   0.0000       3.305573        89.9492 
 152   0.0000       3.393825        92.3507 
 153   0.0000       3.434809        93.4659 
 154   0.0000       3.439774        93.6010 
 155   0.0000       3.464467        94.2729 
 156   0.0000       3.530602        96.0726 
 157   0.0000       3.562921        96.9520 
 158   0.0000       3.589489        97.6750 
 159   0.0000       3.632001        98.8318 
 160   0.0000       3.692942       100.4901 
 161   0.0000       3.704744       100.8112 
 162   0.0000       3.727975       101.4434 
 163   0.0000       3.909171       106.3740 
 164   0.0000       3.974187       108.1431 
 165   0.0000       3.987407       108.5028 
 166   0.0000       4.085663       111.1765 
 167   0.0000       4.101033       111.5948 
 168   0.0000       4.124780       112.2410 
 169   0.0000       4.189181       113.9934 
 170   0.0000       4.388488       119.4168 
 171   0.0000       4.500134       122.4549 
 172   0.0000       4.508040       122.6700 
 173   0.0000       4.594798       125.0308 
 174   0.0000       4.644637       126.3870 
 175   0.0000       4.729394       128.6934 
 176   0.0000       4.754595       129.3791 
 177   0.0000       4.845048       131.8405 
 178   0.0000       4.954808       134.8272 
 179   0.0000       4.973576       135.3379 
 180   0.0000      22.590221       614.7112 
 181   0.0000      22.637907       616.0088 
 182   0.0000      22.730165       618.5192 

                    ********************************
                    * MULLIKEN POPULATION ANALYSIS *
                    ********************************

-----------------------
MULLIKEN ATOMIC CHARGES
-----------------------
   0 C :    0.129600
   1 H :    0.208413
   2 C :   -1.282543
   3 C :   -1.087180
   4 H :    0.199930
   5 H :    0.340683
   6 H :    0.357322
   7 H :    0.279907
   8 H :    0.293803
   9 H :    0.295776
  10 H :    0.264291
Sum of atomic charges:   -0.0000000

--------------------------------
MULLIKEN REDUCED ORBITAL CHARGES
--------------------------------
  0 C s       :     3.080192  s :     3.080192
      pz      :     0.918353  p :     2.951591
      px      :     1.115493
      py      :     0.917745
      dz2     :    -0.006546  d :    -0.167608
      dxz     :    -0.062339
      dyz     :    -0.037301
      dx2y2   :    -0.017606
      dxy     :    -0.043816
      f0      :     0.001514  f :     0.006226
      f+1     :     0.001005
      f-1     :     0.000997
      f+2     :     0.000707
      f-2     :     0.000215
      f+3     :     0.000845
      f-3     :     0.000942
  1 H s       :     0.726112  s :     0.726112
      pz      :     0.025764  p :     0.065475
      px      :     0.029048
      py      :     0.010663
  2 C s       :     3.560446  s :     3.560446
      pz      :     1.024558  p :     3.640794
      px      :     1.342217
      py      :     1.274018
      dz2     :     0.001366  d :     0.077571
      dxz     :     0.020177
      dyz     :     0.001918
      dx2y2   :     0.017913
      dxy     :     0.036197
      f0      :     0.001141  f :     0.003733
      f+1     :     0.000935
      f-1     :     0.000722
      f+2     :     0.000228
      f-2     :     0.000164
      f+3     :     0.000447
      f-3     :     0.000096
  3 C s       :     3.469977  s :     3.469977
      pz      :     1.273808  p :     3.541896
      px      :     1.292958
      py      :     0.975129
      dz2     :     0.026004  d :     0.071731
      dxz     :     0.045546
      dyz     :     0.003290
      dx2y2   :    -0.000705
      dxy     :    -0.002404
      f0      :     0.000934  f :     0.003576
      f+1     :     0.000253
      f-1     :     0.000250
      f+2     :     0.000493
      f-2     :    -0.000001
      f+3     :     0.000751
      f-3     :     0.000895
  4 H s       :     0.737142  s :     0.737142
      pz      :     0.018945  p :     0.062929
      px      :     0.022041
      py      :     0.021942
  5 H s       :     0.601358  s :     0.601358
      pz      :     0.013671  p :     0.057959
      px      :     0.026201
      py      :     0.018087
  6 H s       :     0.588085  s :     0.588085
      pz      :     0.018729  p :     0.054594
      px      :     0.021005
      py      :     0.014860
  7 H s       :     0.630664  s :     0.630664
      pz      :     0.020557  p :     0.089428
      px      :     0.034825
      py      :     0.034046
  8 H s       :     0.638531  s :     0.638531
      pz      :     0.021346  p :     0.067667
      px      :     0.034831
      py      :     0.011490
  9 H s       :     0.634531  s :     0.634531
      pz      :     0.019729  p :     0.069693
      px      :     0.029029
      py      :     0.020936
 10 H s       :     0.654272  s :     0.654272
      pz      :     0.034426  p :     0.081438
      px      :     0.027687
      py      :     0.019325


                     *******************************
                     * LOEWDIN POPULATION ANALYSIS *
                     *******************************

----------------------
LOEWDIN ATOMIC CHARGES
----------------------
   0 C :   -0.313152
   1 H :    0.100465
   2 C :   -0.136003
   3 C :   -0.111835
   4 H :    0.101588
   5 H :    0.055864
   6 H :    0.057784
   7 H :    0.057764
   8 H :    0.064863
   9 H :    0.063927
  10 H :    0.058734

-------------------------------
LOEWDIN REDUCED ORBITAL CHARGES
-------------------------------
  0 C s       :     2.684124  s :     2.684124
      pz      :     0.943965  p :     2.801404
      px      :     0.928225
      py      :     0.929215
      dz2     :     0.148415  d :     0.783341
      dxz     :     0.166792
      dyz     :     0.197043
      dx2y2   :     0.112084
      dxy     :     0.159008
      f0      :     0.009153  f :     0.044282
      f+1     :     0.005613
      f-1     :     0.008093
      f+2     :     0.006268
      f-2     :     0.004521
      f+3     :     0.004878
      f-3     :     0.005757
  1 H s       :     0.695446  s :     0.695446
      pz      :     0.065595  p :     0.204089
      px      :     0.085324
      py      :     0.053170
  2 C s       :     2.710094  s :     2.710094
      pz      :     0.955146  p :     2.891285
      px      :     0.976701
      py      :     0.959438
      dz2     :     0.122841  d :     0.503757
      dxz     :     0.169610
      dyz     :     0.108572
      dx2y2   :     0.046320
      dxy     :     0.056414
      f0      :     0.006926  f :     0.030868
      f+1     :     0.005154
      f-1     :     0.006234
      f+2     :     0.004637
      f-2     :     0.003890
      f+3     :     0.003286
      f-3     :     0.000741
  3 C s       :     2.730374  s :     2.730374
      pz      :     0.964360  p :     2.885829
      px      :     0.969261
      py      :     0.952208
      dz2     :     0.080131  d :     0.467440
      dxz     :     0.053618
      dyz     :     0.107226
      dx2y2   :     0.088424
      dxy     :     0.138041
      f0      :     0.005182  f :     0.028191
      f+1     :     0.001114
      f-1     :     0.003200
      f+2     :     0.005233
      f-2     :     0.002963
      f+3     :     0.004785
      f-3     :     0.005714
  4 H s       :     0.696505  s :     0.696505
      pz      :     0.056527  p :     0.201907
      px      :     0.081883
      py      :     0.063497
  5 H s       :     0.703147  s :     0.703147
      pz      :     0.064901  p :     0.240988
      px      :     0.087154
      py      :     0.088933
  6 H s       :     0.707560  s :     0.707560
      pz      :     0.070462  p :     0.234656
      px      :     0.099022
      py      :     0.065171
  7 H s       :     0.715653  s :     0.715653
      pz      :     0.055500  p :     0.226583
      px      :     0.070768
      py      :     0.100314
  8 H s       :     0.709487  s :     0.709487
      pz      :     0.077309  p :     0.225650
      px      :     0.090956
      py      :     0.057385
  9 H s       :     0.708074  s :     0.708074
      pz      :     0.068806  p :     0.227999
      px      :     0.091214
      py      :     0.067979
 10 H s       :     0.715632  s :     0.715632
      pz      :     0.106210  p :     0.225634
      px      :     0.061898
      py      :     0.057526


                      *****************************
                      * MAYER POPULATION ANALYSIS *
                      *****************************

  NA   - Mulliken gross atomic population
  ZA   - Total nuclear charge
  QA   - Mulliken gross atomic charge
  VA   - Mayer's total valence
  BVA  - Mayer's bonded valence
  FA   - Mayer's free valence

  ATOM       NA         ZA         QA         VA         BVA        FA
  0 C      5.8704     6.0000     0.1296     2.8805     2.8805    -0.0000
  1 H      0.7916     1.0000     0.2084     1.0053     1.0053    -0.0000
  2 C      7.2825     6.0000    -1.2825     3.6490     3.6490    -0.0000
  3 C      7.0872     6.0000    -1.0872     3.7339     3.7339    -0.0000
  4 H      0.8001     1.0000     0.1999     1.0073     1.0073    -0.0000
  5 H      0.6593     1.0000     0.3407     0.9654     0.9654    -0.0000
  6 H      0.6427     1.0000     0.3573     0.9580     0.9580    -0.0000
  7 H      0.7201     1.0000     0.2799     1.0460     1.0460    -0.0000
  8 H      0.7062     1.0000     0.2938     1.0276     1.0276    -0.0000
  9 H      0.7042     1.0000     0.2958     1.0200     1.0200    -0.0000
 10 H      0.7357     1.0000     0.2643     1.0710     1.0710    -0.0000

  Mayer bond orders larger than 0.100000
B(  0-C ,  1-H ) :   0.9857 B(  0-C ,  2-C ) :   0.5867 B(  0-C ,  3-C ) :   0.6026 
B(  0-C ,  4-H ) :   0.9802 B(  2-C ,  3-C ) :   0.1431 B(  2-C ,  5-H ) :   0.9509 
B(  2-C ,  6-H ) :   0.9475 B(  2-C ,  7-H ) :   0.9849 B(  3-C ,  8-H ) :   0.9791 
B(  3-C ,  9-H ) :   0.9824 B(  3-C , 10-H ) :   0.9975 

-------
TIMINGS
-------

Total SCF time: 0 days 0 hours 0 min 14 sec 

Total time                  ....      14.744 sec
Sum of individual times     ....      14.559 sec  ( 98.7%)

Fock matrix formation       ....      13.451 sec  ( 91.2%)
  Split-RI-J                ....       0.856 sec  (  6.4% of F)
  Chain of spheres X        ....       9.805 sec  ( 72.9% of F)
  XC integration            ....       2.753 sec  ( 20.5% of F)
    Basis function eval.    ....       0.809 sec  ( 29.4% of XC)
    Density eval.           ....       0.631 sec  ( 22.9% of XC)
    XC-Functional eval.     ....       0.138 sec  (  5.0% of XC)
    XC-Potential eval.      ....       0.997 sec  ( 36.2% of XC)
Diagonalization             ....       0.053 sec  (  0.4%)
Density matrix formation    ....       0.005 sec  (  0.0%)
Population analysis         ....       0.008 sec  (  0.1%)
Initial guess               ....       0.134 sec  (  0.9%)
Orbital Transformation      ....       0.000 sec  (  0.0%)
Orbital Orthonormalization  ....       0.000 sec  (  0.0%)
DIIS solution               ....       0.029 sec  (  0.2%)
SOSCF solution              ....       0.036 sec  (  0.2%)
Grid generation             ....       0.844 sec  (  5.7%)

Maximum memory used throughout the entire SCF-calculation: 66.6 MB


-------------------------------------------------------------------------------
                          DFT DISPERSION CORRECTION                            
                                                                               
                              DFTD3 V3.1  Rev 1                                
                          USING Becke-Johnson damping                          
-------------------------------------------------------------------------------
The B3LYP functional is recognized
Active option DFTDOPT                   ...         4   

molecular C6(AA) [au] = 720.556144 


            DFT-D V3
 parameters
 s6 scaling factor         :     1.0000 
 a1 scaling factor         :     0.3981 
 s8 scaling factor         :     1.9889 
 a2 scaling factor         :     4.4211 
 ad hoc parameters k1-k3   :    16.0000     1.3333    -4.0000 

 Edisp/kcal,au: -6.329756243862  -0.010087107574 
 E6   /kcal   :  -3.203814285 
 E8   /kcal   :  -3.125941958 
 % E8         :  49.384871043 

-------------------------   ----------------
Dispersion correction           -0.010087108
-------------------------   ----------------


-------------------------   --------------------
FINAL SINGLE POINT ENERGY      -119.096267951877
-------------------------   --------------------


                            ***************************************
                            *     ORCA property calculations      *
                            ***************************************

                                    ---------------------
                                    Active property flags
                                    ---------------------
   (+) Dipole Moment


------------------------------------------------------------------------------
                       ORCA ELECTRIC PROPERTIES CALCULATION
------------------------------------------------------------------------------

Dipole Moment Calculation                       ... on
Quadrupole Moment Calculation                   ... off
Polarizability Calculation                      ... off
GBWName                                         ... TZVPD_B3LYP_C1_wt_dlpno_pos.gbw
Electron density file                           ... TZVPD_B3LYP_C1_wt_dlpno_pos.scfp
The origin for moment calculation is the CENTER OF MASS  = ( 1.533459, -3.247449 -4.955876)

-------------
DIPOLE MOMENT
-------------
                                X             Y             Z
Electronic contribution:     -0.01852      -0.30890       0.46641
Nuclear contribution   :      0.01737       0.30387      -0.47422
                        -----------------------------------------
Total Dipole Moment    :     -0.00115      -0.00503      -0.00781
                        -----------------------------------------
Magnitude (a.u.)       :      0.00936
Magnitude (Debye)      :      0.02379



--------------------
Rotational spectrum 
--------------------
 
Rotational constants in cm-1:     1.006891     0.295208     0.258491 
Rotational constants in MHz : 30185.831813  8850.104914  7749.351732 

 Dipole components along the rotational axes: 
x,y,z [a.u.] :    -0.008369    -0.002763     0.003155 
x,y,z [Debye]:    -0.021271    -0.007023     0.008018 

 

Timings for individual modules:

Sum of individual times         ...       18.870 sec (=   0.314 min)
GTO integral calculation        ...        2.331 sec (=   0.039 min)  12.4 %
SCF iterations                  ...       16.539 sec (=   0.276 min)  87.6 %
                             ****ORCA TERMINATED NORMALLY****
TOTAL RUN TIME: 0 days 0 hours 0 minutes 19 seconds 432 msec
