
                                        *****************
                                        * O   R   C   A *
                                        *****************

                                            #,                                       
                                            ###                                      
                                            ####                                     
                                            #####                                    
                                            ######                                   
                                           ########,                                 
                                     ,,################,,,,,                         
                               ,,#################################,,                 
                          ,,##########################################,,             
                       ,#########################################, ''#####,          
                    ,#############################################,,   '####,        
                  ,##################################################,,,,####,       
                ,###########''''           ''''###############################       
              ,#####''   ,,,,##########,,,,          '''####'''          '####       
            ,##' ,,,,###########################,,,                        '##       
           ' ,,###''''                  '''############,,,                           
         ,,##''                                '''############,,,,        ,,,,,,###''
      ,#''                                            '''#######################'''  
     '                                                          ''''####''''         
             ,#######,   #######,   ,#######,      ##                                
            ,#'     '#,  ##    ##  ,#'     '#,    #''#        ######   ,####,        
            ##       ##  ##   ,#'  ##            #'  '#       #        #'  '#        
            ##       ##  #######   ##           ,######,      #####,   #    #        
            '#,     ,#'  ##    ##  '#,     ,#' ,#      #,         ##   #,  ,#        
             '#######'   ##     ##  '#######'  #'      '#     #####' # '####'        



                  #######################################################
                  #                        -***-                        #
                  #          Department of theory and spectroscopy      #
                  #    Directorship and core code : Frank Neese         #
                  #        Max Planck Institute fuer Kohlenforschung    #
                  #                Kaiser Wilhelm Platz 1               #
                  #                 D-45470 Muelheim/Ruhr               #
                  #                      Germany                        #
                  #                                                     #
                  #                  All rights reserved                #
                  #                        -***-                        #
                  #######################################################


                         Program Version 5.0.0 -  RELEASE  -
                                (SVN: $Rev: 19529$)
                ($Date: 2021-06-28 11:36:33 +0200 (Mo, 28 Jun 2021) $)


 With contributions from (in alphabetic order):
   Daniel Aravena         : Magnetic Suceptibility
   Michael Atanasov       : Ab Initio Ligand Field Theory (pilot matlab implementation)
   Alexander A. Auer      : GIAO ZORA, VPT2 properties, NMR spectrum
   Ute Becker             : Parallelization
   Giovanni Bistoni       : ED, misc. LED, open-shell LED, HFLD
   Martin Brehm           : Molecular dynamics
   Dmytro Bykov           : SCF Hessian
   Vijay G. Chilkuri      : MRCI spin determinant printing, contributions to CSF-ICE
   Dipayan Datta          : RHF DLPNO-CCSD density
   Achintya Kumar Dutta   : EOM-CC, STEOM-CC
   Dmitry Ganyushin       : Spin-Orbit,Spin-Spin,Magnetic field MRCI
   Miquel Garcia          : C-PCM Hessian, Gaussian charge scheme
   Yang Guo               : DLPNO-NEVPT2, F12-NEVPT2, CIM, IAO-localization
   Andreas Hansen         : Spin unrestricted coupled pair/coupled cluster methods
   Benjamin Helmich-Paris : MC-RPA, TRAH-SCF, COSX integrals
   Lee Huntington         : MR-EOM, pCC
   Robert Izsak           : Overlap fitted RIJCOSX, COSX-SCS-MP3, EOM
   Marcus Kettner         : VPT2
   Christian Kollmar      : KDIIS, OOCD, Brueckner-CCSD(T), CCSD density, CASPT2, CASPT2-K
   Simone Kossmann        : Meta GGA functionals, TD-DFT gradient, OOMP2, MP2 Hessian
   Martin Krupicka        : Initial AUTO-CI
   Lucas Lang             : DCDCAS
   Marvin Lechner         : AUTO-CI (C++ implementation), FIC-MRCC
   Dagmar Lenk            : GEPOL surface, SMD
   Dimitrios Liakos       : Extrapolation schemes; Compound Job, initial MDCI parallelization
   Dimitrios Manganas     : Further ROCIS development; embedding schemes
   Dimitrios Pantazis     : SARC Basis sets
   Anastasios Papadopoulos: AUTO-CI, single reference methods and gradients
   Taras Petrenko         : DFT Hessian,TD-DFT gradient, ASA, ECA, R-Raman, ABS, FL, XAS/XES, NRVS
   Peter Pinski           : DLPNO-MP2, DLPNO-MP2 Gradient
   Christoph Reimann      : Effective Core Potentials
   Marius Retegan         : Local ZFS, SOC
   Christoph Riplinger    : Optimizer, TS searches, QM/MM, DLPNO-CCSD(T), (RO)-DLPNO pert. Triples
   Tobias Risthaus        : Range-separated hybrids, TD-DFT gradient, RPA, STAB
   Michael Roemelt        : Original ROCIS implementation
   Masaaki Saitow         : Open-shell DLPNO-CCSD energy and density
   Barbara Sandhoefer     : DKH picture change effects
   Avijit Sen             : IP-ROCIS
   Kantharuban Sivalingam : CASSCF convergence, NEVPT2, FIC-MRCI
   Bernardo de Souza      : ESD, SOC TD-DFT
   Georgi Stoychev        : AutoAux, RI-MP2 NMR
   Willem Van den Heuvel  : Paramagnetic NMR
   Boris Wezisla          : Elementary symmetry handling
   Frank Wennmohs         : Technical directorship


 We gratefully acknowledge several colleagues who have allowed us to
 interface, adapt or use parts of their codes:
   Stefan Grimme, W. Hujo, H. Kruse, P. Pracht,  : VdW corrections, initial TS optimization,
                  C. Bannwarth, S. Ehlert          DFT functionals, gCP, sTDA/sTD-DF
   Ed Valeev, F. Pavosevic, A. Kumar             : LibInt (2-el integral package), F12 methods
   Garnet Chan, S. Sharma, J. Yang, R. Olivares  : DMRG
   Ulf Ekstrom                                   : XCFun DFT Library
   Mihaly Kallay                                 : mrcc  (arbitrary order and MRCC methods)
   Jiri Pittner, Ondrej Demel                    : Mk-CCSD
   Frank Weinhold                                : gennbo (NPA and NBO analysis)
   Christopher J. Cramer and Donald G. Truhlar   : smd solvation model
   Lars Goerigk                                  : TD-DFT with DH, B97 family of functionals
   V. Asgeirsson, H. Jonsson                     : NEB implementation
   FAccTs GmbH                                   : IRC, NEB, NEB-TS, DLPNO-Multilevel, CI-OPT
                                                   MM, QMMM, 2- and 3-layer-ONIOM, Crystal-QMMM,
                                                   LR-CPCM, SF, NACMEs, symmetry and pop. for TD-DFT,
                                                   nearIR, NL-DFT gradient (VV10), updates on ESD,
                                                   ML-optimized integration grids
   S Lehtola, MJT Oliveira, MAL Marques          : LibXC Library
   Liviu Ungur et al                             : ANISO software


 Your calculation uses the libint2 library for the computation of 2-el integrals
 For citations please refer to: http://libint.valeyev.net

 Your ORCA version has been built with support for libXC version: 5.1.0
 For citations please refer to: https://tddft.org/programs/libxc/

 This ORCA versions uses:
   CBLAS   interface :  Fast vector & matrix operations
   LAPACKE interface :  Fast linear algebra routines
   SCALAPACK package :  Parallel linear algebra routines
   Shared memory     :  Shared parallel matrices
   BLAS/LAPACK       :  OpenBLAS 0.3.15  USE64BITINT DYNAMIC_ARCH NO_AFFINITY Haswell SINGLE_THREADED
        Core in use  :  Haswell
   Copyright (c) 2011-2014, The OpenBLAS Project


XCFun DFT library Copyright 2009-2010 Ulf Ekstrom and contributors.
See http://admol.org/xcfun for more information.
This is free software; see the source code for copying conditions.
There is ABSOLUTELY NO WARRANTY; not even for MERCHANTABILITY or FITNESS FOR A PARTICULAR PURPOSE.
For details see the documentation.
Scientific users of this library should cite U. Ekstrom, L. Visscher, R. Bast, A. J. Thorvaldsen and K. Ruud;
J.Chem.Theor.Comp. 2010, DOI: 10.1021/ct100117s
XCFun Version 0.99 

================================================================================

----- Orbital basis set information -----
Your calculation utilizes the basis: def2-SVPD
   F. Weigend and R. Ahlrichs, Phys. Chem. Chem. Phys. 7, 3297 (2005).
   D. Rappoport and F. Furche, J. Chem. Phys. 133 134105 (2010).

----- AuxJ basis set information -----
Your calculation utilizes the auxiliary basis: def2/J
   F. Weigend, Phys. Chem. Chem. Phys. 8, 1057 (2006).

================================================================================
                                        WARNINGS
                       Please study these warnings very carefully!
================================================================================


INFO   : the flag for use of the SHARK integral package has been found!

================================================================================
                                       INPUT FILE
================================================================================
NAME = SVPD_CAMB3LYP_A_wt_dlpno_neg.com
|  1> !CAM-B3LYP RIJCOSX def2-SVPD def2/J TightSCF
|  2> *xyz -1 1
|  3> C         -1.91658       -2.48508       -3.64367
|  4> C         -1.36353       -1.98134       -2.29361
|  5> O         -0.35039       -2.74969       -1.79601
|  6> H         -2.22622       -1.90839       -1.60204
|  7> H         -1.05135       -0.91567       -2.44333
|  8> H         -1.11522       -2.57167       -4.34739
|  9> H         -2.64227       -1.79099       -4.01314
| 10> H         -2.37564       -3.44180       -3.50640
| 11> *
| 12> 
| 13> %MaxCore 64000
| 14> %pal nprocs 4
| 15> end  
| 16> 
| 17> %scf
| 18>   MaxIter 150
| 19> end
| 20> 
| 21> 
| 22>                          ****END OF INPUT****
================================================================================

                       ****************************
                       * Single Point Calculation *
                       ****************************

---------------------------------
CARTESIAN COORDINATES (ANGSTROEM)
---------------------------------
  C     -1.916580   -2.485080   -3.643670
  C     -1.363530   -1.981340   -2.293610
  O     -0.350390   -2.749690   -1.796010
  H     -2.226220   -1.908390   -1.602040
  H     -1.051350   -0.915670   -2.443330
  H     -1.115220   -2.571670   -4.347390
  H     -2.642270   -1.790990   -4.013140
  H     -2.375640   -3.441800   -3.506400

----------------------------
CARTESIAN COORDINATES (A.U.)
----------------------------
  NO LB      ZA    FRAG     MASS         X           Y           Z
   0 C     6.0000    0    12.011   -3.621811   -4.696121   -6.885538
   1 C     6.0000    0    12.011   -2.576698   -3.744190   -4.334295
   2 O     8.0000    0    15.999   -0.662141   -5.196161   -3.393967
   3 H     1.0000    0     1.008   -4.206946   -3.606334   -3.027417
   4 H     1.0000    0     1.008   -1.986764   -1.730366   -4.617225
   5 H     1.0000    0     1.008   -2.107460   -4.859752   -8.215376
   6 H     1.0000    0     1.008   -4.993167   -3.384481   -7.583736
   7 H     1.0000    0     1.008   -4.489309   -6.504059   -6.626136

--------------------------------
INTERNAL COORDINATES (ANGSTROEM)
--------------------------------
 C      0   0   0     0.000000000000     0.00000000     0.00000000
 C      1   0   0     1.543463732551     0.00000000     0.00000000
 O      2   1   0     1.365437710809   113.63920554     0.00000000
 H      2   1   3     1.108072562380   106.76416070   235.01464930
 H      2   1   3     1.120502110529   107.05880727   124.39884586
 H      1   2   3     1.069998839298   109.47083258   304.98561260
 H      1   2   3     1.069997656586   109.47150645   184.98537099
 H      1   2   3     1.069996399480   109.47115872    64.98520352

---------------------------
INTERNAL COORDINATES (A.U.)
---------------------------
 C      0   0   0     0.000000000000     0.00000000     0.00000000
 C      1   0   0     2.916723752161     0.00000000     0.00000000
 O      2   1   0     2.580303326358   113.63920554     0.00000000
 H      2   1   3     2.093953679411   106.76416070   235.01464930
 H      2   1   3     2.117442121381   107.05880727   124.39884586
 H      1   2   3     2.022004769888   109.47083258   304.98561260
 H      1   2   3     2.022002534885   109.47150645   184.98537099
 H      1   2   3     2.022000159299   109.47115872    64.98520352

---------------------
BASIS SET INFORMATION
---------------------
There are 3 groups of distinct atoms

 Group   1 Type C   : 8s4p2d contracted to 4s2p2d pattern {5111/31/11}
 Group   2 Type O   : 8s5p2d contracted to 4s3p2d pattern {5111/311/11}
 Group   3 Type H   : 4s2p contracted to 2s2p pattern {31/11}

Atom   0C    basis set group =>   1
Atom   1C    basis set group =>   1
Atom   2O    basis set group =>   2
Atom   3H    basis set group =>   3
Atom   4H    basis set group =>   3
Atom   5H    basis set group =>   3
Atom   6H    basis set group =>   3
Atom   7H    basis set group =>   3
---------------------------------
AUXILIARY/J BASIS SET INFORMATION
---------------------------------
There are 3 groups of distinct atoms

 Group   1 Type C   : 12s5p4d2f1g contracted to 6s4p3d1f1g pattern {711111/2111/211/2/1}
 Group   2 Type O   : 12s5p4d2f1g contracted to 6s4p3d1f1g pattern {711111/2111/211/2/1}
 Group   3 Type H   : 5s2p1d contracted to 3s1p1d pattern {311/2/1}

Atom   0C    basis set group =>   1
Atom   1C    basis set group =>   1
Atom   2O    basis set group =>   2
Atom   3H    basis set group =>   3
Atom   4H    basis set group =>   3
Atom   5H    basis set group =>   3
Atom   6H    basis set group =>   3
Atom   7H    basis set group =>   3


           ************************************************************
           *        Program running with 4 parallel MPI-processes     *
           *              working on a common directory               *
           ************************************************************
------------------------------------------------------------------------------
                           ORCA GTO INTEGRAL CALCULATION
                           -- RI-GTO INTEGRALS CHOSEN --
------------------------------------------------------------------------------
------------------------------------------------------------------------------
                   ___                                                        
                  /   \      - P O W E R E D   B Y -                         
                 /     \                                                     
                 |  |  |   _    _      __       _____    __    __             
                 |  |  |  | |  | |    /  \     |  _  \  |  |  /  |          
                  \  \/   | |  | |   /    \    | | | |  |  | /  /          
                 / \  \   | |__| |  /  /\  \   | |_| |  |  |/  /          
                |  |  |   |  __  | /  /__\  \  |    /   |      \           
                |  |  |   | |  | | |   __   |  |    \   |  |\   \          
                \     /   | |  | | |  |  |  |  | |\  \  |  | \   \       
                 \___/    |_|  |_| |__|  |__|  |_| \__\ |__|  \__/        
                                                                              
                      - O R C A' S   B I G   F R I E N D -                    
                                      &                                       
                       - I N T E G R A L  F E E D E R -                       
                                                                              
 v1 FN, 2020, v2 2021                                                         
------------------------------------------------------------------------------


Reading SHARK input file SVPD_CAMB3LYP_A_wt_dlpno_neg.SHARKINP.tmp ... ok
----------------------
SHARK INTEGRAL PACKAGE
----------------------

Number of atoms                             ...      8
Number of basis functions                   ...    103
Number of shells                            ...     45
Maximum angular momentum                    ...      2
Integral batch strategy                     ... SHARK/LIBINT Hybrid
RI-J (if used) integral strategy            ... SPLIT-RIJ (Revised 2003 algorithm where possible)
Printlevel                                  ...      1
Contraction scheme used                     ... SEGMENTED contraction
Coulomb Range Separation                    ... NOT USED
Exchange Range Separation                   ... Long Range
   Mu parameter                             ...  0.330000
   Scaling (regular/separated)              ...  0.190000  0.460000
Finite Nucleus Model                        ... NOT USED
Auxiliary Coulomb fitting basis             ... AVAILABLE
   # of basis functions in Aux-J            ...    202
   # of shells in Aux-J                     ...     70
   Maximum angular momentum in Aux-J        ...      4
Auxiliary J/K fitting basis                 ... NOT available
Auxiliary Correlation fitting basis         ... NOT available
Auxiliary 'external' fitting basis          ... NOT available
Integral threshold                          ...     2.500000e-11
Primitive cut-off                           ...     2.500000e-12
Primitive pair pre-selection threshold      ...     2.500000e-12

Calculating pre-screening integrals         ... done (  0.0 sec) Dimension = 45
Organizing shell pair data                  ... done (  0.0 sec)
Shell pair information
Total number of shell pairs                 ...      1035
Shell pairs after pre-screening             ...      1033
Total number of primitive shell pairs       ...      2755
Primitive shell pairs kept                  ...      2489
          la=0 lb=0:    252 shell pairs
          la=1 lb=0:    373 shell pairs
          la=1 lb=1:    153 shell pairs
          la=2 lb=0:    132 shell pairs
          la=2 lb=1:    102 shell pairs
          la=2 lb=2:     21 shell pairs

Calculating one electron integrals          ... done (  0.0 sec)
Calculating RI/J V-Matrix + Cholesky decomp.... done (  0.0 sec)
Calculating Nuclear repulsion               ... done (  0.0 sec) ENN=     74.272451729881 Eh

SHARK setup successfully completed in   0.1 seconds

Maximum memory used throughout the entire GTOINT-calculation: 8.8 MB


           ************************************************************
           *        Program running with 4 parallel MPI-processes     *
           *              working on a common directory               *
           ************************************************************
-------------------------------------------------------------------------------
                                 ORCA SCF
-------------------------------------------------------------------------------

------------
SCF SETTINGS
------------
Hamiltonian:
 Density Functional     Method          .... DFT(GTOs)
 Exchange Functional    Exchange        .... WB88
 Correlation Functional Correlation     .... LYP
 LDA part of GGA corr.  LDAOpt          .... VWN-5
 Gradients option       PostSCFGGA      .... off
 Hybrid DFT is turned on
   Fraction HF Exchange ScalHFX         ....  0.190000
   Scaling of DF-GGA-X  ScalDFX         ....  0.350000
   Scaling of DF-GGA-C  ScalDFC         ....  0.810000
   Scaling of DF-LDA-C  ScalLDAC        ....  1.000000
   Perturbative correction              ....  0.000000
   Density functional embedding theory  .... OFF
 Long-range corrected/Screened/Range-Separated Hybrid DFT is turned on
   Amount of maximum screened exact exchange              ....  0.460000
   Range separation parameter mu (erf(mu*r12)/r12)        ....  0.330000
 RI-approximation to the Coulomb term is turned on
   Number of AuxJ basis functions       .... 202
   RIJ-COSX (HFX calculated with COS-X)).... on


General Settings:
 Integral files         IntName         .... SVPD_CAMB3LYP_A_wt_dlpno_neg
 Hartree-Fock type      HFTyp           .... RHF
 Total Charge           Charge          ....   -1
 Multiplicity           Mult            ....    1
 Number of Electrons    NEL             ....   26
 Basis Dimension        Dim             ....  103
 Nuclear Repulsion      ENuc            ....     74.2724517299 Eh

Convergence Acceleration:
 DIIS                   CNVDIIS         .... on
   Start iteration      DIISMaxIt       ....    12
   Startup error        DIISStart       ....  0.200000
   # of expansion vecs  DIISMaxEq       ....     5
   Bias factor          DIISBfac        ....   1.050
   Max. coefficient     DIISMaxC        ....  10.000
 Trust-Rad. Augm. Hess. CNVTRAH         .... auto
   Auto Start mean grad. ratio tolernc. ....  1.125000
   Auto Start start iteration           ....    20
   Auto Start num. interpolation iter.  ....    10
   Max. Number of Micro iterations      ....    16
   Max. Number of Macro iterations      .... Maxiter - #DIIS iter
   Number of Davidson start vectors     ....     2
   Converg. threshold I  (grad. norm)   ....   1.000e-05
   Converg. threshold II (energy diff.) ....   1.000e-08
   Grad. Scal. Fac. for Micro threshold ....   0.100
   Minimum threshold for Micro iter.    ....   0.010
   NR start threshold (gradient norm)   ....   0.001
   Initial trust radius                 ....   0.400
   Minimum AH scaling param. (alpha)    ....   1.000
   Maximum AH scaling param. (alpha)    .... 1000.000
   Orbital update algorithm             .... Taylor
   White noise on init. David. guess    .... on
   Maximum white noise                  ....   0.010
   Quad. conv. algorithm                .... NR
 SOSCF                  CNVSOSCF        .... on
   Start iteration      SOSCFMaxIt      ....   150
   Startup grad/error   SOSCFStart      ....  0.003300
 Level Shifting         CNVShift        .... on
   Level shift para.    LevelShift      ....    0.2500
   Turn off err/grad.   ShiftErr        ....    0.0010
 Zerner damping         CNVZerner       .... off
 Static damping         CNVDamp         .... on
   Fraction old density DampFac         ....    0.7000
   Max. Damping (<1)    DampMax         ....    0.9800
   Min. Damping (>=0)   DampMin         ....    0.0000
   Turn off err/grad.   DampErr         ....    0.1000
 Fernandez-Rico         CNVRico         .... off

SCF Procedure:
 Maximum # iterations   MaxIter         ....   150
 SCF integral mode      SCFMode         .... Direct
   Integral package                     .... SHARK and LIBINT hybrid scheme
 Reset frequency        DirectResetFreq ....    20
 Integral Threshold     Thresh          ....  2.500e-11 Eh
 Primitive CutOff       TCut            ....  2.500e-12 Eh

Convergence Tolerance:
 Convergence Check Mode ConvCheckMode   .... Total+1el-Energy
 Convergence forced     ConvForced      .... 0
 Energy Change          TolE            ....  1.000e-08 Eh
 1-El. energy change                    ....  1.000e-05 Eh
 Orbital Gradient       TolG            ....  1.000e-05
 Orbital Rotation angle TolX            ....  1.000e-05
 DIIS Error             TolErr          ....  5.000e-07


Diagonalization of the overlap matrix:
Smallest eigenvalue                        ... 3.422e-04
Time for diagonalization                   ...    0.003 sec
Threshold for overlap eigenvalues          ... 1.000e-08
Number of eigenvalues below threshold      ... 0
Time for construction of square roots      ...    0.002 sec
Total time needed                          ...    0.006 sec

Time for model grid setup =    0.052 sec

------------------------------
INITIAL GUESS: MODEL POTENTIAL
------------------------------
Loading Hartree-Fock densities                     ... done
Calculating cut-offs                               ... done
Initializing the effective Hamiltonian             ... done
Setting up the integral package (SHARK)            ... done
Starting the Coulomb interaction                   ... done (   0.0 sec)
Reading the grid                                   ... done
Mapping shells                                     ... done
Starting the XC term evaluation                    ... done (   0.0 sec)
  promolecular density results
     # of electrons  =     24.997959807
     EX              =    -19.792822826
     EC              =     -0.801100139
     EX+EC           =    -20.593922965
Transforming the Hamiltonian                       ... done (   0.0 sec)
Diagonalizing the Hamiltonian                      ... done (   0.0 sec)
Back transforming the eigenvectors                 ... done (   0.0 sec)
Now organizing SCF variables                       ... done
                      ------------------
                      INITIAL GUESS DONE (   0.1 sec)
                      ------------------
-------------------
DFT GRID GENERATION
-------------------

General Integration Accuracy     IntAcc      ... 4.388
Radial Grid Type                 RadialGrid  ... OptM3 with GC (2021)
Angular Grid (max. ang.)         AngularGrid ... 4 (Lebedev-302)
Angular grid pruning method      GridPruning ... 4 (adaptive)
Weight generation scheme         WeightScheme... Becke
Basis function cutoff            BFCut       ... 1.0000e-11
Integration weight cutoff        WCut        ... 1.0000e-14
Angular grids for H and He will be reduced by one unit
Partially contracted basis set               ... off
Rotationally invariant grid construction     ... off

Total number of grid points                  ...    35881
Total number of batches                      ...      565
Average number of points per batch           ...       63
Average number of grid points per atom       ...     4485
Time for grid setup =    0.272 sec

--------------------
COSX GRID GENERATION
--------------------

GRIDX 1
-------
General Integration Accuracy     IntAcc      ... 3.816
Radial Grid Type                 RadialGrid  ... OptM3 with GC (2021)
Angular Grid (max. ang.)         AngularGrid ... 1 (Lebedev-50)
Angular grid pruning method      GridPruning ... 4 (adaptive)
Weight generation scheme         WeightScheme... Becke
Basis function cutoff            BFCut       ... 1.0000e-11
Integration weight cutoff        WCut        ... 1.0000e-14
Angular grids for H and He will be reduced by one unit
Partially contracted basis set               ... on
Rotationally invariant grid construction     ... off

Total number of grid points                  ...     4497
Total number of batches                      ...       75
Average number of points per batch           ...       59
Average number of grid points per atom       ...      562
UseSFitting                                  ... on

GRIDX 2
-------
General Integration Accuracy     IntAcc      ... 4.020
Radial Grid Type                 RadialGrid  ... OptM3 with GC (2021)
Angular Grid (max. ang.)         AngularGrid ... 2 (Lebedev-110)
Angular grid pruning method      GridPruning ... 4 (adaptive)
Weight generation scheme         WeightScheme... Becke
Basis function cutoff            BFCut       ... 1.0000e-11
Integration weight cutoff        WCut        ... 1.0000e-14
Angular grids for H and He will be reduced by one unit
Partially contracted basis set               ... on
Rotationally invariant grid construction     ... off

Total number of grid points                  ...    10321
Total number of batches                      ...      165
Average number of points per batch           ...       62
Average number of grid points per atom       ...     1290
UseSFitting                                  ... on

GRIDX 3
-------
General Integration Accuracy     IntAcc      ... 4.338
Radial Grid Type                 RadialGrid  ... OptM3 with GC (2021)
Angular Grid (max. ang.)         AngularGrid ... 3 (Lebedev-194)
Angular grid pruning method      GridPruning ... 4 (adaptive)
Weight generation scheme         WeightScheme... Becke
Basis function cutoff            BFCut       ... 1.0000e-11
Integration weight cutoff        WCut        ... 1.0000e-14
Angular grids for H and He will be reduced by one unit
Partially contracted basis set               ... on
Rotationally invariant grid construction     ... off

Total number of grid points                  ...    23691
Total number of batches                      ...      375
Average number of points per batch           ...       63
Average number of grid points per atom       ...     2961
UseSFitting                                  ... on

Time for X-Grid setup             =    0.237 sec

--------------
SCF ITERATIONS
--------------
ITER       Energy         Delta-E        Max-DP      RMS-DP      [F,P]     Damp
               ***  Starting incremental Fock matrix formation  ***
  0   -153.9833706668   0.000000000000 0.10539737  0.00431348  0.3421143 0.7000
  1   -154.1056646498  -0.122293982947 0.09066716  0.00380812  0.1305587 0.7000
                               ***Turning on DIIS***
  2   -154.1516485865  -0.045983936774 0.18881995  0.00746127  0.0490746 0.0000
  3   -154.2293657281  -0.077717141560 0.05798125  0.00273457  0.0830712 0.0000
  4   -154.2458584965  -0.016492768370 0.02177752  0.00097008  0.0180372 0.0000
  5   -154.2467973186  -0.000938822183 0.01468466  0.00056660  0.0042520 0.0000
                      *** Initiating the SOSCF procedure ***
                           *** Shutting down DIIS ***
                      *** Re-Reading the Fockian *** 
                      *** Removing any level shift *** 
ITER      Energy       Delta-E        Grad      Rot      Max-DP    RMS-DP
  6   -154.24686430  -0.0000669794  0.000535  0.000535  0.016051  0.000617
               *** Restarting incremental Fock matrix formation ***
  7   -154.24695512  -0.0000908239  0.000252  0.000381  0.003771  0.000146
  8   -154.24695592  -0.0000008028  0.000199  0.000401  0.002003  0.000079
  9   -154.24695684  -0.0000009182  0.000055  0.000069  0.000552  0.000015
 10   -154.24695684   0.0000000040  0.000071  0.000042  0.000170  0.000006
                  ***Gradient check signals convergence***
              ***Rediagonalizing the Fockian in SOSCF/NRSCF***

               *****************************************************
               *                     SUCCESS                       *
               *           SCF CONVERGED AFTER  11 CYCLES          *
               *****************************************************

Old exchange energy                            =     -5.912658367 Eh
New exchange energy                            =     -5.912674993 Eh
Exchange energy change after final integration =     -0.000016626 Eh
Total energy after final integration           =   -154.246973542 Eh
Final COS-X integration done in                =     1.096 sec

----------------
TOTAL SCF ENERGY
----------------

Total Energy       :         -154.24697354 Eh           -4197.27354 eV

Components:
Nuclear Repulsion  :           74.27245173 Eh            2021.05616 eV
Electronic Energy  :         -228.51942527 Eh           -6218.32970 eV
One Electron Energy:         -362.22713756 Eh           -9856.70152 eV
Two Electron Energy:          133.70771229 Eh            3638.37182 eV
Max COSX asymmetry :            0.00000417 Eh               0.00011 eV

Virial components:
Potential Energy   :         -307.02037913 Eh           -8354.44925 eV
Kinetic Energy     :          152.77340559 Eh            4157.17571 eV
Virial Ratio       :            2.00964545


DFT components:
N(Alpha)           :       13.000216647644 electrons
N(Beta)            :       13.000216647644 electrons
N(Total)           :       26.000433295287 electrons
E(XC)              :      -15.498840630963 Eh       
DFET-embed. en.    :        0.000000000000 Eh       

---------------
SCF CONVERGENCE
---------------

  Last Energy change         ...   -7.6997e-08  Tolerance :   1.0000e-08
  Last MAX-Density change    ...    3.1086e-15  Tolerance :   1.0000e-07
  Last RMS-Density change    ...    5.2320e-17  Tolerance :   5.0000e-09
  Last Orbital Gradient      ...    2.2276e-06  Tolerance :   1.0000e-05
  Last Orbital Rotation      ...    9.1750e-06  Tolerance :   1.0000e-05

             **** THE GBW FILE WAS UPDATED (SVPD_CAMB3LYP_A_wt_dlpno_neg.gbw) ****
             **** DENSITY SVPD_CAMB3LYP_A_wt_dlpno_neg.scfp WAS UPDATED ****
             **** ENERGY FILE WAS UPDATED (SVPD_CAMB3LYP_A_wt_dlpno_neg.en.tmp) ****
             **** THE GBW FILE WAS UPDATED (SVPD_CAMB3LYP_A_wt_dlpno_neg.gbw) ****
             **** DENSITY SVPD_CAMB3LYP_A_wt_dlpno_neg.scfp WAS UPDATED ****
----------------
ORBITAL ENERGIES
----------------

  NO   OCC          E(Eh)            E(eV) 
   0   2.0000     -18.879470      -513.7365 
   1   2.0000     -10.074524      -274.1417 
   2   2.0000     -10.051290      -273.5095 
   3   2.0000      -0.750952       -20.4344 
   4   2.0000      -0.600521       -16.3410 
   5   2.0000      -0.442644       -12.0450 
   6   2.0000      -0.320576        -8.7233 
   7   2.0000      -0.297280        -8.0894 
   8   2.0000      -0.241169        -6.5625 
   9   2.0000      -0.223162        -6.0725 
  10   2.0000      -0.178881        -4.8676 
  11   2.0000      -0.033028        -0.8987 
  12   2.0000      -0.030369        -0.8264 
  13   0.0000       0.207414         5.6440 
  14   0.0000       0.238823         6.4987 
  15   0.0000       0.275351         7.4927 
  16   0.0000       0.288047         7.8382 
  17   0.0000       0.305352         8.3090 
  18   0.0000       0.321285         8.7426 
  19   0.0000       0.326261         8.8780 
  20   0.0000       0.336328         9.1519 
  21   0.0000       0.343335         9.3426 
  22   0.0000       0.381318        10.3762 
  23   0.0000       0.386966        10.5299 
  24   0.0000       0.396609        10.7923 
  25   0.0000       0.422207        11.4888 
  26   0.0000       0.435538        11.8516 
  27   0.0000       0.493101        13.4180 
  28   0.0000       0.504469        13.7273 
  29   0.0000       0.510617        13.8946 
  30   0.0000       0.533730        14.5235 
  31   0.0000       0.543297        14.7839 
  32   0.0000       0.556900        15.1540 
  33   0.0000       0.574552        15.6344 
  34   0.0000       0.578049        15.7295 
  35   0.0000       0.579993        15.7824 
  36   0.0000       0.588007        16.0005 
  37   0.0000       0.608338        16.5537 
  38   0.0000       0.614310        16.7162 
  39   0.0000       0.624892        17.0042 
  40   0.0000       0.639637        17.4054 
  41   0.0000       0.675280        18.3753 
  42   0.0000       0.676672        18.4132 
  43   0.0000       0.693131        18.8611 
  44   0.0000       0.704502        19.1705 
  45   0.0000       0.708527        19.2800 
  46   0.0000       0.712824        19.3969 
  47   0.0000       0.734602        19.9895 
  48   0.0000       0.794369        21.6159 
  49   0.0000       0.798217        21.7206 
  50   0.0000       0.808037        21.9878 
  51   0.0000       0.901665        24.5355 
  52   0.0000       0.909419        24.7466 
  53   0.0000       0.927761        25.2457 
  54   0.0000       0.983629        26.7659 
  55   0.0000       0.987106        26.8605 
  56   0.0000       1.070621        29.1331 
  57   0.0000       1.112983        30.2858 
  58   0.0000       1.163647        31.6644 
  59   0.0000       1.175634        31.9906 
  60   0.0000       1.191833        32.4314 
  61   0.0000       1.223944        33.3052 
  62   0.0000       1.258802        34.2537 
  63   0.0000       1.266545        34.4645 
  64   0.0000       1.331382        36.2287 
  65   0.0000       1.338168        36.4134 
  66   0.0000       1.434968        39.0475 
  67   0.0000       1.488239        40.4970 
  68   0.0000       1.532792        41.7094 
  69   0.0000       1.766985        48.0821 
  70   0.0000       1.813280        49.3418 
  71   0.0000       1.833972        49.9049 
  72   0.0000       1.842847        50.1464 
  73   0.0000       1.882012        51.2122 
  74   0.0000       1.891870        51.4804 
  75   0.0000       1.932280        52.5800 
  76   0.0000       2.062743        56.1301 
  77   0.0000       2.130483        57.9734 
  78   0.0000       2.134745        58.0894 
  79   0.0000       2.228894        60.6513 
  80   0.0000       2.248484        61.1844 
  81   0.0000       2.262804        61.5740 
  82   0.0000       2.274977        61.9053 
  83   0.0000       2.320288        63.1382 
  84   0.0000       2.325920        63.2915 
  85   0.0000       2.412610        65.6505 
  86   0.0000       2.470030        67.2129 
  87   0.0000       2.601830        70.7994 
  88   0.0000       2.627942        71.5099 
  89   0.0000       2.733822        74.3911 
  90   0.0000       2.774702        75.5035 
  91   0.0000       2.915661        79.3392 
  92   0.0000       2.925208        79.5989 
  93   0.0000       3.097502        84.2873 
  94   0.0000       3.204030        87.1861 
  95   0.0000       3.241195        88.1974 
  96   0.0000       3.266427        88.8840 
  97   0.0000       3.345945        91.0478 
  98   0.0000       3.393444        92.3403 
  99   0.0000       3.406791        92.7035 
 100   0.0000       3.543474        96.4228 
 101   0.0000       3.551102        96.6304 
 102   0.0000       3.913157       106.4824 

                    ********************************
                    * MULLIKEN POPULATION ANALYSIS *
                    ********************************

-----------------------
MULLIKEN ATOMIC CHARGES
-----------------------
   0 C :    0.495533
   1 C :    0.222587
   2 O :   -0.871083
   3 H :   -0.224496
   4 H :   -0.190892
   5 H :   -0.158429
   6 H :   -0.122063
   7 H :   -0.151157
Sum of atomic charges:   -1.0000000

--------------------------------
MULLIKEN REDUCED ORBITAL CHARGES
--------------------------------
  0 C s       :     2.541093  s :     2.541093
      pz      :     1.031987  p :     2.788581
      px      :     0.860000
      py      :     0.896595
      dz2     :     0.073441  d :     0.174793
      dxz     :     0.048176
      dyz     :     0.047043
      dx2y2   :     0.001090
      dxy     :     0.005044
  1 C s       :     2.845516  s :     2.845516
      pz      :     0.903152  p :     2.574468
      px      :     0.824845
      py      :     0.846470
      dz2     :     0.087593  d :     0.357429
      dxz     :     0.086328
      dyz     :     0.065323
      dx2y2   :     0.055292
      dxy     :     0.062891
  2 O s       :     3.881122  s :     3.881122
      pz      :     1.801225  p :     4.960369
      px      :     1.502304
      py      :     1.656840
      dz2     :     0.003093  d :     0.029592
      dxz     :     0.003520
      dyz     :     0.003982
      dx2y2   :     0.013087
      dxy     :     0.005910
  3 H s       :     1.156350  s :     1.156350
      pz      :     0.020020  p :     0.068146
      px      :     0.058357
      py      :    -0.010232
  4 H s       :     1.124088  s :     1.124088
      pz      :    -0.014500  p :     0.066804
      px      :    -0.002291
      py      :     0.083595
  5 H s       :     1.091119  s :     1.091119
      pz      :     0.028203  p :     0.067310
      px      :     0.056311
      py      :    -0.017204
  6 H s       :     1.077392  s :     1.077392
      pz      :    -0.008146  p :     0.044672
      px      :     0.009343
      py      :     0.043474
  7 H s       :     1.089679  s :     1.089679
      pz      :     0.011354  p :     0.061478
      px      :    -0.010319
      py      :     0.060442


                     *******************************
                     * LOEWDIN POPULATION ANALYSIS *
                     *******************************

----------------------
LOEWDIN ATOMIC CHARGES
----------------------
   0 C :    0.065154
   1 C :   -0.264895
   2 O :   -0.586226
   3 H :   -0.035274
   4 H :   -0.030569
   5 H :   -0.043355
   6 H :   -0.060103
   7 H :   -0.044733

-------------------------------
LOEWDIN REDUCED ORBITAL CHARGES
-------------------------------
  0 C s       :     2.739201  s :     2.739201
      pz      :     0.927729  p :     2.764467
      px      :     0.917238
      py      :     0.919500
      dz2     :     0.108442  d :     0.431178
      dxz     :     0.119038
      dyz     :     0.074132
      dx2y2   :     0.045141
      dxy     :     0.084425
  1 C s       :     2.712495  s :     2.712495
      pz      :     0.856018  p :     2.578213
      px      :     0.863242
      py      :     0.858953
      dz2     :     0.185902  d :     0.974187
      dxz     :     0.246163
      dyz     :     0.133658
      dx2y2   :     0.257367
      dxy     :     0.151096
  2 O s       :     3.524562  s :     3.524562
      pz      :     1.676526  p :     4.808264
      px      :     1.535637
      py      :     1.596101
      dz2     :     0.037402  d :     0.253400
      dxz     :     0.055835
      dyz     :     0.030381
      dx2y2   :     0.075441
      dxy     :     0.054342
  3 H s       :     0.764639  s :     0.764639
      pz      :     0.084516  p :     0.270634
      px      :     0.119102
      py      :     0.067016
  4 H s       :     0.764021  s :     0.764021
      pz      :     0.066312  p :     0.266548
      px      :     0.066916
      py      :     0.133320
  5 H s       :     0.751432  s :     0.751432
      pz      :     0.097674  p :     0.291923
      px      :     0.115979
      py      :     0.078270
  6 H s       :     0.761781  s :     0.761781
      pz      :     0.083160  p :     0.298323
      px      :     0.109491
      py      :     0.105672
  7 H s       :     0.753249  s :     0.753249
      pz      :     0.077078  p :     0.291484
      px      :     0.088297
      py      :     0.126109


                      *****************************
                      * MAYER POPULATION ANALYSIS *
                      *****************************

  NA   - Mulliken gross atomic population
  ZA   - Total nuclear charge
  QA   - Mulliken gross atomic charge
  VA   - Mayer's total valence
  BVA  - Mayer's bonded valence
  FA   - Mayer's free valence

  ATOM       NA         ZA         QA         VA         BVA        FA
  0 C      5.5045     6.0000     0.4955     4.1587     4.1587    -0.0000
  1 C      5.7774     6.0000     0.2226     4.7857     4.7857    -0.0000
  2 O      8.8711     8.0000    -0.8711     1.2192     1.2192    -0.0000
  3 H      1.2245     1.0000    -0.2245     1.1270     1.1270    -0.0000
  4 H      1.1909     1.0000    -0.1909     1.1245     1.1245    -0.0000
  5 H      1.1584     1.0000    -0.1584     1.0806     1.0806    -0.0000
  6 H      1.1221     1.0000    -0.1221     1.0520     1.0520    -0.0000
  7 H      1.1512     1.0000    -0.1512     1.0555     1.0555     0.0000

  Mayer bond orders larger than 0.100000
B(  0-C ,  1-C ) :   1.1554 B(  0-C ,  2-O ) :   0.1293 B(  0-C ,  3-H ) :   0.1304 
B(  0-C ,  4-H ) :   0.1262 B(  0-C ,  5-H ) :   0.8758 B(  0-C ,  6-H ) :   0.8683 
B(  0-C ,  7-H ) :   0.8733 B(  1-C ,  2-O ) :   1.1857 B(  1-C ,  3-H ) :   0.9643 
B(  1-C ,  4-H ) :   0.9632 B(  1-C ,  5-H ) :   0.1951 B(  1-C ,  6-H ) :   0.1396 
B(  1-C ,  7-H ) :   0.1824 

-------
TIMINGS
-------

Total SCF time: 0 days 0 hours 0 min 8 sec 

Total time                  ....       8.916 sec
Sum of individual times     ....       8.637 sec  ( 96.9%)

Fock matrix formation       ....       7.950 sec  ( 89.2%)
  Split-RI-J                ....       0.422 sec  (  5.3% of F)
  Chain of spheres X        ....       5.977 sec  ( 75.2% of F)
  XC integration            ....       1.530 sec  ( 19.2% of F)
    Basis function eval.    ....       0.369 sec  ( 24.1% of XC)
    Density eval.           ....       0.213 sec  ( 13.9% of XC)
    XC-Functional eval.     ....       0.305 sec  ( 19.9% of XC)
    XC-Potential eval.      ....       0.296 sec  ( 19.3% of XC)
Diagonalization             ....       0.022 sec  (  0.2%)
Density matrix formation    ....       0.003 sec  (  0.0%)
Population analysis         ....       0.004 sec  (  0.0%)
Initial guess               ....       0.067 sec  (  0.7%)
Orbital Transformation      ....       0.000 sec  (  0.0%)
Orbital Orthonormalization  ....       0.000 sec  (  0.0%)
DIIS solution               ....       0.017 sec  (  0.2%)
SOSCF solution              ....       0.013 sec  (  0.1%)
Grid generation             ....       0.562 sec  (  6.3%)

Maximum memory used throughout the entire SCF-calculation: 46.5 MB

-------------------------   --------------------
FINAL SINGLE POINT ENERGY      -154.246973542215
-------------------------   --------------------


                            ***************************************
                            *     ORCA property calculations      *
                            ***************************************

                                    ---------------------
                                    Active property flags
                                    ---------------------
   (+) Dipole Moment


------------------------------------------------------------------------------
                       ORCA ELECTRIC PROPERTIES CALCULATION
------------------------------------------------------------------------------

Dipole Moment Calculation                       ... on
Quadrupole Moment Calculation                   ... off
Polarizability Calculation                      ... off
GBWName                                         ... SVPD_CAMB3LYP_A_wt_dlpno_neg.gbw
Electron density file                           ... SVPD_CAMB3LYP_A_wt_dlpno_neg.scfp
The origin for moment calculation is the CENTER OF MASS  = (-2.285120, -4.543965 -4.868333)

-------------
DIPOLE MOMENT
-------------
                                X             Y             Z
Electronic contribution:      1.96033      -0.82422       1.77566
Nuclear contribution   :     -3.14382       1.30299      -2.83231
                        -----------------------------------------
Total Dipole Moment    :     -1.18349       0.47877      -1.05664
                        -----------------------------------------
Magnitude (a.u.)       :      1.65721
Magnitude (Debye)      :      4.21230



--------------------
Rotational spectrum 
--------------------
 
Rotational constants in cm-1:     1.288206     0.322942     0.285188 
Rotational constants in MHz : 38619.437223  9681.562038  8549.712012 

 Dipole components along the rotational axes: 
x,y,z [a.u.] :    -1.604356     0.415135     0.007541 
x,y,z [Debye]:    -4.077949     1.055189     0.019167 

 

Timings for individual modules:

Sum of individual times         ...       12.612 sec (=   0.210 min)
GTO integral calculation        ...        1.774 sec (=   0.030 min)  14.1 %
SCF iterations                  ...       10.839 sec (=   0.181 min)  85.9 %
                             ****ORCA TERMINATED NORMALLY****
TOTAL RUN TIME: 0 days 0 hours 0 minutes 13 seconds 93 msec
