
                                        *****************
                                        * O   R   C   A *
                                        *****************

                                            #,                                       
                                            ###                                      
                                            ####                                     
                                            #####                                    
                                            ######                                   
                                           ########,                                 
                                     ,,################,,,,,                         
                               ,,#################################,,                 
                          ,,##########################################,,             
                       ,#########################################, ''#####,          
                    ,#############################################,,   '####,        
                  ,##################################################,,,,####,       
                ,###########''''           ''''###############################       
              ,#####''   ,,,,##########,,,,          '''####'''          '####       
            ,##' ,,,,###########################,,,                        '##       
           ' ,,###''''                  '''############,,,                           
         ,,##''                                '''############,,,,        ,,,,,,###''
      ,#''                                            '''#######################'''  
     '                                                          ''''####''''         
             ,#######,   #######,   ,#######,      ##                                
            ,#'     '#,  ##    ##  ,#'     '#,    #''#        ######   ,####,        
            ##       ##  ##   ,#'  ##            #'  '#       #        #'  '#        
            ##       ##  #######   ##           ,######,      #####,   #    #        
            '#,     ,#'  ##    ##  '#,     ,#' ,#      #,         ##   #,  ,#        
             '#######'   ##     ##  '#######'  #'      '#     #####' # '####'        



                  #######################################################
                  #                        -***-                        #
                  #          Department of theory and spectroscopy      #
                  #    Directorship and core code : Frank Neese         #
                  #        Max Planck Institute fuer Kohlenforschung    #
                  #                Kaiser Wilhelm Platz 1               #
                  #                 D-45470 Muelheim/Ruhr               #
                  #                      Germany                        #
                  #                                                     #
                  #                  All rights reserved                #
                  #                        -***-                        #
                  #######################################################


                         Program Version 5.0.0 -  RELEASE  -
                                (SVN: $Rev: 19529$)
                ($Date: 2021-06-28 11:36:33 +0200 (Mo, 28 Jun 2021) $)


 With contributions from (in alphabetic order):
   Daniel Aravena         : Magnetic Suceptibility
   Michael Atanasov       : Ab Initio Ligand Field Theory (pilot matlab implementation)
   Alexander A. Auer      : GIAO ZORA, VPT2 properties, NMR spectrum
   Ute Becker             : Parallelization
   Giovanni Bistoni       : ED, misc. LED, open-shell LED, HFLD
   Martin Brehm           : Molecular dynamics
   Dmytro Bykov           : SCF Hessian
   Vijay G. Chilkuri      : MRCI spin determinant printing, contributions to CSF-ICE
   Dipayan Datta          : RHF DLPNO-CCSD density
   Achintya Kumar Dutta   : EOM-CC, STEOM-CC
   Dmitry Ganyushin       : Spin-Orbit,Spin-Spin,Magnetic field MRCI
   Miquel Garcia          : C-PCM Hessian, Gaussian charge scheme
   Yang Guo               : DLPNO-NEVPT2, F12-NEVPT2, CIM, IAO-localization
   Andreas Hansen         : Spin unrestricted coupled pair/coupled cluster methods
   Benjamin Helmich-Paris : MC-RPA, TRAH-SCF, COSX integrals
   Lee Huntington         : MR-EOM, pCC
   Robert Izsak           : Overlap fitted RIJCOSX, COSX-SCS-MP3, EOM
   Marcus Kettner         : VPT2
   Christian Kollmar      : KDIIS, OOCD, Brueckner-CCSD(T), CCSD density, CASPT2, CASPT2-K
   Simone Kossmann        : Meta GGA functionals, TD-DFT gradient, OOMP2, MP2 Hessian
   Martin Krupicka        : Initial AUTO-CI
   Lucas Lang             : DCDCAS
   Marvin Lechner         : AUTO-CI (C++ implementation), FIC-MRCC
   Dagmar Lenk            : GEPOL surface, SMD
   Dimitrios Liakos       : Extrapolation schemes; Compound Job, initial MDCI parallelization
   Dimitrios Manganas     : Further ROCIS development; embedding schemes
   Dimitrios Pantazis     : SARC Basis sets
   Anastasios Papadopoulos: AUTO-CI, single reference methods and gradients
   Taras Petrenko         : DFT Hessian,TD-DFT gradient, ASA, ECA, R-Raman, ABS, FL, XAS/XES, NRVS
   Peter Pinski           : DLPNO-MP2, DLPNO-MP2 Gradient
   Christoph Reimann      : Effective Core Potentials
   Marius Retegan         : Local ZFS, SOC
   Christoph Riplinger    : Optimizer, TS searches, QM/MM, DLPNO-CCSD(T), (RO)-DLPNO pert. Triples
   Tobias Risthaus        : Range-separated hybrids, TD-DFT gradient, RPA, STAB
   Michael Roemelt        : Original ROCIS implementation
   Masaaki Saitow         : Open-shell DLPNO-CCSD energy and density
   Barbara Sandhoefer     : DKH picture change effects
   Avijit Sen             : IP-ROCIS
   Kantharuban Sivalingam : CASSCF convergence, NEVPT2, FIC-MRCI
   Bernardo de Souza      : ESD, SOC TD-DFT
   Georgi Stoychev        : AutoAux, RI-MP2 NMR
   Willem Van den Heuvel  : Paramagnetic NMR
   Boris Wezisla          : Elementary symmetry handling
   Frank Wennmohs         : Technical directorship


 We gratefully acknowledge several colleagues who have allowed us to
 interface, adapt or use parts of their codes:
   Stefan Grimme, W. Hujo, H. Kruse, P. Pracht,  : VdW corrections, initial TS optimization,
                  C. Bannwarth, S. Ehlert          DFT functionals, gCP, sTDA/sTD-DF
   Ed Valeev, F. Pavosevic, A. Kumar             : LibInt (2-el integral package), F12 methods
   Garnet Chan, S. Sharma, J. Yang, R. Olivares  : DMRG
   Ulf Ekstrom                                   : XCFun DFT Library
   Mihaly Kallay                                 : mrcc  (arbitrary order and MRCC methods)
   Jiri Pittner, Ondrej Demel                    : Mk-CCSD
   Frank Weinhold                                : gennbo (NPA and NBO analysis)
   Christopher J. Cramer and Donald G. Truhlar   : smd solvation model
   Lars Goerigk                                  : TD-DFT with DH, B97 family of functionals
   V. Asgeirsson, H. Jonsson                     : NEB implementation
   FAccTs GmbH                                   : IRC, NEB, NEB-TS, DLPNO-Multilevel, CI-OPT
                                                   MM, QMMM, 2- and 3-layer-ONIOM, Crystal-QMMM,
                                                   LR-CPCM, SF, NACMEs, symmetry and pop. for TD-DFT,
                                                   nearIR, NL-DFT gradient (VV10), updates on ESD,
                                                   ML-optimized integration grids
   S Lehtola, MJT Oliveira, MAL Marques          : LibXC Library
   Liviu Ungur et al                             : ANISO software


 Your calculation uses the libint2 library for the computation of 2-el integrals
 For citations please refer to: http://libint.valeyev.net

 Your ORCA version has been built with support for libXC version: 5.1.0
 For citations please refer to: https://tddft.org/programs/libxc/

 This ORCA versions uses:
   CBLAS   interface :  Fast vector & matrix operations
   LAPACKE interface :  Fast linear algebra routines
   SCALAPACK package :  Parallel linear algebra routines
   Shared memory     :  Shared parallel matrices
   BLAS/LAPACK       :  OpenBLAS 0.3.15  USE64BITINT DYNAMIC_ARCH NO_AFFINITY Haswell SINGLE_THREADED
        Core in use  :  Haswell
   Copyright (c) 2011-2014, The OpenBLAS Project


Your calculation utilizes the atom-pairwise dispersion correction
with the zero-damping scheme (D30)
Cite in your paper:
S.Grimme, J.Antony, S.Ehrlich and H.Krieg, J.Chem.Phys., 132, (2010), 154104 
   

XCFun DFT library Copyright 2009-2010 Ulf Ekstrom and contributors.
See http://admol.org/xcfun for more information.
This is free software; see the source code for copying conditions.
There is ABSOLUTELY NO WARRANTY; not even for MERCHANTABILITY or FITNESS FOR A PARTICULAR PURPOSE.
For details see the documentation.
Scientific users of this library should cite U. Ekstrom, L. Visscher, R. Bast, A. J. Thorvaldsen and K. Ruud;
J.Chem.Theor.Comp. 2010, DOI: 10.1021/ct100117s
XCFun Version 0.99 

================================================================================

----- Orbital basis set information -----
Your calculation utilizes the basis: def2-TZVPD
   F. Weigend and R. Ahlrichs, Phys. Chem. Chem. Phys. 7, 3297 (2005).
   D. Rappoport and F. Furche, J. Chem. Phys. 133 134105 (2010).

----- AuxJ basis set information -----
Your calculation utilizes the auxiliary basis: def2/J
   F. Weigend, Phys. Chem. Chem. Phys. 8, 1057 (2006).

================================================================================
                                        WARNINGS
                       Please study these warnings very carefully!
================================================================================


WARNING: Minnesota functionals are quite sensitive to the integration grid.
         see SE Wheeler, KN Houk, JCTC 2010, 6, 395,
             N Mardirossian, M Head-Gordon, JCTC 2016, 12, 4303.
         DEFGRID3 seems to be a minimum grid for reliable results with these functionals!
  ===> : Please increase the integration grid!


INFO   : the flag for use of the SHARK integral package has been found!

================================================================================
                                       INPUT FILE
================================================================================
NAME = TZVPD_M062X_A_wt_dlpno_neg.com
|  1> !M062X D3Zero RIJCOSX def2-TZVPD def2/J TightSCF
|  2> *xyz -1 1
|  3> C         -1.91658       -2.48508       -3.64367
|  4> C         -1.36353       -1.98134       -2.29361
|  5> O         -0.35039       -2.74969       -1.79601
|  6> H         -2.22622       -1.90839       -1.60204
|  7> H         -1.05135       -0.91567       -2.44333
|  8> H         -1.11522       -2.57167       -4.34739
|  9> H         -2.64227       -1.79099       -4.01314
| 10> H         -2.37564       -3.44180       -3.50640
| 11> *
| 12> 
| 13> %MaxCore 64000
| 14> %pal nprocs 4
| 15> end  
| 16> 
| 17> %scf
| 18>   MaxIter 150
| 19> end
| 20> 
| 21> 
| 22>                          ****END OF INPUT****
================================================================================

                       ****************************
                       * Single Point Calculation *
                       ****************************

---------------------------------
CARTESIAN COORDINATES (ANGSTROEM)
---------------------------------
  C     -1.916580   -2.485080   -3.643670
  C     -1.363530   -1.981340   -2.293610
  O     -0.350390   -2.749690   -1.796010
  H     -2.226220   -1.908390   -1.602040
  H     -1.051350   -0.915670   -2.443330
  H     -1.115220   -2.571670   -4.347390
  H     -2.642270   -1.790990   -4.013140
  H     -2.375640   -3.441800   -3.506400

----------------------------
CARTESIAN COORDINATES (A.U.)
----------------------------
  NO LB      ZA    FRAG     MASS         X           Y           Z
   0 C     6.0000    0    12.011   -3.621811   -4.696121   -6.885538
   1 C     6.0000    0    12.011   -2.576698   -3.744190   -4.334295
   2 O     8.0000    0    15.999   -0.662141   -5.196161   -3.393967
   3 H     1.0000    0     1.008   -4.206946   -3.606334   -3.027417
   4 H     1.0000    0     1.008   -1.986764   -1.730366   -4.617225
   5 H     1.0000    0     1.008   -2.107460   -4.859752   -8.215376
   6 H     1.0000    0     1.008   -4.993167   -3.384481   -7.583736
   7 H     1.0000    0     1.008   -4.489309   -6.504059   -6.626136

--------------------------------
INTERNAL COORDINATES (ANGSTROEM)
--------------------------------
 C      0   0   0     0.000000000000     0.00000000     0.00000000
 C      1   0   0     1.543463732551     0.00000000     0.00000000
 O      2   1   0     1.365437710809   113.63920554     0.00000000
 H      2   1   3     1.108072562380   106.76416070   235.01464930
 H      2   1   3     1.120502110529   107.05880727   124.39884586
 H      1   2   3     1.069998839298   109.47083258   304.98561260
 H      1   2   3     1.069997656586   109.47150645   184.98537099
 H      1   2   3     1.069996399480   109.47115872    64.98520352

---------------------------
INTERNAL COORDINATES (A.U.)
---------------------------
 C      0   0   0     0.000000000000     0.00000000     0.00000000
 C      1   0   0     2.916723752161     0.00000000     0.00000000
 O      2   1   0     2.580303326358   113.63920554     0.00000000
 H      2   1   3     2.093953679411   106.76416070   235.01464930
 H      2   1   3     2.117442121381   107.05880727   124.39884586
 H      1   2   3     2.022004769888   109.47083258   304.98561260
 H      1   2   3     2.022002534885   109.47150645   184.98537099
 H      1   2   3     2.022000159299   109.47115872    64.98520352

---------------------
BASIS SET INFORMATION
---------------------
There are 3 groups of distinct atoms

 Group   1 Type C   : 12s6p3d1f contracted to 6s3p3d1f pattern {621111/411/111/1}
 Group   2 Type O   : 12s7p3d1f contracted to 6s4p3d1f pattern {621111/4111/111/1}
 Group   3 Type H   : 5s2p contracted to 3s2p pattern {311/11}

Atom   0C    basis set group =>   1
Atom   1C    basis set group =>   1
Atom   2O    basis set group =>   2
Atom   3H    basis set group =>   3
Atom   4H    basis set group =>   3
Atom   5H    basis set group =>   3
Atom   6H    basis set group =>   3
Atom   7H    basis set group =>   3
---------------------------------
AUXILIARY/J BASIS SET INFORMATION
---------------------------------
There are 3 groups of distinct atoms

 Group   1 Type C   : 12s5p4d2f1g contracted to 6s4p3d1f1g pattern {711111/2111/211/2/1}
 Group   2 Type O   : 12s5p4d2f1g contracted to 6s4p3d1f1g pattern {711111/2111/211/2/1}
 Group   3 Type H   : 5s2p1d contracted to 3s1p1d pattern {311/2/1}

Atom   0C    basis set group =>   1
Atom   1C    basis set group =>   1
Atom   2O    basis set group =>   2
Atom   3H    basis set group =>   3
Atom   4H    basis set group =>   3
Atom   5H    basis set group =>   3
Atom   6H    basis set group =>   3
Atom   7H    basis set group =>   3


           ************************************************************
           *        Program running with 4 parallel MPI-processes     *
           *              working on a common directory               *
           ************************************************************
------------------------------------------------------------------------------
                           ORCA GTO INTEGRAL CALCULATION
                           -- RI-GTO INTEGRALS CHOSEN --
------------------------------------------------------------------------------
------------------------------------------------------------------------------
                   ___                                                        
                  /   \      - P O W E R E D   B Y -                         
                 /     \                                                     
                 |  |  |   _    _      __       _____    __    __             
                 |  |  |  | |  | |    /  \     |  _  \  |  |  /  |          
                  \  \/   | |  | |   /    \    | | | |  |  | /  /          
                 / \  \   | |__| |  /  /\  \   | |_| |  |  |/  /          
                |  |  |   |  __  | /  /__\  \  |    /   |      \           
                |  |  |   | |  | | |   __   |  |    \   |  |\   \          
                \     /   | |  | | |  |  |  |  | |\  \  |  | \   \       
                 \___/    |_|  |_| |__|  |__|  |_| \__\ |__|  \__/        
                                                                              
                      - O R C A' S   B I G   F R I E N D -                    
                                      &                                       
                       - I N T E G R A L  F E E D E R -                       
                                                                              
 v1 FN, 2020, v2 2021                                                         
------------------------------------------------------------------------------


Reading SHARK input file TZVPD_M062X_A_wt_dlpno_neg.SHARKINP.tmp ... ok
----------------------
SHARK INTEGRAL PACKAGE
----------------------

Number of atoms                             ...      8
Number of basis functions                   ...    159
Number of shells                            ...     65
Maximum angular momentum                    ...      3
Integral batch strategy                     ... SHARK/LIBINT Hybrid
RI-J (if used) integral strategy            ... SPLIT-RIJ (Revised 2003 algorithm where possible)
Printlevel                                  ...      1
Contraction scheme used                     ... SEGMENTED contraction
Coulomb Range Separation                    ... NOT USED
Exchange Range Separation                   ... NOT USED
Finite Nucleus Model                        ... NOT USED
Auxiliary Coulomb fitting basis             ... AVAILABLE
   # of basis functions in Aux-J            ...    202
   # of shells in Aux-J                     ...     70
   Maximum angular momentum in Aux-J        ...      4
Auxiliary J/K fitting basis                 ... NOT available
Auxiliary Correlation fitting basis         ... NOT available
Auxiliary 'external' fitting basis          ... NOT available
Integral threshold                          ...     2.500000e-11
Primitive cut-off                           ...     2.500000e-12
Primitive pair pre-selection threshold      ...     2.500000e-12

Calculating pre-screening integrals         ... done (  0.1 sec) Dimension = 65
Organizing shell pair data                  ... done (  0.0 sec)
Shell pair information
Total number of shell pairs                 ...      2145
Shell pairs after pre-screening             ...      2131
Total number of primitive shell pairs       ...      5334
Primitive shell pairs kept                  ...      4682
          la=0 lb=0:    551 shell pairs
          la=1 lb=0:    658 shell pairs
          la=1 lb=1:    210 shell pairs
          la=2 lb=0:    295 shell pairs
          la=2 lb=1:    180 shell pairs
          la=2 lb=2:     45 shell pairs
          la=3 lb=0:     99 shell pairs
          la=3 lb=1:     60 shell pairs
          la=3 lb=2:     27 shell pairs
          la=3 lb=3:      6 shell pairs

Calculating one electron integrals          ... done (  0.0 sec)
Calculating RI/J V-Matrix + Cholesky decomp.... done (  0.0 sec)
Calculating Nuclear repulsion               ... done (  0.0 sec) ENN=     74.272451729881 Eh

SHARK setup successfully completed in   0.2 seconds

Maximum memory used throughout the entire GTOINT-calculation: 13.8 MB


           ************************************************************
           *        Program running with 4 parallel MPI-processes     *
           *              working on a common directory               *
           ************************************************************
-------------------------------------------------------------------------------
                                 ORCA SCF
-------------------------------------------------------------------------------

------------
SCF SETTINGS
------------
Hamiltonian:
 Density Functional     Method          .... DFT(GTOs)
 Exchange Functional    Exchange        .... M062X
 Correlation Functional Correlation     .... M062X
 Gradients option       PostSCFGGA      .... off
 Hybrid DFT is turned on
   Fraction HF Exchange ScalHFX         ....  0.540000
   Scaling of DF-GGA-X  ScalDFX         ....  0.460000
   Scaling of DF-GGA-C  ScalDFC         ....  1.000000
   Scaling of DF-LDA-C  ScalLDAC        ....  1.000000
   Perturbative correction              ....  0.000000
   Density functional embedding theory  .... OFF
 RI-approximation to the Coulomb term is turned on
   Number of AuxJ basis functions       .... 202
   RIJ-COSX (HFX calculated with COS-X)).... on


General Settings:
 Integral files         IntName         .... TZVPD_M062X_A_wt_dlpno_neg
 Hartree-Fock type      HFTyp           .... RHF
 Total Charge           Charge          ....   -1
 Multiplicity           Mult            ....    1
 Number of Electrons    NEL             ....   26
 Basis Dimension        Dim             ....  159
 Nuclear Repulsion      ENuc            ....     74.2724517299 Eh

Convergence Acceleration:
 DIIS                   CNVDIIS         .... on
   Start iteration      DIISMaxIt       ....    12
   Startup error        DIISStart       ....  0.200000
   # of expansion vecs  DIISMaxEq       ....     5
   Bias factor          DIISBfac        ....   1.050
   Max. coefficient     DIISMaxC        ....  10.000
 Trust-Rad. Augm. Hess. CNVTRAH         .... auto
   Auto Start mean grad. ratio tolernc. ....  1.125000
   Auto Start start iteration           ....    20
   Auto Start num. interpolation iter.  ....    10
   Max. Number of Micro iterations      ....    16
   Max. Number of Macro iterations      .... Maxiter - #DIIS iter
   Number of Davidson start vectors     ....     2
   Converg. threshold I  (grad. norm)   ....   1.000e-05
   Converg. threshold II (energy diff.) ....   1.000e-08
   Grad. Scal. Fac. for Micro threshold ....   0.100
   Minimum threshold for Micro iter.    ....   0.010
   NR start threshold (gradient norm)   ....   0.001
   Initial trust radius                 ....   0.400
   Minimum AH scaling param. (alpha)    ....   1.000
   Maximum AH scaling param. (alpha)    .... 1000.000
   Orbital update algorithm             .... Taylor
   White noise on init. David. guess    .... on
   Maximum white noise                  ....   0.010
   Quad. conv. algorithm                .... NR
 SOSCF                  CNVSOSCF        .... on
   Start iteration      SOSCFMaxIt      ....   150
   Startup grad/error   SOSCFStart      ....  0.003300
 Level Shifting         CNVShift        .... on
   Level shift para.    LevelShift      ....    0.2500
   Turn off err/grad.   ShiftErr        ....    0.0010
 Zerner damping         CNVZerner       .... off
 Static damping         CNVDamp         .... on
   Fraction old density DampFac         ....    0.7000
   Max. Damping (<1)    DampMax         ....    0.9800
   Min. Damping (>=0)   DampMin         ....    0.0000
   Turn off err/grad.   DampErr         ....    0.1000
 Fernandez-Rico         CNVRico         .... off

SCF Procedure:
 Maximum # iterations   MaxIter         ....   150
 SCF integral mode      SCFMode         .... Direct
   Integral package                     .... SHARK and LIBINT hybrid scheme
 Reset frequency        DirectResetFreq ....    20
 Integral Threshold     Thresh          ....  2.500e-11 Eh
 Primitive CutOff       TCut            ....  2.500e-12 Eh

Convergence Tolerance:
 Convergence Check Mode ConvCheckMode   .... Total+1el-Energy
 Convergence forced     ConvForced      .... 0
 Energy Change          TolE            ....  1.000e-08 Eh
 1-El. energy change                    ....  1.000e-05 Eh
 Orbital Gradient       TolG            ....  1.000e-05
 Orbital Rotation angle TolX            ....  1.000e-05
 DIIS Error             TolErr          ....  5.000e-07


Diagonalization of the overlap matrix:
Smallest eigenvalue                        ... 1.774e-05
Time for diagonalization                   ...    0.007 sec
Threshold for overlap eigenvalues          ... 1.000e-08
Number of eigenvalues below threshold      ... 0
Time for construction of square roots      ...    0.005 sec
Total time needed                          ...    0.013 sec

Time for model grid setup =    0.045 sec

------------------------------
INITIAL GUESS: MODEL POTENTIAL
------------------------------
Loading Hartree-Fock densities                     ... done
Calculating cut-offs                               ... done
Initializing the effective Hamiltonian             ... done
Setting up the integral package (SHARK)            ... done
Starting the Coulomb interaction                   ... done (   0.0 sec)
Reading the grid                                   ... done
Mapping shells                                     ... done
Starting the XC term evaluation                    ... done (   0.1 sec)
  promolecular density results
     # of electrons  =     24.997952238
     EX              =    -19.792822169
     EC              =     -0.801100136
     EX+EC           =    -20.593922306
Transforming the Hamiltonian                       ... done (   0.0 sec)
Diagonalizing the Hamiltonian                      ... done (   0.0 sec)
Back transforming the eigenvectors                 ... done (   0.0 sec)
Now organizing SCF variables                       ... done
                      ------------------
                      INITIAL GUESS DONE (   0.1 sec)
                      ------------------
-------------------
DFT GRID GENERATION
-------------------

General Integration Accuracy     IntAcc      ... 4.388
Radial Grid Type                 RadialGrid  ... OptM3 with GC (2021)
Angular Grid (max. ang.)         AngularGrid ... 4 (Lebedev-302)
Angular grid pruning method      GridPruning ... 4 (adaptive)
Weight generation scheme         WeightScheme... Becke
Basis function cutoff            BFCut       ... 1.0000e-11
Integration weight cutoff        WCut        ... 1.0000e-14
Angular grids for H and He will be reduced by one unit
Partially contracted basis set               ... off
Rotationally invariant grid construction     ... off

Total number of grid points                  ...    36480
Total number of batches                      ...      576
Average number of points per batch           ...       63
Average number of grid points per atom       ...     4560
Time for grid setup =    0.226 sec

--------------------
COSX GRID GENERATION
--------------------

GRIDX 1
-------
General Integration Accuracy     IntAcc      ... 3.816
Radial Grid Type                 RadialGrid  ... OptM3 with GC (2021)
Angular Grid (max. ang.)         AngularGrid ... 1 (Lebedev-50)
Angular grid pruning method      GridPruning ... 4 (adaptive)
Weight generation scheme         WeightScheme... Becke
Basis function cutoff            BFCut       ... 1.0000e-11
Integration weight cutoff        WCut        ... 1.0000e-14
Angular grids for H and He will be reduced by one unit
Partially contracted basis set               ... on
Rotationally invariant grid construction     ... off

Total number of grid points                  ...     4587
Total number of batches                      ...       75
Average number of points per batch           ...       61
Average number of grid points per atom       ...      573
UseSFitting                                  ... on

GRIDX 2
-------
General Integration Accuracy     IntAcc      ... 4.020
Radial Grid Type                 RadialGrid  ... OptM3 with GC (2021)
Angular Grid (max. ang.)         AngularGrid ... 2 (Lebedev-110)
Angular grid pruning method      GridPruning ... 4 (adaptive)
Weight generation scheme         WeightScheme... Becke
Basis function cutoff            BFCut       ... 1.0000e-11
Integration weight cutoff        WCut        ... 1.0000e-14
Angular grids for H and He will be reduced by one unit
Partially contracted basis set               ... on
Rotationally invariant grid construction     ... off

Total number of grid points                  ...    11093
Total number of batches                      ...      177
Average number of points per batch           ...       62
Average number of grid points per atom       ...     1387
UseSFitting                                  ... on

GRIDX 3
-------
General Integration Accuracy     IntAcc      ... 4.338
Radial Grid Type                 RadialGrid  ... OptM3 with GC (2021)
Angular Grid (max. ang.)         AngularGrid ... 3 (Lebedev-194)
Angular grid pruning method      GridPruning ... 4 (adaptive)
Weight generation scheme         WeightScheme... Becke
Basis function cutoff            BFCut       ... 1.0000e-11
Integration weight cutoff        WCut        ... 1.0000e-14
Angular grids for H and He will be reduced by one unit
Partially contracted basis set               ... on
Rotationally invariant grid construction     ... off

Total number of grid points                  ...    25059
Total number of batches                      ...      395
Average number of points per batch           ...       63
Average number of grid points per atom       ...     3132
UseSFitting                                  ... on

Time for X-Grid setup             =    0.244 sec

--------------
SCF ITERATIONS
--------------
ITER       Energy         Delta-E        Max-DP      RMS-DP      [F,P]     Damp
               ***  Starting incremental Fock matrix formation  ***
  0   -154.1107000717   0.000000000000 0.20192481  0.00441433  0.3925795 0.7000
  1   -154.2503210388  -0.139620967098 0.52591363  0.00654715  0.1641931 0.7000
                               ***Turning on DIIS***
  2   -154.3028292535  -0.052508214739 1.19969718  0.01328973  0.0570395 0.0000
  3   -154.3874721994  -0.084642945874 0.18181994  0.00197179  0.1017645 0.7000
  4   -154.3961487228  -0.008676523441 0.75025080  0.00805186  0.0665096 0.0000
  5   -154.4090082085  -0.012859485718 0.13420729  0.00144503  0.0209921 0.0000
                      *** Initiating the SOSCF procedure ***
                           *** Shutting down DIIS ***
                      *** Re-Reading the Fockian *** 
                      *** Removing any level shift *** 
ITER      Energy       Delta-E        Grad      Rot      Max-DP    RMS-DP
  6   -154.40957387  -0.0005656607  0.001128  0.001128  0.080075  0.000861
               *** Restarting incremental Fock matrix formation ***
  7   -154.40966224  -0.0000883729  0.000618  0.003011  0.098492  0.001053
  8   -154.40967667  -0.0000144251  0.000550  0.002833  0.068097  0.000731
  9   -154.40968341  -0.0000067459  0.000209  0.000881  0.027662  0.000304
 10   -154.40968462  -0.0000012088  0.000062  0.000130  0.005029  0.000055
 11   -154.40968471  -0.0000000928  0.000029  0.000138  0.003634  0.000039
 12   -154.40968475  -0.0000000391  0.000003  0.000009  0.000077  0.000002
                  ***Gradient check signals convergence***
              ***Rediagonalizing the Fockian in SOSCF/NRSCF***

               *****************************************************
               *                     SUCCESS                       *
               *           SCF CONVERGED AFTER  13 CYCLES          *
               *****************************************************

Old exchange energy                            =    -11.096536528 Eh
New exchange energy                            =    -11.096547896 Eh
Exchange energy change after final integration =     -0.000011368 Eh
Total energy after final integration           =   -154.409696123 Eh
Final COS-X integration done in                =     1.198 sec

----------------
TOTAL SCF ENERGY
----------------

Total Energy       :         -154.40969612 Eh           -4201.70144 eV

Components:
Nuclear Repulsion  :           74.27245173 Eh            2021.05616 eV
Electronic Energy  :         -228.68214785 Eh           -6222.75760 eV
One Electron Energy:         -362.55589101 Eh           -9865.64735 eV
Two Electron Energy:          133.87374316 Eh            3642.88975 eV
Max COSX asymmetry :            0.00000179 Eh               0.00005 eV

Virial components:
Potential Energy   :         -308.17558359 Eh           -8385.88396 eV
Kinetic Energy     :          153.76588747 Eh            4184.18252 eV
Virial Ratio       :            2.00418694


DFT components:
N(Alpha)           :       12.999817097083 electrons
N(Beta)            :       12.999817097083 electrons
N(Total)           :       25.999634194165 electrons
E(XC)              :      -10.364363876562 Eh       
DFET-embed. en.    :        0.000000000000 Eh       

---------------
SCF CONVERGENCE
---------------

  Last Energy change         ...   -1.3855e-09  Tolerance :   1.0000e-08
  Last MAX-Density change    ...    9.9920e-16  Tolerance :   1.0000e-07
  Last RMS-Density change    ...    1.8478e-17  Tolerance :   5.0000e-09
  Last Orbital Gradient      ...    1.4093e-06  Tolerance :   1.0000e-05
  Last Orbital Rotation      ...    3.5623e-06  Tolerance :   1.0000e-05

             **** THE GBW FILE WAS UPDATED (TZVPD_M062X_A_wt_dlpno_neg.gbw) ****
             **** DENSITY TZVPD_M062X_A_wt_dlpno_neg.scfp WAS UPDATED ****
             **** ENERGY FILE WAS UPDATED (TZVPD_M062X_A_wt_dlpno_neg.en.tmp) ****
             **** THE GBW FILE WAS UPDATED (TZVPD_M062X_A_wt_dlpno_neg.gbw) ****
             **** DENSITY TZVPD_M062X_A_wt_dlpno_neg.scfp WAS UPDATED ****
----------------
ORBITAL ENERGIES
----------------

  NO   OCC          E(Eh)            E(eV) 
   0   2.0000     -19.288937      -524.8787 
   1   2.0000     -10.346838      -281.5518 
   2   2.0000     -10.322301      -280.8841 
   3   2.0000      -0.793872       -21.6024 
   4   2.0000      -0.619597       -16.8601 
   5   2.0000      -0.454408       -12.3651 
   6   2.0000      -0.316613        -8.6155 
   7   2.0000      -0.294231        -8.0064 
   8   2.0000      -0.234663        -6.3855 
   9   2.0000      -0.218946        -5.9578 
  10   2.0000      -0.179279        -4.8784 
  11   2.0000      -0.035409        -0.9635 
  12   2.0000      -0.033327        -0.9069 
  13   0.0000       0.168133         4.5751 
  14   0.0000       0.187117         5.0917 
  15   0.0000       0.218609         5.9486 
  16   0.0000       0.219029         5.9601 
  17   0.0000       0.240242         6.5373 
  18   0.0000       0.255633         6.9561 
  19   0.0000       0.264932         7.2092 
  20   0.0000       0.279555         7.6071 
  21   0.0000       0.295553         8.0424 
  22   0.0000       0.318606         8.6697 
  23   0.0000       0.323026         8.7900 
  24   0.0000       0.332144         9.0381 
  25   0.0000       0.362510         9.8644 
  26   0.0000       0.382481        10.4078 
  27   0.0000       0.387761        10.5515 
  28   0.0000       0.403105        10.9691 
  29   0.0000       0.424187        11.5427 
  30   0.0000       0.431493        11.7415 
  31   0.0000       0.438372        11.9287 
  32   0.0000       0.455217        12.3871 
  33   0.0000       0.464923        12.6512 
  34   0.0000       0.474092        12.9007 
  35   0.0000       0.481962        13.1149 
  36   0.0000       0.487154        13.2561 
  37   0.0000       0.506318        13.7776 
  38   0.0000       0.510094        13.8804 
  39   0.0000       0.513617        13.9762 
  40   0.0000       0.535354        14.5677 
  41   0.0000       0.548344        14.9212 
  42   0.0000       0.550281        14.9739 
  43   0.0000       0.554492        15.0885 
  44   0.0000       0.563922        15.3451 
  45   0.0000       0.588618        16.0171 
  46   0.0000       0.593726        16.1561 
  47   0.0000       0.599217        16.3055 
  48   0.0000       0.617076        16.7915 
  49   0.0000       0.630402        17.1541 
  50   0.0000       0.660804        17.9814 
  51   0.0000       0.676365        18.4048 
  52   0.0000       0.729128        19.8406 
  53   0.0000       0.759055        20.6549 
  54   0.0000       0.775539        21.1035 
  55   0.0000       0.788147        21.4466 
  56   0.0000       0.809956        22.0400 
  57   0.0000       0.831084        22.6149 
  58   0.0000       0.845570        23.0091 
  59   0.0000       0.858610        23.3640 
  60   0.0000       0.888336        24.1728 
  61   0.0000       0.898122        24.4391 
  62   0.0000       0.904772        24.6201 
  63   0.0000       0.910784        24.7837 
  64   0.0000       0.920907        25.0591 
  65   0.0000       0.928881        25.2761 
  66   0.0000       0.946979        25.7686 
  67   0.0000       0.968637        26.3580 
  68   0.0000       0.982367        26.7316 
  69   0.0000       1.114379        30.3238 
  70   0.0000       1.148326        31.2475 
  71   0.0000       1.188363        32.3370 
  72   0.0000       1.208225        32.8775 
  73   0.0000       1.229754        33.4633 
  74   0.0000       1.299025        35.3483 
  75   0.0000       1.326766        36.1031 
  76   0.0000       1.379799        37.5462 
  77   0.0000       1.387388        37.7528 
  78   0.0000       1.437059        39.1044 
  79   0.0000       1.451318        39.4924 
  80   0.0000       1.467098        39.9218 
  81   0.0000       1.529100        41.6089 
  82   0.0000       1.605649        43.6919 
  83   0.0000       1.857224        50.5376 
  84   0.0000       1.963999        53.4431 
  85   0.0000       1.987696        54.0880 
  86   0.0000       1.992685        54.2237 
  87   0.0000       2.012743        54.7695 
  88   0.0000       2.022257        55.0284 
  89   0.0000       2.033864        55.3443 
  90   0.0000       2.080006        56.5998 
  91   0.0000       2.097407        57.0733 
  92   0.0000       2.111143        57.4471 
  93   0.0000       2.183073        59.4044 
  94   0.0000       2.209639        60.1273 
  95   0.0000       2.229458        60.6666 
  96   0.0000       2.254596        61.3507 
  97   0.0000       2.349179        63.9244 
  98   0.0000       2.363251        64.3073 
  99   0.0000       2.468621        67.1746 
 100   0.0000       2.532384        68.9097 
 101   0.0000       2.595191        70.6187 
 102   0.0000       2.662600        72.4530 
 103   0.0000       2.680504        72.9402 
 104   0.0000       2.693160        73.2846 
 105   0.0000       2.708943        73.7141 
 106   0.0000       2.779521        75.6346 
 107   0.0000       2.797634        76.1275 
 108   0.0000       2.847425        77.4824 
 109   0.0000       2.855176        77.6933 
 110   0.0000       2.898097        78.8612 
 111   0.0000       2.942446        80.0680 
 112   0.0000       2.948604        80.2356 
 113   0.0000       2.967146        80.7401 
 114   0.0000       3.055087        83.1331 
 115   0.0000       3.164538        86.1115 
 116   0.0000       3.289580        89.5140 
 117   0.0000       3.311915        90.1218 
 118   0.0000       3.357479        91.3617 
 119   0.0000       3.394284        92.3632 
 120   0.0000       3.442680        93.6801 
 121   0.0000       3.464666        94.2784 
 122   0.0000       3.515460        95.6605 
 123   0.0000       3.519483        95.7700 
 124   0.0000       3.535481        96.2053 
 125   0.0000       3.620290        98.5131 
 126   0.0000       3.630629        98.7944 
 127   0.0000       3.643520        99.1452 
 128   0.0000       3.722518       101.2949 
 129   0.0000       3.777839       102.8002 
 130   0.0000       3.838145       104.4412 
 131   0.0000       3.899028       106.0979 
 132   0.0000       4.027399       109.5911 
 133   0.0000       4.058766       110.4446 
 134   0.0000       4.153501       113.0225 
 135   0.0000       4.183293       113.8332 
 136   0.0000       4.230996       115.1312 
 137   0.0000       4.475218       121.7769 
 138   0.0000       4.533532       123.3637 
 139   0.0000       4.683577       127.4466 
 140   0.0000       4.714502       128.2881 
 141   0.0000       4.845196       131.8445 
 142   0.0000       5.014331       136.4469 
 143   0.0000       5.036663       137.0546 
 144   0.0000       5.539371       150.7339 
 145   0.0000       5.548465       150.9814 
 146   0.0000       5.747549       156.3987 
 147   0.0000       5.757913       156.6808 
 148   0.0000       6.173162       167.9803 
 149   0.0000       6.224332       169.3727 
 150   0.0000       6.382318       173.6717 
 151   0.0000       6.812698       185.3829 
 152   0.0000       6.832786       185.9296 
 153   0.0000       7.105564       193.3522 
 154   0.0000       7.171470       195.1456 
 155   0.0000       7.451701       202.7711 
 156   0.0000      22.835725       621.3917 
 157   0.0000      22.959305       624.7544 
 158   0.0000      44.500217      1210.9125 

                    ********************************
                    * MULLIKEN POPULATION ANALYSIS *
                    ********************************

-----------------------
MULLIKEN ATOMIC CHARGES
-----------------------
   0 C :   -0.993001
   1 C :   -0.281301
   2 O :   -0.973033
   3 H :    0.219010
   4 H :    0.219884
   5 H :    0.249406
   6 H :    0.306397
   7 H :    0.252639
Sum of atomic charges:   -1.0000000

--------------------------------
MULLIKEN REDUCED ORBITAL CHARGES
--------------------------------
  0 C s       :     3.461908  s :     3.461908
      pz      :     1.067216  p :     3.418989
      px      :     1.177692
      py      :     1.174082
      dz2     :     0.000525  d :     0.108881
      dxz     :     0.038873
      dyz     :    -0.002433
      dx2y2   :     0.031400
      dxy     :     0.040516
      f0      :     0.000694  f :     0.003222
      f+1     :     0.000632
      f-1     :     0.000425
      f+2     :     0.000538
      f-2     :     0.000447
      f+3     :     0.000361
      f-3     :     0.000125
  1 C s       :     3.378644  s :     3.378644
      pz      :     0.846625  p :     2.658346
      px      :     0.876236
      py      :     0.935485
      dz2     :     0.019195  d :     0.233127
      dxz     :     0.043761
      dyz     :     0.025058
      dx2y2   :     0.151111
      dxy     :    -0.005998
      f0      :     0.001081  f :     0.011184
      f+1     :     0.001877
      f-1     :     0.001585
      f+2     :     0.001506
      f-2     :     0.001463
      f+3     :     0.002551
      f-3     :     0.001121
  2 O s       :     4.050064  s :     4.050064
      pz      :     1.772390  p :     4.917627
      px      :     1.500844
      py      :     1.644392
      dz2     :     0.000904  d :     0.003917
      dxz     :     0.000042
      dyz     :     0.000944
      dx2y2   :    -0.001964
      dxy     :     0.003991
      f0      :     0.000156  f :     0.001426
      f+1     :     0.000159
      f-1     :     0.000085
      f+2     :     0.000115
      f-2     :     0.000334
      f+3     :     0.000237
      f-3     :     0.000341
  3 H s       :     0.701131  s :     0.701131
      pz      :     0.017374  p :     0.079859
      px      :     0.061284
      py      :     0.001201
  4 H s       :     0.700791  s :     0.700791
      pz      :     0.010147  p :     0.079326
      px      :    -0.000162
      py      :     0.069340
  5 H s       :     0.689173  s :     0.689173
      pz      :     0.025921  p :     0.061421
      px      :     0.012830
      py      :     0.022670
  6 H s       :     0.646693  s :     0.646693
      pz      :     0.016042  p :     0.046910
      px      :     0.022331
      py      :     0.008537
  7 H s       :     0.688039  s :     0.688039
      pz      :     0.004712  p :     0.059322
      px      :     0.021210
      py      :     0.033400


                     *******************************
                     * LOEWDIN POPULATION ANALYSIS *
                     *******************************

----------------------
LOEWDIN ATOMIC CHARGES
----------------------
   0 C :   -0.172604
   1 C :   -0.627988
   2 O :   -0.430137
   3 H :    0.058820
   4 H :    0.062736
   5 H :    0.040653
   6 H :    0.029107
   7 H :    0.039414

-------------------------------
LOEWDIN REDUCED ORBITAL CHARGES
-------------------------------
  0 C s       :     2.766481  s :     2.766481
      pz      :     0.972718  p :     2.897579
      px      :     0.961058
      py      :     0.963804
      dz2     :     0.118970  d :     0.482523
      dxz     :     0.137081
      dyz     :     0.080977
      dx2y2   :     0.050420
      dxy     :     0.095075
      f0      :     0.005658  f :     0.026021
      f+1     :     0.003625
      f-1     :     0.004518
      f+2     :     0.004561
      f-2     :     0.002945
      f+3     :     0.003202
      f-3     :     0.001513
  1 C s       :     2.725143  s :     2.725143
      pz      :     0.898236  p :     2.676960
      px      :     0.890185
      py      :     0.888540
      dz2     :     0.218038  d :     1.144883
      dxz     :     0.291494
      dyz     :     0.151916
      dx2y2   :     0.315072
      dxy     :     0.168363
      f0      :     0.009251  f :     0.081003
      f+1     :     0.011315
      f-1     :     0.011798
      f+2     :     0.010075
      f-2     :     0.012017
      f+3     :     0.016623
      f-3     :     0.009925
  2 O s       :     3.450388  s :     3.450388
      pz      :     1.622186  p :     4.696438
      px      :     1.515923
      py      :     1.558330
      dz2     :     0.042402  d :     0.279168
      dxz     :     0.061741
      dyz     :     0.033469
      dx2y2   :     0.081174
      dxy     :     0.060381
      f0      :     0.000395  f :     0.004144
      f+1     :     0.000553
      f-1     :     0.000272
      f+2     :     0.000374
      f-2     :     0.000875
      f+3     :     0.000760
      f-3     :     0.000915
  3 H s       :     0.719900  s :     0.719900
      pz      :     0.071465  p :     0.221280
      px      :     0.097519
      py      :     0.052296
  4 H s       :     0.719157  s :     0.719157
      pz      :     0.054500  p :     0.218107
      px      :     0.053474
      py      :     0.110133
  5 H s       :     0.721431  s :     0.721431
      pz      :     0.081696  p :     0.237916
      px      :     0.093795
      py      :     0.062425
  6 H s       :     0.728309  s :     0.728309
      pz      :     0.069109  p :     0.242584
      px      :     0.089283
      py      :     0.084192
  7 H s       :     0.723107  s :     0.723107
      pz      :     0.062491  p :     0.237480
      px      :     0.071483
      py      :     0.103505


                      *****************************
                      * MAYER POPULATION ANALYSIS *
                      *****************************

  NA   - Mulliken gross atomic population
  ZA   - Total nuclear charge
  QA   - Mulliken gross atomic charge
  VA   - Mayer's total valence
  BVA  - Mayer's bonded valence
  FA   - Mayer's free valence

  ATOM       NA         ZA         QA         VA         BVA        FA
  0 C      6.9930     6.0000    -0.9930     4.0340     4.0340     0.0000
  1 C      6.2813     6.0000    -0.2813     3.5246     3.5246     0.0000
  2 O      8.9730     8.0000    -0.9730     1.0225     1.0225     0.0000
  3 H      0.7810     1.0000     0.2190     1.1187     1.1187     0.0000
  4 H      0.7801     1.0000     0.2199     1.1121     1.1121     0.0000
  5 H      0.7506     1.0000     0.2494     1.0011     1.0011    -0.0000
  6 H      0.6936     1.0000     0.3064     0.9083     0.9083     0.0000
  7 H      0.7474     1.0000     0.2526     0.9890     0.9890     0.0000

  Mayer bond orders larger than 0.100000
B(  0-C ,  1-C ) :   0.6979 B(  0-C ,  2-O ) :   0.3512 B(  0-C ,  5-H ) :   1.0087 
B(  0-C ,  6-H ) :   0.9776 B(  0-C ,  7-H ) :   1.0055 B(  1-C ,  2-O ) :   0.8107 
B(  1-C ,  3-H ) :   1.0476 B(  1-C ,  4-H ) :   1.0436 

-------
TIMINGS
-------

Total SCF time: 0 days 0 hours 0 min 13 sec 

Total time                  ....      13.641 sec
Sum of individual times     ....      13.478 sec  ( 98.8%)

Fock matrix formation       ....      12.755 sec  ( 93.5%)
  Split-RI-J                ....       0.699 sec  (  5.5% of F)
  Chain of spheres X        ....       7.523 sec  ( 59.0% of F)
  XC integration            ....       4.495 sec  ( 35.2% of F)
    Basis function eval.    ....       0.680 sec  ( 15.1% of XC)
    Density eval.           ....       1.340 sec  ( 29.8% of XC)
    XC-Functional eval.     ....       0.303 sec  (  6.7% of XC)
    XC-Potential eval.      ....       2.070 sec  ( 46.1% of XC)
Diagonalization             ....       0.048 sec  (  0.3%)
Density matrix formation    ....       0.004 sec  (  0.0%)
Population analysis         ....       0.006 sec  (  0.0%)
Initial guess               ....       0.087 sec  (  0.6%)
Orbital Transformation      ....       0.000 sec  (  0.0%)
Orbital Orthonormalization  ....       0.000 sec  (  0.0%)
DIIS solution               ....       0.029 sec  (  0.2%)
SOSCF solution              ....       0.035 sec  (  0.3%)
Grid generation             ....       0.515 sec  (  3.8%)

Maximum memory used throughout the entire SCF-calculation: 64.1 MB


-------------------------------------------------------------------------------
                          DFT DISPERSION CORRECTION                            
                                                                               
                              DFTD3 V3.1  Rev 1                                
                              USING zero damping                               
-------------------------------------------------------------------------------
The M062X functional is recognized
Active option DFTDOPT                   ...         3   

molecular C6(AA) [au] = 434.730681 


            DFT-D V3
 parameters
 s6 scaling factor         :     1.0000 
 rs6 scaling factor        :     1.6190 
 s8 scaling factor         :     0.0000 
 rs8 scaling factor        :     1.0000 
 Damping factor alpha6     :    14.0000 
 Damping factor alpha8     :    16.0000 
 ad hoc parameters k1-k3   :    16.0000     1.3333    -4.0000 

 Edisp/kcal,au: -0.009554069014  -0.000015225376 
 E6   /kcal   :  -0.009554069 
 E8   /kcal   :  -0.000000000 
 % E8         :   0.000000000 

-------------------------   ----------------
Dispersion correction           -0.000015225
-------------------------   ----------------


-------------------------   --------------------
FINAL SINGLE POINT ENERGY      -154.409711348556
-------------------------   --------------------


                            ***************************************
                            *     ORCA property calculations      *
                            ***************************************

                                    ---------------------
                                    Active property flags
                                    ---------------------
   (+) Dipole Moment


------------------------------------------------------------------------------
                       ORCA ELECTRIC PROPERTIES CALCULATION
------------------------------------------------------------------------------

Dipole Moment Calculation                       ... on
Quadrupole Moment Calculation                   ... off
Polarizability Calculation                      ... off
GBWName                                         ... TZVPD_M062X_A_wt_dlpno_neg.gbw
Electron density file                           ... TZVPD_M062X_A_wt_dlpno_neg.scfp
The origin for moment calculation is the CENTER OF MASS  = (-2.285120, -4.543965 -4.868333)

-------------
DIPOLE MOMENT
-------------
                                X             Y             Z
Electronic contribution:      2.01410      -0.84652       1.82323
Nuclear contribution   :     -3.14382       1.30299      -2.83231
                        -----------------------------------------
Total Dipole Moment    :     -1.12973       0.45647      -1.00907
                        -----------------------------------------
Magnitude (a.u.)       :      1.58205
Magnitude (Debye)      :      4.02124



--------------------
Rotational spectrum 
--------------------
 
Rotational constants in cm-1:     1.288206     0.322942     0.285188 
Rotational constants in MHz : 38619.437223  9681.562038  8549.712012 

 Dipole components along the rotational axes: 
x,y,z [a.u.] :    -1.531757     0.395645     0.007298 
x,y,z [Debye]:    -3.893418     1.005651     0.018550 

 

Timings for individual modules:

Sum of individual times         ...       16.455 sec (=   0.274 min)
GTO integral calculation        ...        2.291 sec (=   0.038 min)  13.9 %
SCF iterations                  ...       14.164 sec (=   0.236 min)  86.1 %
                             ****ORCA TERMINATED NORMALLY****
TOTAL RUN TIME: 0 days 0 hours 0 minutes 17 seconds 7 msec
