
                                        *****************
                                        * O   R   C   A *
                                        *****************

                                            #,                                       
                                            ###                                      
                                            ####                                     
                                            #####                                    
                                            ######                                   
                                           ########,                                 
                                     ,,################,,,,,                         
                               ,,#################################,,                 
                          ,,##########################################,,             
                       ,#########################################, ''#####,          
                    ,#############################################,,   '####,        
                  ,##################################################,,,,####,       
                ,###########''''           ''''###############################       
              ,#####''   ,,,,##########,,,,          '''####'''          '####       
            ,##' ,,,,###########################,,,                        '##       
           ' ,,###''''                  '''############,,,                           
         ,,##''                                '''############,,,,        ,,,,,,###''
      ,#''                                            '''#######################'''  
     '                                                          ''''####''''         
             ,#######,   #######,   ,#######,      ##                                
            ,#'     '#,  ##    ##  ,#'     '#,    #''#        ######   ,####,        
            ##       ##  ##   ,#'  ##            #'  '#       #        #'  '#        
            ##       ##  #######   ##           ,######,      #####,   #    #        
            '#,     ,#'  ##    ##  '#,     ,#' ,#      #,         ##   #,  ,#        
             '#######'   ##     ##  '#######'  #'      '#     #####' # '####'        



                  #######################################################
                  #                        -***-                        #
                  #          Department of theory and spectroscopy      #
                  #    Directorship and core code : Frank Neese         #
                  #        Max Planck Institute fuer Kohlenforschung    #
                  #                Kaiser Wilhelm Platz 1               #
                  #                 D-45470 Muelheim/Ruhr               #
                  #                      Germany                        #
                  #                                                     #
                  #                  All rights reserved                #
                  #                        -***-                        #
                  #######################################################


                         Program Version 5.0.0 -  RELEASE  -
                                (SVN: $Rev: 19529$)
                ($Date: 2021-06-28 11:36:33 +0200 (Mo, 28 Jun 2021) $)


 With contributions from (in alphabetic order):
   Daniel Aravena         : Magnetic Suceptibility
   Michael Atanasov       : Ab Initio Ligand Field Theory (pilot matlab implementation)
   Alexander A. Auer      : GIAO ZORA, VPT2 properties, NMR spectrum
   Ute Becker             : Parallelization
   Giovanni Bistoni       : ED, misc. LED, open-shell LED, HFLD
   Martin Brehm           : Molecular dynamics
   Dmytro Bykov           : SCF Hessian
   Vijay G. Chilkuri      : MRCI spin determinant printing, contributions to CSF-ICE
   Dipayan Datta          : RHF DLPNO-CCSD density
   Achintya Kumar Dutta   : EOM-CC, STEOM-CC
   Dmitry Ganyushin       : Spin-Orbit,Spin-Spin,Magnetic field MRCI
   Miquel Garcia          : C-PCM Hessian, Gaussian charge scheme
   Yang Guo               : DLPNO-NEVPT2, F12-NEVPT2, CIM, IAO-localization
   Andreas Hansen         : Spin unrestricted coupled pair/coupled cluster methods
   Benjamin Helmich-Paris : MC-RPA, TRAH-SCF, COSX integrals
   Lee Huntington         : MR-EOM, pCC
   Robert Izsak           : Overlap fitted RIJCOSX, COSX-SCS-MP3, EOM
   Marcus Kettner         : VPT2
   Christian Kollmar      : KDIIS, OOCD, Brueckner-CCSD(T), CCSD density, CASPT2, CASPT2-K
   Simone Kossmann        : Meta GGA functionals, TD-DFT gradient, OOMP2, MP2 Hessian
   Martin Krupicka        : Initial AUTO-CI
   Lucas Lang             : DCDCAS
   Marvin Lechner         : AUTO-CI (C++ implementation), FIC-MRCC
   Dagmar Lenk            : GEPOL surface, SMD
   Dimitrios Liakos       : Extrapolation schemes; Compound Job, initial MDCI parallelization
   Dimitrios Manganas     : Further ROCIS development; embedding schemes
   Dimitrios Pantazis     : SARC Basis sets
   Anastasios Papadopoulos: AUTO-CI, single reference methods and gradients
   Taras Petrenko         : DFT Hessian,TD-DFT gradient, ASA, ECA, R-Raman, ABS, FL, XAS/XES, NRVS
   Peter Pinski           : DLPNO-MP2, DLPNO-MP2 Gradient
   Christoph Reimann      : Effective Core Potentials
   Marius Retegan         : Local ZFS, SOC
   Christoph Riplinger    : Optimizer, TS searches, QM/MM, DLPNO-CCSD(T), (RO)-DLPNO pert. Triples
   Tobias Risthaus        : Range-separated hybrids, TD-DFT gradient, RPA, STAB
   Michael Roemelt        : Original ROCIS implementation
   Masaaki Saitow         : Open-shell DLPNO-CCSD energy and density
   Barbara Sandhoefer     : DKH picture change effects
   Avijit Sen             : IP-ROCIS
   Kantharuban Sivalingam : CASSCF convergence, NEVPT2, FIC-MRCI
   Bernardo de Souza      : ESD, SOC TD-DFT
   Georgi Stoychev        : AutoAux, RI-MP2 NMR
   Willem Van den Heuvel  : Paramagnetic NMR
   Boris Wezisla          : Elementary symmetry handling
   Frank Wennmohs         : Technical directorship


 We gratefully acknowledge several colleagues who have allowed us to
 interface, adapt or use parts of their codes:
   Stefan Grimme, W. Hujo, H. Kruse, P. Pracht,  : VdW corrections, initial TS optimization,
                  C. Bannwarth, S. Ehlert          DFT functionals, gCP, sTDA/sTD-DF
   Ed Valeev, F. Pavosevic, A. Kumar             : LibInt (2-el integral package), F12 methods
   Garnet Chan, S. Sharma, J. Yang, R. Olivares  : DMRG
   Ulf Ekstrom                                   : XCFun DFT Library
   Mihaly Kallay                                 : mrcc  (arbitrary order and MRCC methods)
   Jiri Pittner, Ondrej Demel                    : Mk-CCSD
   Frank Weinhold                                : gennbo (NPA and NBO analysis)
   Christopher J. Cramer and Donald G. Truhlar   : smd solvation model
   Lars Goerigk                                  : TD-DFT with DH, B97 family of functionals
   V. Asgeirsson, H. Jonsson                     : NEB implementation
   FAccTs GmbH                                   : IRC, NEB, NEB-TS, DLPNO-Multilevel, CI-OPT
                                                   MM, QMMM, 2- and 3-layer-ONIOM, Crystal-QMMM,
                                                   LR-CPCM, SF, NACMEs, symmetry and pop. for TD-DFT,
                                                   nearIR, NL-DFT gradient (VV10), updates on ESD,
                                                   ML-optimized integration grids
   S Lehtola, MJT Oliveira, MAL Marques          : LibXC Library
   Liviu Ungur et al                             : ANISO software


 Your calculation uses the libint2 library for the computation of 2-el integrals
 For citations please refer to: http://libint.valeyev.net

 Your ORCA version has been built with support for libXC version: 5.1.0
 For citations please refer to: https://tddft.org/programs/libxc/

 This ORCA versions uses:
   CBLAS   interface :  Fast vector & matrix operations
   LAPACKE interface :  Fast linear algebra routines
   SCALAPACK package :  Parallel linear algebra routines
   Shared memory     :  Shared parallel matrices
   BLAS/LAPACK       :  OpenBLAS 0.3.15  USE64BITINT DYNAMIC_ARCH NO_AFFINITY Haswell SINGLE_THREADED
        Core in use  :  Haswell
   Copyright (c) 2011-2014, The OpenBLAS Project


XCFun DFT library Copyright 2009-2010 Ulf Ekstrom and contributors.
See http://admol.org/xcfun for more information.
This is free software; see the source code for copying conditions.
There is ABSOLUTELY NO WARRANTY; not even for MERCHANTABILITY or FITNESS FOR A PARTICULAR PURPOSE.
For details see the documentation.
Scientific users of this library should cite U. Ekstrom, L. Visscher, R. Bast, A. J. Thorvaldsen and K. Ruud;
J.Chem.Theor.Comp. 2010, DOI: 10.1021/ct100117s
XCFun Version 0.99 

================================================================================

----- Orbital basis set information -----
Your calculation utilizes the basis: def2-TZVP
   F. Weigend and R. Ahlrichs, Phys. Chem. Chem. Phys. 7, 3297 (2005).

----- AuxJ basis set information -----
Your calculation utilizes the auxiliary basis: def2/J
   F. Weigend, Phys. Chem. Chem. Phys. 8, 1057 (2006).

================================================================================
                                        WARNINGS
                       Please study these warnings very carefully!
================================================================================


INFO   : the flag for use of the SHARK integral package has been found!

================================================================================
                                       INPUT FILE
================================================================================
NAME = TZVP_LC_BLYP_C1_wt_dlpno_neg.com
|  1> !LC-BLYP RIJCOSX def2-TZVP def2/J TightSCF
|  2> *xyz 0 1 
|  3> C          3.80351        1.37472       -3.26081
|  4> C          3.93993        0.32036       -4.36773
|  5> H          4.10504       -0.65508       -3.90773
|  6> H          3.02280        0.28052       -4.95712
|  7> C          5.10585        0.66802       -5.30546
|  8> F          4.80913        1.15019       -6.41436
|  9> O          6.26737        0.56500       -4.81948
| 10> H          3.64113        2.33595       -3.70189
| 11> H          4.69995        1.39701       -2.67703
| 12> H          2.97435        1.12625       -2.63180
| 13> *
| 14> 
| 15> %MaxCore 64000
| 16> 
| 17> %pal nprocs 4
| 18> end  
| 19> 
| 20> %scf
| 21>   MaxIter 150
| 22> end
| 23> 
| 24> 
| 25>                          ****END OF INPUT****
================================================================================

                       ****************************
                       * Single Point Calculation *
                       ****************************

---------------------------------
CARTESIAN COORDINATES (ANGSTROEM)
---------------------------------
  C      3.803510    1.374720   -3.260810
  C      3.939930    0.320360   -4.367730
  H      4.105040   -0.655080   -3.907730
  H      3.022800    0.280520   -4.957120
  C      5.105850    0.668020   -5.305460
  F      4.809130    1.150190   -6.414360
  O      6.267370    0.565000   -4.819480
  H      3.641130    2.335950   -3.701890
  H      4.699950    1.397010   -2.677030
  H      2.974350    1.126250   -2.631800

----------------------------
CARTESIAN COORDINATES (A.U.)
----------------------------
  NO LB      ZA    FRAG     MASS         X           Y           Z
   0 C     6.0000    0    12.011    7.187592    2.597844   -6.162038
   1 C     6.0000    0    12.011    7.445389    0.605393   -8.253814
   2 H     1.0000    0     1.008    7.757401   -1.237922   -7.384540
   3 H     1.0000    0     1.008    5.712264    0.530106   -9.367599
   4 C     6.0000    0    12.011    9.648658    1.262375  -10.025866
   5 F     9.0000    0    18.998    9.087939    2.173544  -12.121384
   6 O     8.0000    0    15.999   11.843613    1.067695   -9.107497
   7 H     1.0000    0     1.008    6.880739    4.414306   -6.995558
   8 H     1.0000    0     1.008    8.881618    2.639966   -5.058854
   9 H     1.0000    0     1.008    5.620707    2.128304   -4.973381

--------------------------------
INTERNAL COORDINATES (ANGSTROEM)
--------------------------------
 C      0   0   0     0.000000000000     0.00000000     0.00000000
 C      1   0   0     1.534782496773     0.00000000     0.00000000
 H      2   1   0     1.091029103966   108.87861883     0.00000000
 H      2   1   3     1.090914861298   109.87798809   119.07251067
 C      2   1   3     1.536090646707   110.62592711   238.79183246
 F      5   2   1     1.245066214022   116.77346653   256.40267730
 O      5   2   1     1.263296636266   116.39584382    69.30137882
 H      1   2   3     1.069991562443   109.47094783   179.99975172
 H      1   2   3     1.070000283224   109.47126486    59.99980276
 H      1   2   3     1.069998704018   109.47106643   300.00024997

---------------------------
INTERNAL COORDINATES (A.U.)
---------------------------
 C      0   0   0     0.000000000000     0.00000000     0.00000000
 C      1   0   0     2.900318594036     0.00000000     0.00000000
 H      2   1   0     2.061746210632   108.87861883     0.00000000
 H      2   1   3     2.061530323277   109.87798809   119.07251067
 C      2   1   3     2.902790639154   110.62592711   238.79183246
 F      5   2   1     2.352834163100   116.77346653   256.40267730
 O      5   2   1     2.387284668446   116.39584382    69.30137882
 H      1   2   3     2.021991018624   109.47094783   179.99975172
 H      1   2   3     2.022007498512   109.47126486    59.99980276
 H      1   2   3     2.022004514245   109.47106643   300.00024997

---------------------
BASIS SET INFORMATION
---------------------
There are 4 groups of distinct atoms

 Group   1 Type C   : 11s6p2d1f contracted to 5s3p2d1f pattern {62111/411/11/1}
 Group   2 Type H   : 5s1p contracted to 3s1p pattern {311/1}
 Group   3 Type F   : 11s6p2d1f contracted to 5s3p2d1f pattern {62111/411/11/1}
 Group   4 Type O   : 11s6p2d1f contracted to 5s3p2d1f pattern {62111/411/11/1}

Atom   0C    basis set group =>   1
Atom   1C    basis set group =>   1
Atom   2H    basis set group =>   2
Atom   3H    basis set group =>   2
Atom   4C    basis set group =>   1
Atom   5F    basis set group =>   3
Atom   6O    basis set group =>   4
Atom   7H    basis set group =>   2
Atom   8H    basis set group =>   2
Atom   9H    basis set group =>   2
---------------------------------
AUXILIARY/J BASIS SET INFORMATION
---------------------------------
There are 4 groups of distinct atoms

 Group   1 Type C   : 12s5p4d2f1g contracted to 6s4p3d1f1g pattern {711111/2111/211/2/1}
 Group   2 Type H   : 5s2p1d contracted to 3s1p1d pattern {311/2/1}
 Group   3 Type F   : 12s5p4d2f1g contracted to 6s4p3d1f1g pattern {711111/2111/211/2/1}
 Group   4 Type O   : 12s5p4d2f1g contracted to 6s4p3d1f1g pattern {711111/2111/211/2/1}

Atom   0C    basis set group =>   1
Atom   1C    basis set group =>   1
Atom   2H    basis set group =>   2
Atom   3H    basis set group =>   2
Atom   4C    basis set group =>   1
Atom   5F    basis set group =>   3
Atom   6O    basis set group =>   4
Atom   7H    basis set group =>   2
Atom   8H    basis set group =>   2
Atom   9H    basis set group =>   2


           ************************************************************
           *        Program running with 4 parallel MPI-processes     *
           *              working on a common directory               *
           ************************************************************
------------------------------------------------------------------------------
                           ORCA GTO INTEGRAL CALCULATION
                           -- RI-GTO INTEGRALS CHOSEN --
------------------------------------------------------------------------------
------------------------------------------------------------------------------
                   ___                                                        
                  /   \      - P O W E R E D   B Y -                         
                 /     \                                                     
                 |  |  |   _    _      __       _____    __    __             
                 |  |  |  | |  | |    /  \     |  _  \  |  |  /  |          
                  \  \/   | |  | |   /    \    | | | |  |  | /  /          
                 / \  \   | |__| |  /  /\  \   | |_| |  |  |/  /          
                |  |  |   |  __  | /  /__\  \  |    /   |      \           
                |  |  |   | |  | | |   __   |  |    \   |  |\   \          
                \     /   | |  | | |  |  |  |  | |\  \  |  | \   \       
                 \___/    |_|  |_| |__|  |__|  |_| \__\ |__|  \__/        
                                                                              
                      - O R C A' S   B I G   F R I E N D -                    
                                      &                                       
                       - I N T E G R A L  F E E D E R -                       
                                                                              
 v1 FN, 2020, v2 2021                                                         
------------------------------------------------------------------------------


Reading SHARK input file TZVP_LC_BLYP_C1_wt_dlpno_neg.SHARKINP.tmp ... ok
----------------------
SHARK INTEGRAL PACKAGE
----------------------

Number of atoms                             ...     10
Number of basis functions                   ...    185
Number of shells                            ...     75
Maximum angular momentum                    ...      3
Integral batch strategy                     ... SHARK/LIBINT Hybrid
RI-J (if used) integral strategy            ... SPLIT-RIJ (Revised 2003 algorithm where possible)
Printlevel                                  ...      1
Contraction scheme used                     ... SEGMENTED contraction
Coulomb Range Separation                    ... NOT USED
Exchange Range Separation                   ... Long Range
   Mu parameter                             ...  0.330000
   Scaling (regular/separated)              ...  0.000000  1.000000
Finite Nucleus Model                        ... NOT USED
Auxiliary Coulomb fitting basis             ... AVAILABLE
   # of basis functions in Aux-J            ...    300
   # of shells in Aux-J                     ...    100
   Maximum angular momentum in Aux-J        ...      4
Auxiliary J/K fitting basis                 ... NOT available
Auxiliary Correlation fitting basis         ... NOT available
Auxiliary 'external' fitting basis          ... NOT available
Integral threshold                          ...     2.500000e-11
Primitive cut-off                           ...     2.500000e-12
Primitive pair pre-selection threshold      ...     2.500000e-12

Calculating pre-screening integrals         ... done (  0.1 sec) Dimension = 75
Organizing shell pair data                  ... done (  0.0 sec)
Shell pair information
Total number of shell pairs                 ...      2850
Shell pairs after pre-screening             ...      2733
Total number of primitive shell pairs       ...      8640
Primitive shell pairs kept                  ...      6572
          la=0 lb=0:    762 shell pairs
          la=1 lb=0:    775 shell pairs
          la=1 lb=1:    209 shell pairs
          la=2 lb=0:    379 shell pairs
          la=2 lb=1:    197 shell pairs
          la=2 lb=2:     55 shell pairs
          la=3 lb=0:    192 shell pairs
          la=3 lb=1:     99 shell pairs
          la=3 lb=2:     50 shell pairs
          la=3 lb=3:     15 shell pairs

Calculating one electron integrals          ... done (  0.0 sec)
Calculating RI/J V-Matrix + Cholesky decomp.... done (  0.0 sec)
Calculating Nuclear repulsion               ... done (  0.0 sec) ENN=    176.910386053599 Eh

SHARK setup successfully completed in   0.2 seconds

Maximum memory used throughout the entire GTOINT-calculation: 13.8 MB


           ************************************************************
           *        Program running with 4 parallel MPI-processes     *
           *              working on a common directory               *
           ************************************************************
-------------------------------------------------------------------------------
                                 ORCA SCF
-------------------------------------------------------------------------------

------------
SCF SETTINGS
------------
Hamiltonian:
 Density Functional     Method          .... DFT(GTOs)
 Exchange Functional    Exchange        .... WB88
 Correlation Functional Correlation     .... LYP
 Gradients option       PostSCFGGA      .... off
   Density functional embedding theory  .... OFF
 Long-range corrected/Screened/Range-Separated Hybrid DFT is turned on
   Amount of maximum screened exact exchange              ....  1.000000
   Range separation parameter mu (erf(mu*r12)/r12)        ....  0.330000
 RI-approximation to the Coulomb term is turned on
   Number of AuxJ basis functions       .... 300
   RIJ-COSX (HFX calculated with COS-X)).... on


General Settings:
 Integral files         IntName         .... TZVP_LC_BLYP_C1_wt_dlpno_neg
 Hartree-Fock type      HFTyp           .... RHF
 Total Charge           Charge          ....    0
 Multiplicity           Mult            ....    1
 Number of Electrons    NEL             ....   40
 Basis Dimension        Dim             ....  185
 Nuclear Repulsion      ENuc            ....    176.9103860536 Eh

Convergence Acceleration:
 DIIS                   CNVDIIS         .... on
   Start iteration      DIISMaxIt       ....    12
   Startup error        DIISStart       ....  0.200000
   # of expansion vecs  DIISMaxEq       ....     5
   Bias factor          DIISBfac        ....   1.050
   Max. coefficient     DIISMaxC        ....  10.000
 Trust-Rad. Augm. Hess. CNVTRAH         .... auto
   Auto Start mean grad. ratio tolernc. ....  1.125000
   Auto Start start iteration           ....    20
   Auto Start num. interpolation iter.  ....    10
   Max. Number of Micro iterations      ....    16
   Max. Number of Macro iterations      .... Maxiter - #DIIS iter
   Number of Davidson start vectors     ....     2
   Converg. threshold I  (grad. norm)   ....   1.000e-05
   Converg. threshold II (energy diff.) ....   1.000e-08
   Grad. Scal. Fac. for Micro threshold ....   0.100
   Minimum threshold for Micro iter.    ....   0.010
   NR start threshold (gradient norm)   ....   0.001
   Initial trust radius                 ....   0.400
   Minimum AH scaling param. (alpha)    ....   1.000
   Maximum AH scaling param. (alpha)    .... 1000.000
   Orbital update algorithm             .... Taylor
   White noise on init. David. guess    .... on
   Maximum white noise                  ....   0.010
   Quad. conv. algorithm                .... NR
 SOSCF                  CNVSOSCF        .... on
   Start iteration      SOSCFMaxIt      ....   150
   Startup grad/error   SOSCFStart      ....  0.003300
 Level Shifting         CNVShift        .... on
   Level shift para.    LevelShift      ....    0.2500
   Turn off err/grad.   ShiftErr        ....    0.0010
 Zerner damping         CNVZerner       .... off
 Static damping         CNVDamp         .... on
   Fraction old density DampFac         ....    0.7000
   Max. Damping (<1)    DampMax         ....    0.9800
   Min. Damping (>=0)   DampMin         ....    0.0000
   Turn off err/grad.   DampErr         ....    0.1000
 Fernandez-Rico         CNVRico         .... off

SCF Procedure:
 Maximum # iterations   MaxIter         ....   150
 SCF integral mode      SCFMode         .... Direct
   Integral package                     .... SHARK and LIBINT hybrid scheme
 Reset frequency        DirectResetFreq ....    20
 Integral Threshold     Thresh          ....  2.500e-11 Eh
 Primitive CutOff       TCut            ....  2.500e-12 Eh

Convergence Tolerance:
 Convergence Check Mode ConvCheckMode   .... Total+1el-Energy
 Convergence forced     ConvForced      .... 0
 Energy Change          TolE            ....  1.000e-08 Eh
 1-El. energy change                    ....  1.000e-05 Eh
 Orbital Gradient       TolG            ....  1.000e-05
 Orbital Rotation angle TolX            ....  1.000e-05
 DIIS Error             TolErr          ....  5.000e-07


Diagonalization of the overlap matrix:
Smallest eigenvalue                        ... 3.935e-04
Time for diagonalization                   ...    0.009 sec
Threshold for overlap eigenvalues          ... 1.000e-08
Number of eigenvalues below threshold      ... 0
Time for construction of square roots      ...    0.006 sec
Total time needed                          ...    0.016 sec

Time for model grid setup =    0.062 sec

------------------------------
INITIAL GUESS: MODEL POTENTIAL
------------------------------
Loading Hartree-Fock densities                     ... done
Calculating cut-offs                               ... done
Initializing the effective Hamiltonian             ... done
Setting up the integral package (SHARK)            ... done
Starting the Coulomb interaction                   ... done (   0.0 sec)
Reading the grid                                   ... done
Mapping shells                                     ... done
Starting the XC term evaluation                    ... done (   0.1 sec)
  promolecular density results
     # of electrons  =     39.998409240
     EX              =    -34.957623172
     EC              =     -1.329937804
     EX+EC           =    -36.287560977
Transforming the Hamiltonian                       ... done (   0.0 sec)
Diagonalizing the Hamiltonian                      ... done (   0.0 sec)
Back transforming the eigenvectors                 ... done (   0.0 sec)
Now organizing SCF variables                       ... done
                      ------------------
                      INITIAL GUESS DONE (   0.2 sec)
                      ------------------
-------------------
DFT GRID GENERATION
-------------------

General Integration Accuracy     IntAcc      ... 4.388
Radial Grid Type                 RadialGrid  ... OptM3 with GC (2021)
Angular Grid (max. ang.)         AngularGrid ... 4 (Lebedev-302)
Angular grid pruning method      GridPruning ... 4 (adaptive)
Weight generation scheme         WeightScheme... Becke
Basis function cutoff            BFCut       ... 1.0000e-11
Integration weight cutoff        WCut        ... 1.0000e-14
Angular grids for H and He will be reduced by one unit
Partially contracted basis set               ... off
Rotationally invariant grid construction     ... off

Total number of grid points                  ...    46564
Total number of batches                      ...      732
Average number of points per batch           ...       63
Average number of grid points per atom       ...     4656
Time for grid setup =    0.312 sec

--------------------
COSX GRID GENERATION
--------------------

GRIDX 1
-------
General Integration Accuracy     IntAcc      ... 3.816
Radial Grid Type                 RadialGrid  ... OptM3 with GC (2021)
Angular Grid (max. ang.)         AngularGrid ... 1 (Lebedev-50)
Angular grid pruning method      GridPruning ... 4 (adaptive)
Weight generation scheme         WeightScheme... Becke
Basis function cutoff            BFCut       ... 1.0000e-11
Integration weight cutoff        WCut        ... 1.0000e-14
Angular grids for H and He will be reduced by one unit
Partially contracted basis set               ... on
Rotationally invariant grid construction     ... off

Total number of grid points                  ...     5962
Total number of batches                      ...      100
Average number of points per batch           ...       59
Average number of grid points per atom       ...      596
UseSFitting                                  ... on

GRIDX 2
-------
General Integration Accuracy     IntAcc      ... 4.020
Radial Grid Type                 RadialGrid  ... OptM3 with GC (2021)
Angular Grid (max. ang.)         AngularGrid ... 2 (Lebedev-110)
Angular grid pruning method      GridPruning ... 4 (adaptive)
Weight generation scheme         WeightScheme... Becke
Basis function cutoff            BFCut       ... 1.0000e-11
Integration weight cutoff        WCut        ... 1.0000e-14
Angular grids for H and He will be reduced by one unit
Partially contracted basis set               ... on
Rotationally invariant grid construction     ... off

Total number of grid points                  ...    13076
Total number of batches                      ...      210
Average number of points per batch           ...       62
Average number of grid points per atom       ...     1308
UseSFitting                                  ... on

GRIDX 3
-------
General Integration Accuracy     IntAcc      ... 4.338
Radial Grid Type                 RadialGrid  ... OptM3 with GC (2021)
Angular Grid (max. ang.)         AngularGrid ... 3 (Lebedev-194)
Angular grid pruning method      GridPruning ... 4 (adaptive)
Weight generation scheme         WeightScheme... Becke
Basis function cutoff            BFCut       ... 1.0000e-11
Integration weight cutoff        WCut        ... 1.0000e-14
Angular grids for H and He will be reduced by one unit
Partially contracted basis set               ... on
Rotationally invariant grid construction     ... off

Total number of grid points                  ...    28857
Total number of batches                      ...      457
Average number of points per batch           ...       63
Average number of grid points per atom       ...     2886
UseSFitting                                  ... on

Time for X-Grid setup             =    0.287 sec

--------------
SCF ITERATIONS
--------------
ITER       Energy         Delta-E        Max-DP      RMS-DP      [F,P]     Damp
               ***  Starting incremental Fock matrix formation  ***
  0   -291.6846662566   0.000000000000 0.05241675  0.00134302  0.2995308 0.7000
  1   -291.7806650479  -0.095998791379 0.03782545  0.00094324  0.1198226 0.7000
                               ***Turning on DIIS***
  2   -291.8191993889  -0.038534340927 0.05594644  0.00162738  0.0505428 0.0000
  3   -291.8879367571  -0.068737368225 0.02622113  0.00062250  0.0659984 0.0000
  4   -291.8979514040  -0.010014646912 0.00775650  0.00019038  0.0144124 0.0000
  5   -291.8985442635  -0.000592859493 0.00394674  0.00008948  0.0052289 0.0000
                      *** Initiating the SOSCF procedure ***
                           *** Shutting down DIIS ***
                      *** Re-Reading the Fockian *** 
                      *** Removing any level shift *** 
ITER      Energy       Delta-E        Grad      Rot      Max-DP    RMS-DP
  6   -291.89860110  -0.0000568378  0.001004  0.001004  0.003098  0.000065
               *** Restarting incremental Fock matrix formation ***
  7   -291.89860705  -0.0000059447  0.000209  0.000278  0.000831  0.000023
  8   -291.89860732  -0.0000002775  0.000486  0.000539  0.000365  0.000007
  9   -291.89860953  -0.0000022096  0.000065  0.000099  0.000138  0.000004
 10   -291.89860956  -0.0000000295  0.000074  0.000101  0.000064  0.000001
 11   -291.89860963  -0.0000000676  0.000005  0.000012  0.000014  0.000000
 12   -291.89860963  -0.0000000002  0.000003  0.000005  0.000010  0.000000
                  ***Gradient check signals convergence***
              ***Rediagonalizing the Fockian in SOSCF/NRSCF***

               *****************************************************
               *                     SUCCESS                       *
               *           SCF CONVERGED AFTER  13 CYCLES          *
               *****************************************************


----------------
TOTAL SCF ENERGY
----------------

Total Energy       :         -291.89860963 Eh           -7942.96498 eV

Components:
Nuclear Repulsion  :          176.91038605 Eh            4813.97634 eV
Electronic Energy  :         -468.80899568 Eh          -12756.94132 eV
One Electron Energy:         -750.07461744 Eh          -20410.56799 eV
Two Electron Energy:          281.26562176 Eh            7653.62667 eV
Max COSX asymmetry :            0.00000209 Eh               0.00006 eV

Virial components:
Potential Energy   :         -582.87031652 Eh          -15860.70766 eV
Kinetic Energy     :          290.97170689 Eh            7917.74267 eV
Virial Ratio       :            2.00318554


DFT components:
N(Alpha)           :       19.999998492439 electrons
N(Beta)            :       19.999998492439 electrons
N(Total)           :       39.999996984877 electrons
E(XC)              :      -29.690512479060 Eh       
DFET-embed. en.    :        0.000000000000 Eh       

---------------
SCF CONVERGENCE
---------------

  Last Energy change         ...    9.0995e-10  Tolerance :   1.0000e-08
  Last MAX-Density change    ...    4.7652e-06  Tolerance :   1.0000e-07
  Last RMS-Density change    ...    9.1838e-08  Tolerance :   5.0000e-09
  Last Orbital Gradient      ...    1.9065e-06  Tolerance :   1.0000e-05
  Last Orbital Rotation      ...    5.2811e-06  Tolerance :   1.0000e-05

             **** THE GBW FILE WAS UPDATED (TZVP_LC_BLYP_C1_wt_dlpno_neg.gbw) ****
             **** DENSITY TZVP_LC_BLYP_C1_wt_dlpno_neg.scfp WAS UPDATED ****
             **** ENERGY FILE WAS UPDATED (TZVP_LC_BLYP_C1_wt_dlpno_neg.en.tmp) ****
             **** THE GBW FILE WAS UPDATED (TZVP_LC_BLYP_C1_wt_dlpno_neg.gbw) ****
             **** DENSITY TZVP_LC_BLYP_C1_wt_dlpno_neg.scfp WAS UPDATED ****
----------------
ORBITAL ENERGIES
----------------

  NO   OCC          E(Eh)            E(eV) 
   0   2.0000     -24.528568      -667.4563 
   1   2.0000     -18.943126      -515.4687 
   2   2.0000     -10.250430      -278.9284 
   3   2.0000     -10.100495      -274.8485 
   4   2.0000     -10.074334      -274.1366 
   5   2.0000      -1.407139       -38.2902 
   6   2.0000      -1.121861       -30.5274 
   7   2.0000      -0.911298       -24.7977 
   8   2.0000      -0.796375       -21.6705 
   9   2.0000      -0.748480       -20.3672 
  10   2.0000      -0.661913       -18.0116 
  11   2.0000      -0.644268       -17.5314 
  12   2.0000      -0.612186       -16.6584 
  13   2.0000      -0.570932       -15.5358 
  14   2.0000      -0.538232       -14.6460 
  15   2.0000      -0.501629       -13.6500 
  16   2.0000      -0.479227       -13.0404 
  17   2.0000      -0.472886       -12.8679 
  18   2.0000      -0.447878       -12.1874 
  19   2.0000      -0.390744       -10.6327 
  20   0.0000       0.052548         1.4299 
  21   0.0000       0.097103         2.6423 
  22   0.0000       0.137878         3.7519 
  23   0.0000       0.153692         4.1822 
  24   0.0000       0.166074         4.5191 
  25   0.0000       0.179109         4.8738 
  26   0.0000       0.196222         5.3395 
  27   0.0000       0.225584         6.1385 
  28   0.0000       0.248434         6.7602 
  29   0.0000       0.261254         7.1091 
  30   0.0000       0.264812         7.2059 
  31   0.0000       0.294879         8.0241 
  32   0.0000       0.309233         8.4147 
  33   0.0000       0.341147         9.2831 
  34   0.0000       0.369813        10.0631 
  35   0.0000       0.399796        10.8790 
  36   0.0000       0.438093        11.9211 
  37   0.0000       0.445738        12.1291 
  38   0.0000       0.457507        12.4494 
  39   0.0000       0.477032        12.9807 
  40   0.0000       0.482655        13.1337 
  41   0.0000       0.491087        13.3632 
  42   0.0000       0.514180        13.9916 
  43   0.0000       0.531277        14.4568 
  44   0.0000       0.547065        14.8864 
  45   0.0000       0.567378        15.4391 
  46   0.0000       0.608311        16.5530 
  47   0.0000       0.612094        16.6559 
  48   0.0000       0.646368        17.5886 
  49   0.0000       0.675682        18.3862 
  50   0.0000       0.686940        18.6926 
  51   0.0000       0.714275        19.4364 
  52   0.0000       0.748219        20.3601 
  53   0.0000       0.780237        21.2313 
  54   0.0000       0.872728        23.7481 
  55   0.0000       0.904743        24.6193 
  56   0.0000       0.913330        24.8530 
  57   0.0000       0.931527        25.3481 
  58   0.0000       0.978160        26.6171 
  59   0.0000       0.996836        27.1253 
  60   0.0000       1.049826        28.5672 
  61   0.0000       1.062575        28.9141 
  62   0.0000       1.088851        29.6291 
  63   0.0000       1.106964        30.1220 
  64   0.0000       1.152891        31.3718 
  65   0.0000       1.177625        32.0448 
  66   0.0000       1.212072        32.9822 
  67   0.0000       1.234626        33.5959 
  68   0.0000       1.306317        35.5467 
  69   0.0000       1.400077        38.0980 
  70   0.0000       1.473963        40.1086 
  71   0.0000       1.481291        40.3080 
  72   0.0000       1.562576        42.5199 
  73   0.0000       1.595213        43.4080 
  74   0.0000       1.611005        43.8377 
  75   0.0000       1.618495        44.0415 
  76   0.0000       1.647678        44.8356 
  77   0.0000       1.658414        45.1277 
  78   0.0000       1.680585        45.7310 
  79   0.0000       1.713160        46.6175 
  80   0.0000       1.778272        48.3893 
  81   0.0000       1.807915        49.1959 
  82   0.0000       1.878341        51.1122 
  83   0.0000       1.890687        51.4482 
  84   0.0000       1.920910        52.2706 
  85   0.0000       1.939520        52.7770 
  86   0.0000       1.982007        53.9332 
  87   0.0000       1.990087        54.1530 
  88   0.0000       2.068393        56.2838 
  89   0.0000       2.131084        57.9897 
  90   0.0000       2.164697        58.9044 
  91   0.0000       2.210781        60.1584 
  92   0.0000       2.232466        60.7485 
  93   0.0000       2.292376        62.3787 
  94   0.0000       2.338722        63.6399 
  95   0.0000       2.377306        64.6898 
  96   0.0000       2.387315        64.9622 
  97   0.0000       2.418061        65.7988 
  98   0.0000       2.433672        66.2236 
  99   0.0000       2.463180        67.0265 
 100   0.0000       2.503087        68.1125 
 101   0.0000       2.518411        68.5295 
 102   0.0000       2.543992        69.2256 
 103   0.0000       2.605737        70.9057 
 104   0.0000       2.656518        72.2875 
 105   0.0000       2.665563        72.5337 
 106   0.0000       2.681920        72.9787 
 107   0.0000       2.720058        74.0166 
 108   0.0000       2.733009        74.3689 
 109   0.0000       2.756555        75.0097 
 110   0.0000       2.822055        76.7920 
 111   0.0000       2.853101        77.6368 
 112   0.0000       2.902605        78.9839 
 113   0.0000       2.939830        79.9968 
 114   0.0000       2.949179        80.2512 
 115   0.0000       3.018914        82.1488 
 116   0.0000       3.070039        83.5400 
 117   0.0000       3.090551        84.0982 
 118   0.0000       3.104955        84.4901 
 119   0.0000       3.129938        85.1700 
 120   0.0000       3.143125        85.5288 
 121   0.0000       3.160480        86.0010 
 122   0.0000       3.223479        87.7153 
 123   0.0000       3.249830        88.4324 
 124   0.0000       3.282890        89.3320 
 125   0.0000       3.312649        90.1418 
 126   0.0000       3.346497        91.0628 
 127   0.0000       3.416922        92.9792 
 128   0.0000       3.432004        93.3896 
 129   0.0000       3.454093        93.9906 
 130   0.0000       3.467693        94.3607 
 131   0.0000       3.537500        96.2603 
 132   0.0000       3.545586        96.4803 
 133   0.0000       3.573147        97.2303 
 134   0.0000       3.612944        98.3132 
 135   0.0000       3.652793        99.3975 
 136   0.0000       3.751720       102.0895 
 137   0.0000       3.806383       103.5770 
 138   0.0000       3.824951       104.0822 
 139   0.0000       3.894406       105.9722 
 140   0.0000       3.905513       106.2744 
 141   0.0000       3.945539       107.3636 
 142   0.0000       3.975929       108.1905 
 143   0.0000       4.019904       109.3871 
 144   0.0000       4.116836       112.0248 
 145   0.0000       4.164217       113.3141 
 146   0.0000       4.237684       115.3133 
 147   0.0000       4.398509       119.6895 
 148   0.0000       4.450653       121.1084 
 149   0.0000       4.488614       122.1414 
 150   0.0000       4.556037       123.9761 
 151   0.0000       4.629780       125.9827 
 152   0.0000       4.649063       126.5074 
 153   0.0000       4.789737       130.3354 
 154   0.0000       4.820815       131.1810 
 155   0.0000       5.109262       139.0301 
 156   0.0000       5.253779       142.9626 
 157   0.0000       5.275950       143.5659 
 158   0.0000       5.549375       151.0062 
 159   0.0000       5.625973       153.0905 
 160   0.0000       5.979222       162.7029 
 161   0.0000       6.162712       167.6959 
 162   0.0000       6.258999       170.3160 
 163   0.0000       6.383641       173.7077 
 164   0.0000       6.469410       176.0416 
 165   0.0000       6.784728       184.6218 
 166   0.0000       6.857814       186.6106 
 167   0.0000       6.870457       186.9546 
 168   0.0000       6.888402       187.4430 
 169   0.0000       7.007276       190.6777 
 170   0.0000       7.120411       193.7562 
 171   0.0000       7.182960       195.4583 
 172   0.0000       7.393511       201.1877 
 173   0.0000       7.533300       204.9915 
 174   0.0000       7.859518       213.8683 
 175   0.0000       8.330937       226.6963 
 176   0.0000       8.406391       228.7495 
 177   0.0000       8.805766       239.6171 
 178   0.0000       8.960953       243.8399 
 179   0.0000       8.994468       244.7519 
 180   0.0000      22.239828       605.1765 
 181   0.0000      22.304869       606.9463 
 182   0.0000      23.102969       628.6638 
 183   0.0000      43.498144      1183.6447 
 184   0.0000      56.849794      1546.9615 

                    ********************************
                    * MULLIKEN POPULATION ANALYSIS *
                    ********************************

-----------------------
MULLIKEN ATOMIC CHARGES
-----------------------
   0 C :   -0.406880
   1 C :   -0.258035
   2 H :    0.149857
   3 H :    0.128613
   4 C :    0.289227
   5 F :   -0.052610
   6 O :   -0.285161
   7 H :    0.136527
   8 H :    0.158021
   9 H :    0.140442
Sum of atomic charges:    0.0000000

--------------------------------
MULLIKEN REDUCED ORBITAL CHARGES
--------------------------------
  0 C s       :     3.304584  s :     3.304584
      pz      :     0.982437  p :     3.053842
      px      :     1.088842
      py      :     0.982562
      dz2     :     0.008663  d :     0.045252
      dxz     :     0.015368
      dyz     :     0.004664
      dx2y2   :     0.012136
      dxy     :     0.004421
      f0      :     0.000328  f :     0.003201
      f+1     :     0.000088
      f-1     :     0.000424
      f+2     :     0.001528
      f-2     :     0.000618
      f+3     :     0.000129
      f-3     :     0.000087
  1 C s       :     3.267964  s :     3.267964
      pz      :     0.963455  p :     2.911841
      px      :     0.945654
      py      :     1.002732
      dz2     :     0.013486  d :     0.073198
      dxz     :     0.027138
      dyz     :     0.004607
      dx2y2   :     0.019377
      dxy     :     0.008591
      f0      :     0.000557  f :     0.005031
      f+1     :     0.000596
      f-1     :     0.000536
      f+2     :     0.001675
      f-2     :     0.000981
      f+3     :     0.000373
      f-3     :     0.000312
  2 H s       :     0.829759  s :     0.829759
      pz      :     0.005463  p :     0.020384
      px      :     0.003760
      py      :     0.011161
  3 H s       :     0.851035  s :     0.851035
      pz      :     0.006038  p :     0.020352
      px      :     0.010308
      py      :     0.004006
  4 C s       :     3.113137  s :     3.113137
      pz      :     0.700755  p :     2.294994
      px      :     0.856805
      py      :     0.737434
      dz2     :     0.065816  d :     0.273866
      dxz     :     0.080647
      dyz     :     0.039768
      dx2y2   :     0.037977
      dxy     :     0.049658
      f0      :     0.005302  f :     0.028776
      f+1     :     0.007508
      f-1     :     0.002822
      f+2     :     0.004425
      f-2     :     0.003561
      f+3     :     0.002157
      f-3     :     0.003002
  5 F s       :     3.870651  s :     3.870651
      pz      :     1.546652  p :     5.163333
      px      :     1.865079
      py      :     1.751603
      dz2     :     0.006254  d :     0.017753
      dxz     :     0.004196
      dyz     :     0.005151
      dx2y2   :     0.001109
      dxy     :     0.001043
      f0      :     0.000228  f :     0.000873
      f+1     :     0.000184
      f-1     :     0.000224
      f+2     :     0.000100
      f-2     :     0.000110
      f+3     :     0.000014
      f-3     :     0.000013
  6 O s       :     3.795859  s :     3.795859
      pz      :     1.632904  p :     4.460896
      px      :     1.395854
      py      :     1.432139
      dz2     :     0.003331  d :     0.026896
      dxz     :     0.007826
      dyz     :     0.001425
      dx2y2   :     0.006007
      dxy     :     0.008307
      f0      :     0.000146  f :     0.001509
      f+1     :     0.000359
      f-1     :     0.000012
      f+2     :     0.000286
      f-2     :     0.000197
      f+3     :     0.000188
      f-3     :     0.000321
  7 H s       :     0.842992  s :     0.842992
      pz      :     0.005289  p :     0.020481
      px      :     0.004509
      py      :     0.010683
  8 H s       :     0.821324  s :     0.821324
      pz      :     0.006529  p :     0.020656
      px      :     0.009962
      py      :     0.004164
  9 H s       :     0.838927  s :     0.838927
      pz      :     0.007283  p :     0.020631
      px      :     0.008869
      py      :     0.004478


                     *******************************
                     * LOEWDIN POPULATION ANALYSIS *
                     *******************************

----------------------
LOEWDIN ATOMIC CHARGES
----------------------
   0 C :   -0.300994
   1 C :   -0.268727
   2 H :    0.155357
   3 H :    0.142099
   4 C :   -0.528587
   5 F :    0.356929
   6 O :    0.065673
   7 H :    0.124248
   8 H :    0.129667
   9 H :    0.124334

-------------------------------
LOEWDIN REDUCED ORBITAL CHARGES
-------------------------------
  0 C s       :     2.815937  s :     2.815937
      pz      :     1.053026  p :     3.210889
      px      :     1.092943
      py      :     1.064920
      dz2     :     0.038287  d :     0.249192
      dxz     :     0.077112
      dyz     :     0.051540
      dx2y2   :     0.062230
      dxy     :     0.020023
      f0      :     0.005625  f :     0.024976
      f+1     :     0.001449
      f-1     :     0.004208
      f+2     :     0.004333
      f-2     :     0.003823
      f+3     :     0.003028
      f-3     :     0.002509
  1 C s       :     2.787981  s :     2.787981
      pz      :     1.029924  p :     3.093265
      px      :     1.013260
      py      :     1.050082
      dz2     :     0.056858  d :     0.351366
      dxz     :     0.107960
      dyz     :     0.062511
      dx2y2   :     0.087550
      dxy     :     0.036487
      f0      :     0.007010  f :     0.036115
      f+1     :     0.004676
      f-1     :     0.004621
      f+2     :     0.005724
      f-2     :     0.006151
      f+3     :     0.003939
      f-3     :     0.003994
  2 H s       :     0.785974  s :     0.785974
      pz      :     0.016743  p :     0.058669
      px      :     0.012342
      py      :     0.029584
  3 H s       :     0.799254  s :     0.799254
      pz      :     0.017986  p :     0.058647
      px      :     0.027524
      py      :     0.013137
  4 C s       :     2.788425  s :     2.788425
      pz      :     0.854483  p :     2.621481
      px      :     1.022115
      py      :     0.744883
      dz2     :     0.225889  d :     0.945380
      dxz     :     0.297811
      dyz     :     0.140092
      dx2y2   :     0.132892
      dxy     :     0.148696
      f0      :     0.032212  f :     0.173301
      f+1     :     0.044607
      f-1     :     0.022291
      f+2     :     0.024322
      f-2     :     0.021093
      f+3     :     0.014190
      f-3     :     0.014587
  5 F s       :     3.526829  s :     3.526829
      pz      :     1.612686  p :     5.075695
      px      :     1.774598
      py      :     1.688412
      dz2     :     0.013460  d :     0.038380
      dxz     :     0.009700
      dyz     :     0.010816
      dx2y2   :     0.002088
      dxy     :     0.002315
      f0      :     0.000503  f :     0.002167
      f+1     :     0.000499
      f-1     :     0.000552
      f+2     :     0.000249
      f-2     :     0.000304
      f+3     :     0.000031
      f-3     :     0.000029
  6 O s       :     3.441783  s :     3.441783
      pz      :     1.565346  p :     4.429605
      px      :     1.505119
      py      :     1.359140
      dz2     :     0.008006  d :     0.057945
      dxz     :     0.018611
      dyz     :     0.002073
      dx2y2   :     0.019053
      dxy     :     0.010201
      f0      :     0.000587  f :     0.004993
      f+1     :     0.001019
      f-1     :     0.000024
      f+2     :     0.001302
      f-2     :     0.000416
      f+3     :     0.000991
      f-3     :     0.000655
  7 H s       :     0.812283  s :     0.812283
      pz      :     0.017677  p :     0.063469
      px      :     0.015137
      py      :     0.030655
  8 H s       :     0.806093  s :     0.806093
      pz      :     0.019812  p :     0.064240
      px      :     0.030546
      py      :     0.013882
  9 H s       :     0.812190  s :     0.812190
      pz      :     0.021092  p :     0.063476
      px      :     0.027214
      py      :     0.015169


                      *****************************
                      * MAYER POPULATION ANALYSIS *
                      *****************************

  NA   - Mulliken gross atomic population
  ZA   - Total nuclear charge
  QA   - Mulliken gross atomic charge
  VA   - Mayer's total valence
  BVA  - Mayer's bonded valence
  FA   - Mayer's free valence

  ATOM       NA         ZA         QA         VA         BVA        FA
  0 C      6.4069     6.0000    -0.4069     3.8614     3.8614    -0.0000
  1 C      6.2580     6.0000    -0.2580     3.7615     3.7615     0.0000
  2 H      0.8501     1.0000     0.1499     0.9629     0.9629     0.0000
  3 H      0.8714     1.0000     0.1286     0.9587     0.9587     0.0000
  4 C      5.7108     6.0000     0.2892     4.2989     4.2989     0.0000
  5 F      9.0526     9.0000    -0.0526     1.2513     1.2513    -0.0000
  6 O      8.2852     8.0000    -0.2852     2.1673     2.1673     0.0000
  7 H      0.8635     1.0000     0.1365     0.9597     0.9597    -0.0000
  8 H      0.8420     1.0000     0.1580     0.9699     0.9699    -0.0000
  9 H      0.8596     1.0000     0.1404     0.9628     0.9628    -0.0000

  Mayer bond orders larger than 0.100000
B(  0-C ,  1-C ) :   0.9344 B(  0-C ,  7-H ) :   0.9709 B(  0-C ,  8-H ) :   0.9675 
B(  0-C ,  9-H ) :   0.9755 B(  1-C ,  2-H ) :   0.9547 B(  1-C ,  3-H ) :   0.9613 
B(  1-C ,  4-C ) :   0.9585 B(  4-C ,  5-F ) :   1.2206 B(  4-C ,  6-O ) :   2.1012 


-------
TIMINGS
-------

Total SCF time: 0 days 0 hours 0 min 19 sec 

Total time                  ....      19.977 sec
Sum of individual times     ....      19.799 sec  ( 99.1%)

Fock matrix formation       ....      18.864 sec  ( 94.4%)
  Split-RI-J                ....       1.038 sec  (  5.5% of F)
  Chain of spheres X        ....      14.977 sec  ( 79.4% of F)
  XC integration            ....       2.804 sec  ( 14.9% of F)
    Basis function eval.    ....       0.818 sec  ( 29.2% of XC)
    Density eval.           ....       0.548 sec  ( 19.5% of XC)
    XC-Functional eval.     ....       0.266 sec  (  9.5% of XC)
    XC-Potential eval.      ....       0.690 sec  ( 24.6% of XC)
Diagonalization             ....       0.060 sec  (  0.3%)
Density matrix formation    ....       0.005 sec  (  0.0%)
Population analysis         ....       0.009 sec  (  0.0%)
Initial guess               ....       0.120 sec  (  0.6%)
Orbital Transformation      ....       0.000 sec  (  0.0%)
Orbital Orthonormalization  ....       0.000 sec  (  0.0%)
DIIS solution               ....       0.036 sec  (  0.2%)
SOSCF solution              ....       0.043 sec  (  0.2%)
Grid generation             ....       0.661 sec  (  3.3%)

Maximum memory used throughout the entire SCF-calculation: 19.4 MB

-------------------------   --------------------
FINAL SINGLE POINT ENERGY      -291.898609629486
-------------------------   --------------------


                            ***************************************
                            *     ORCA property calculations      *
                            ***************************************

                                    ---------------------
                                    Active property flags
                                    ---------------------
   (+) Dipole Moment


------------------------------------------------------------------------------
                       ORCA ELECTRIC PROPERTIES CALCULATION
------------------------------------------------------------------------------

Dipole Moment Calculation                       ... on
Quadrupole Moment Calculation                   ... off
Polarizability Calculation                      ... off
GBWName                                         ... TZVP_LC_BLYP_C1_wt_dlpno_neg.gbw
Electron density file                           ... TZVP_LC_BLYP_C1_wt_dlpno_neg.scfp
The origin for moment calculation is the CENTER OF MASS  = ( 9.056355,  1.584778 -9.249540)

-------------
DIPOLE MOMENT
-------------
                                X             Y             Z
Electronic contribution:      3.99251      -0.01679      -7.44193
Nuclear contribution   :     -5.17129      -0.01923       7.59895
                        -----------------------------------------
Total Dipole Moment    :     -1.17878      -0.03602       0.15702
                        -----------------------------------------
Magnitude (a.u.)       :      1.18974
Magnitude (Debye)      :      3.02408



--------------------
Rotational spectrum 
--------------------
 
Rotational constants in cm-1:     0.282073     0.131822     0.105134 
Rotational constants in MHz :  8456.328792  3951.925810  3151.840112 

 Dipole components along the rotational axes: 
x,y,z [a.u.] :     0.767899     0.870564     0.260645 
x,y,z [Debye]:     1.951844     2.212799     0.662506 

 

Timings for individual modules:

Sum of individual times         ...       21.154 sec (=   0.353 min)
GTO integral calculation        ...        0.703 sec (=   0.012 min)   3.3 %
SCF iterations                  ...       20.451 sec (=   0.341 min)  96.7 %
                             ****ORCA TERMINATED NORMALLY****
TOTAL RUN TIME: 0 days 0 hours 0 minutes 21 seconds 647 msec
