
                                        *****************
                                        * O   R   C   A *
                                        *****************

                                            #,                                       
                                            ###                                      
                                            ####                                     
                                            #####                                    
                                            ######                                   
                                           ########,                                 
                                     ,,################,,,,,                         
                               ,,#################################,,                 
                          ,,##########################################,,             
                       ,#########################################, ''#####,          
                    ,#############################################,,   '####,        
                  ,##################################################,,,,####,       
                ,###########''''           ''''###############################       
              ,#####''   ,,,,##########,,,,          '''####'''          '####       
            ,##' ,,,,###########################,,,                        '##       
           ' ,,###''''                  '''############,,,                           
         ,,##''                                '''############,,,,        ,,,,,,###''
      ,#''                                            '''#######################'''  
     '                                                          ''''####''''         
             ,#######,   #######,   ,#######,      ##                                
            ,#'     '#,  ##    ##  ,#'     '#,    #''#        ######   ,####,        
            ##       ##  ##   ,#'  ##            #'  '#       #        #'  '#        
            ##       ##  #######   ##           ,######,      #####,   #    #        
            '#,     ,#'  ##    ##  '#,     ,#' ,#      #,         ##   #,  ,#        
             '#######'   ##     ##  '#######'  #'      '#     #####' # '####'        



                  #######################################################
                  #                        -***-                        #
                  #          Department of theory and spectroscopy      #
                  #    Directorship and core code : Frank Neese         #
                  #        Max Planck Institute fuer Kohlenforschung    #
                  #                Kaiser Wilhelm Platz 1               #
                  #                 D-45470 Muelheim/Ruhr               #
                  #                      Germany                        #
                  #                                                     #
                  #                  All rights reserved                #
                  #                        -***-                        #
                  #######################################################


                         Program Version 5.0.0 -  RELEASE  -
                                (SVN: $Rev: 19529$)
                ($Date: 2021-06-28 11:36:33 +0200 (Mo, 28 Jun 2021) $)


 With contributions from (in alphabetic order):
   Daniel Aravena         : Magnetic Suceptibility
   Michael Atanasov       : Ab Initio Ligand Field Theory (pilot matlab implementation)
   Alexander A. Auer      : GIAO ZORA, VPT2 properties, NMR spectrum
   Ute Becker             : Parallelization
   Giovanni Bistoni       : ED, misc. LED, open-shell LED, HFLD
   Martin Brehm           : Molecular dynamics
   Dmytro Bykov           : SCF Hessian
   Vijay G. Chilkuri      : MRCI spin determinant printing, contributions to CSF-ICE
   Dipayan Datta          : RHF DLPNO-CCSD density
   Achintya Kumar Dutta   : EOM-CC, STEOM-CC
   Dmitry Ganyushin       : Spin-Orbit,Spin-Spin,Magnetic field MRCI
   Miquel Garcia          : C-PCM Hessian, Gaussian charge scheme
   Yang Guo               : DLPNO-NEVPT2, F12-NEVPT2, CIM, IAO-localization
   Andreas Hansen         : Spin unrestricted coupled pair/coupled cluster methods
   Benjamin Helmich-Paris : MC-RPA, TRAH-SCF, COSX integrals
   Lee Huntington         : MR-EOM, pCC
   Robert Izsak           : Overlap fitted RIJCOSX, COSX-SCS-MP3, EOM
   Marcus Kettner         : VPT2
   Christian Kollmar      : KDIIS, OOCD, Brueckner-CCSD(T), CCSD density, CASPT2, CASPT2-K
   Simone Kossmann        : Meta GGA functionals, TD-DFT gradient, OOMP2, MP2 Hessian
   Martin Krupicka        : Initial AUTO-CI
   Lucas Lang             : DCDCAS
   Marvin Lechner         : AUTO-CI (C++ implementation), FIC-MRCC
   Dagmar Lenk            : GEPOL surface, SMD
   Dimitrios Liakos       : Extrapolation schemes; Compound Job, initial MDCI parallelization
   Dimitrios Manganas     : Further ROCIS development; embedding schemes
   Dimitrios Pantazis     : SARC Basis sets
   Anastasios Papadopoulos: AUTO-CI, single reference methods and gradients
   Taras Petrenko         : DFT Hessian,TD-DFT gradient, ASA, ECA, R-Raman, ABS, FL, XAS/XES, NRVS
   Peter Pinski           : DLPNO-MP2, DLPNO-MP2 Gradient
   Christoph Reimann      : Effective Core Potentials
   Marius Retegan         : Local ZFS, SOC
   Christoph Riplinger    : Optimizer, TS searches, QM/MM, DLPNO-CCSD(T), (RO)-DLPNO pert. Triples
   Tobias Risthaus        : Range-separated hybrids, TD-DFT gradient, RPA, STAB
   Michael Roemelt        : Original ROCIS implementation
   Masaaki Saitow         : Open-shell DLPNO-CCSD energy and density
   Barbara Sandhoefer     : DKH picture change effects
   Avijit Sen             : IP-ROCIS
   Kantharuban Sivalingam : CASSCF convergence, NEVPT2, FIC-MRCI
   Bernardo de Souza      : ESD, SOC TD-DFT
   Georgi Stoychev        : AutoAux, RI-MP2 NMR
   Willem Van den Heuvel  : Paramagnetic NMR
   Boris Wezisla          : Elementary symmetry handling
   Frank Wennmohs         : Technical directorship


 We gratefully acknowledge several colleagues who have allowed us to
 interface, adapt or use parts of their codes:
   Stefan Grimme, W. Hujo, H. Kruse, P. Pracht,  : VdW corrections, initial TS optimization,
                  C. Bannwarth, S. Ehlert          DFT functionals, gCP, sTDA/sTD-DF
   Ed Valeev, F. Pavosevic, A. Kumar             : LibInt (2-el integral package), F12 methods
   Garnet Chan, S. Sharma, J. Yang, R. Olivares  : DMRG
   Ulf Ekstrom                                   : XCFun DFT Library
   Mihaly Kallay                                 : mrcc  (arbitrary order and MRCC methods)
   Jiri Pittner, Ondrej Demel                    : Mk-CCSD
   Frank Weinhold                                : gennbo (NPA and NBO analysis)
   Christopher J. Cramer and Donald G. Truhlar   : smd solvation model
   Lars Goerigk                                  : TD-DFT with DH, B97 family of functionals
   V. Asgeirsson, H. Jonsson                     : NEB implementation
   FAccTs GmbH                                   : IRC, NEB, NEB-TS, DLPNO-Multilevel, CI-OPT
                                                   MM, QMMM, 2- and 3-layer-ONIOM, Crystal-QMMM,
                                                   LR-CPCM, SF, NACMEs, symmetry and pop. for TD-DFT,
                                                   nearIR, NL-DFT gradient (VV10), updates on ESD,
                                                   ML-optimized integration grids
   S Lehtola, MJT Oliveira, MAL Marques          : LibXC Library
   Liviu Ungur et al                             : ANISO software


 Your calculation uses the libint2 library for the computation of 2-el integrals
 For citations please refer to: http://libint.valeyev.net

 Your ORCA version has been built with support for libXC version: 5.1.0
 For citations please refer to: https://tddft.org/programs/libxc/

 This ORCA versions uses:
   CBLAS   interface :  Fast vector & matrix operations
   LAPACKE interface :  Fast linear algebra routines
   SCALAPACK package :  Parallel linear algebra routines
   Shared memory     :  Shared parallel matrices
   BLAS/LAPACK       :  OpenBLAS 0.3.15  USE64BITINT DYNAMIC_ARCH NO_AFFINITY Haswell SINGLE_THREADED
        Core in use  :  Haswell
   Copyright (c) 2011-2014, The OpenBLAS Project




***************************************
The coordinates will be read from file: D1.xyz
***************************************


XCFun DFT library Copyright 2009-2010 Ulf Ekstrom and contributors.
See http://admol.org/xcfun for more information.
This is free software; see the source code for copying conditions.
There is ABSOLUTELY NO WARRANTY; not even for MERCHANTABILITY or FITNESS FOR A PARTICULAR PURPOSE.
For details see the documentation.
Scientific users of this library should cite U. Ekstrom, L. Visscher, R. Bast, A. J. Thorvaldsen and K. Ruud;
J.Chem.Theor.Comp. 2010, DOI: 10.1021/ct100117s
XCFun Version 0.99 

================================================================================

----- Orbital basis set information -----
Your calculation utilizes the basis: def2-TZVP
   F. Weigend and R. Ahlrichs, Phys. Chem. Chem. Phys. 7, 3297 (2005).

----- AuxJ basis set information -----
Your calculation utilizes the auxiliary basis: def2/J
   F. Weigend, Phys. Chem. Chem. Phys. 8, 1057 (2006).

================================================================================
                                        WARNINGS
                       Please study these warnings very carefully!
================================================================================


INFO   : the flag for use of the SHARK integral package has been found!

================================================================================
                                       INPUT FILE
================================================================================
NAME = LC_BLYP_D1_wb97.com
|  1> !LC-BLYP RIJCOSX def2-TZVP def2/J TightSCF xyzfile                                                                                         
|  2> 
|  3> *xyzfile 0 1 D1.xyz
|  4> 
|  5> %MaxCore 64000
|  6> 
|  7> %pal nprocs 18                                                                                                                                                  
|  8> end  
|  9> 
| 10> %scf
| 11>   MaxIter 150
| 12> end
| 13> 
| 14> 
| 15>                          ****END OF INPUT****
================================================================================

                       ****************************
                       * Single Point Calculation *
                       ****************************

---------------------------------
CARTESIAN COORDINATES (ANGSTROEM)
---------------------------------
  C      3.905947    2.819855   -3.752920
  C      5.295615    3.131515   -4.105334
  C      3.803511    1.374716   -3.260807
  C      3.939934    0.320362   -4.367729
  H      4.105043   -0.655085   -3.907733
  H      3.022801    0.280517   -4.957117
  C      5.105846    0.668022   -5.305463
  C      5.708619    3.468885   -5.324190
  N      6.904696    3.038954   -5.717084
  N      4.981884    4.293570   -6.097457
  H      5.000546    4.101311   -7.087761
  H      4.084693    4.596899   -5.739652
  H      5.963358    2.526112   -3.642391
  H      7.047164    2.066861   -5.473604
  H      7.198145    3.307994   -6.645225
  H      3.282025    2.949187   -4.640259
  H      3.565254    3.514574   -2.982523
  H      4.574833    1.215157   -2.500443
  H      2.843514    1.260845   -2.751465
  F      4.809132    1.150187   -6.414361
  O      6.267366    0.564999   -4.819481

----------------------------
CARTESIAN COORDINATES (A.U.)
----------------------------
  NO LB      ZA    FRAG     MASS         X           Y           Z
   0 C     6.0000    0    12.011    7.381171    5.328753   -7.091990
   1 C     6.0000    0    12.011   10.007263    5.917705   -7.757957
   2 C     6.0000    0    12.011    7.187595    2.597836   -6.162033
   3 C     6.0000    0    12.011    7.445396    0.605397   -8.253812
   4 H     1.0000    0     1.008    7.757407   -1.237930   -7.384545
   5 H     1.0000    0     1.008    5.712267    0.530101   -9.367594
   6 C     6.0000    0    12.011    9.648650    1.262379  -10.025871
   7 C     6.0000    0    12.011   10.787727    6.555244  -10.061262
   8 N     7.0000    0    14.007   13.047984    5.742790  -10.803723
   9 N     7.0000    0    14.007    9.414397    8.113671  -11.522523
  10 H     1.0000    0     1.008    9.449663    7.750356  -13.393928
  11 H     1.0000    0     1.008    7.718951    8.686880  -10.846370
  12 H     1.0000    0     1.008   11.269114    4.773660   -6.883122
  13 H     1.0000    0     1.008   13.317210    3.905801  -10.343612
  14 H     1.0000    0     1.008   13.602523    6.251203  -12.557656
  15 H     1.0000    0     1.008    6.202128    5.573156   -8.768819
  16 H     1.0000    0     1.008    6.737353    6.641582   -5.636151
  17 H     1.0000    0     1.008    8.645182    2.296314   -4.725153
  18 H     1.0000    0     1.008    5.373463    2.382653   -5.199515
  19 F     9.0000    0    18.998    9.087942    2.173538  -12.121386
  20 O     8.0000    0    15.999   11.843606    1.067694   -9.107499

--------------------------------
INTERNAL COORDINATES (ANGSTROEM)
--------------------------------
 C      0   0   0     0.000000000000     0.00000000     0.00000000
 C      1   0   0     1.467141978358     0.00000000     0.00000000
 C      1   2   0     1.530063517905   109.95648736     0.00000000
 C      3   1   2     1.534779619809   114.26304417   287.08499053
 H      4   3   1     1.091033620284   108.87872696   165.98404284
 H      4   3   1     1.090916052212   109.87805700   285.05600920
 C      4   3   1     1.536086504513   110.62627363    44.77550193
 C      2   1   3     1.330414023142   124.60886225   117.82427755
 N      8   2   1     1.330340554584   117.88637737   216.04032271
 N      8   2   1     1.343945232509   120.98842718    40.55760065
 H     10   8   2     1.008967339645   115.96355102   215.01872382
 H     10   8   2     1.012415453042   117.36824842   356.14625482
 H      2   1   3     1.013266581664   112.80126275   337.30529129
 H      9   8   2     1.012197712497   111.46140142    44.03797432
 H      9   8   2     1.009921403817   116.52360736   180.07724841
 H      1   2   3     1.092418234860   108.70639248   240.06343406
 H      1   2   3     1.091887397005   109.26080405   121.65715898
 H      3   1   2     1.094783130927   108.29253614    49.74675079
 H      3   1   2     1.092698650205   107.88852219   164.36908434
 F      7   4   3     1.245061367518   116.77397318   256.40244270
 O      7   4   3     1.263298100477   116.39547193    69.30146499

---------------------------
INTERNAL COORDINATES (A.U.)
---------------------------
 C      0   0   0     0.000000000000     0.00000000     0.00000000
 C      1   0   0     2.772496538677     0.00000000     0.00000000
 C      1   2   0     2.891401016345   109.95648736     0.00000000
 C      3   1   2     2.900313157364   114.26304417   287.08499053
 H      4   3   1     2.061754745237   108.87872696   165.98404284
 H      4   3   1     2.061532573779   109.87805700   285.05600920
 C      4   3   1     2.902782811542   110.62627363    44.77550193
 C      2   1   3     2.514118148466   124.60886225   117.82427755
 N      8   2   1     2.513979313013   117.88637737   216.04032271
 N      8   2   1     2.539688428430   120.98842718    40.55760065
 H     10   8   2     1.906671950000   115.96355102   215.01872382
 H     10   8   2     1.913187940000   117.36824842   356.14625482
 H      2   1   3     1.914796340000   112.80126275   337.30529129
 H      9   8   2     1.912776470000   111.46140142    44.03797432
 H      9   8   2     1.908474870000   116.52360736   180.07724841
 H      1   2   3     2.064371287587   108.70639248   240.06343406
 H      1   2   3     2.063368149420   109.26080405   121.65715898
 H      3   1   2     2.068840293488   108.29253614    49.74675079
 H      3   1   2     2.064901195792   107.88852219   164.36908434
 F      7   4   3     2.352825004535   116.77397318   256.40244270
 O      7   4   3     2.387287435404   116.39547193    69.30146499

---------------------
BASIS SET INFORMATION
---------------------
There are 5 groups of distinct atoms

 Group   1 Type C   : 11s6p2d1f contracted to 5s3p2d1f pattern {62111/411/11/1}
 Group   2 Type H   : 5s1p contracted to 3s1p pattern {311/1}
 Group   3 Type N   : 11s6p2d1f contracted to 5s3p2d1f pattern {62111/411/11/1}
 Group   4 Type F   : 11s6p2d1f contracted to 5s3p2d1f pattern {62111/411/11/1}
 Group   5 Type O   : 11s6p2d1f contracted to 5s3p2d1f pattern {62111/411/11/1}

Atom   0C    basis set group =>   1
Atom   1C    basis set group =>   1
Atom   2C    basis set group =>   1
Atom   3C    basis set group =>   1
Atom   4H    basis set group =>   2
Atom   5H    basis set group =>   2
Atom   6C    basis set group =>   1
Atom   7C    basis set group =>   1
Atom   8N    basis set group =>   3
Atom   9N    basis set group =>   3
Atom  10H    basis set group =>   2
Atom  11H    basis set group =>   2
Atom  12H    basis set group =>   2
Atom  13H    basis set group =>   2
Atom  14H    basis set group =>   2
Atom  15H    basis set group =>   2
Atom  16H    basis set group =>   2
Atom  17H    basis set group =>   2
Atom  18H    basis set group =>   2
Atom  19F    basis set group =>   4
Atom  20O    basis set group =>   5
---------------------------------
AUXILIARY/J BASIS SET INFORMATION
---------------------------------
There are 5 groups of distinct atoms

 Group   1 Type C   : 12s5p4d2f1g contracted to 6s4p3d1f1g pattern {711111/2111/211/2/1}
 Group   2 Type H   : 5s2p1d contracted to 3s1p1d pattern {311/2/1}
 Group   3 Type N   : 12s5p4d2f1g contracted to 6s4p3d1f1g pattern {711111/2111/211/2/1}
 Group   4 Type F   : 12s5p4d2f1g contracted to 6s4p3d1f1g pattern {711111/2111/211/2/1}
 Group   5 Type O   : 12s5p4d2f1g contracted to 6s4p3d1f1g pattern {711111/2111/211/2/1}

Atom   0C    basis set group =>   1
Atom   1C    basis set group =>   1
Atom   2C    basis set group =>   1
Atom   3C    basis set group =>   1
Atom   4H    basis set group =>   2
Atom   5H    basis set group =>   2
Atom   6C    basis set group =>   1
Atom   7C    basis set group =>   1
Atom   8N    basis set group =>   3
Atom   9N    basis set group =>   3
Atom  10H    basis set group =>   2
Atom  11H    basis set group =>   2
Atom  12H    basis set group =>   2
Atom  13H    basis set group =>   2
Atom  14H    basis set group =>   2
Atom  15H    basis set group =>   2
Atom  16H    basis set group =>   2
Atom  17H    basis set group =>   2
Atom  18H    basis set group =>   2
Atom  19F    basis set group =>   4
Atom  20O    basis set group =>   5


           ************************************************************
           *        Program running with 18 parallel MPI-processes    *
           *              working on a common directory               *
           ************************************************************
------------------------------------------------------------------------------
                           ORCA GTO INTEGRAL CALCULATION
                           -- RI-GTO INTEGRALS CHOSEN --
------------------------------------------------------------------------------
------------------------------------------------------------------------------
                   ___                                                        
                  /   \      - P O W E R E D   B Y -                         
                 /     \                                                     
                 |  |  |   _    _      __       _____    __    __             
                 |  |  |  | |  | |    /  \     |  _  \  |  |  /  |          
                  \  \/   | |  | |   /    \    | | | |  |  | /  /          
                 / \  \   | |__| |  /  /\  \   | |_| |  |  |/  /          
                |  |  |   |  __  | /  /__\  \  |    /   |      \           
                |  |  |   | |  | | |   __   |  |    \   |  |\   \          
                \     /   | |  | | |  |  |  |  | |\  \  |  | \   \       
                 \___/    |_|  |_| |__|  |__|  |_| \__\ |__|  \__/        
                                                                              
                      - O R C A' S   B I G   F R I E N D -                    
                                      &                                       
                       - I N T E G R A L  F E E D E R -                       
                                                                              
 v1 FN, 2020, v2 2021                                                         
------------------------------------------------------------------------------


Reading SHARK input file LC_BLYP_D1_wb97.SHARKINP.tmp ... ok
----------------------
SHARK INTEGRAL PACKAGE
----------------------

Number of atoms                             ...     21
Number of basis functions                   ...    376
Number of shells                            ...    154
Maximum angular momentum                    ...      3
Integral batch strategy                     ... SHARK/LIBINT Hybrid
RI-J (if used) integral strategy            ... SPLIT-RIJ (Revised 2003 algorithm where possible)
Printlevel                                  ...      1
Contraction scheme used                     ... SEGMENTED contraction
Coulomb Range Separation                    ... NOT USED
Exchange Range Separation                   ... Long Range
   Mu parameter                             ...  0.330000
   Scaling (regular/separated)              ...  0.000000  1.000000
Finite Nucleus Model                        ... NOT USED
Auxiliary Coulomb fitting basis             ... AVAILABLE
   # of basis functions in Aux-J            ...    611
   # of shells in Aux-J                     ...    205
   Maximum angular momentum in Aux-J        ...      4
Auxiliary J/K fitting basis                 ... NOT available
Auxiliary Correlation fitting basis         ... NOT available
Auxiliary 'external' fitting basis          ... NOT available
Integral threshold                          ...     2.500000e-11
Primitive cut-off                           ...     2.500000e-12
Primitive pair pre-selection threshold      ...     2.500000e-12

Calculating pre-screening integrals         ... done (  0.2 sec) Dimension = 154
Organizing shell pair data                  ... done (  0.2 sec)
Shell pair information
Total number of shell pairs                 ...     11935
Shell pairs after pre-screening             ...     10904
Total number of primitive shell pairs       ...     35764
Primitive shell pairs kept                  ...     23992
          la=0 lb=0:   3059 shell pairs
          la=1 lb=0:   3138 shell pairs
          la=1 lb=1:    822 shell pairs
          la=2 lb=0:   1509 shell pairs
          la=2 lb=1:    786 shell pairs
          la=2 lb=2:    204 shell pairs
          la=3 lb=0:    746 shell pairs
          la=3 lb=1:    393 shell pairs
          la=3 lb=2:    193 shell pairs
          la=3 lb=3:     54 shell pairs

Calculating one electron integrals          ... done (  0.0 sec)
Calculating RI/J V-Matrix + Cholesky decomp.... done (  0.1 sec)
Calculating Nuclear repulsion               ... done (  0.0 sec) ENN=    595.312497094716 Eh

SHARK setup successfully completed in   0.6 seconds

Maximum memory used throughout the entire GTOINT-calculation: 18.7 MB


           ************************************************************
           *        Program running with 18 parallel MPI-processes    *
           *              working on a common directory               *
           ************************************************************
-------------------------------------------------------------------------------
                                 ORCA SCF
-------------------------------------------------------------------------------

------------
SCF SETTINGS
------------
Hamiltonian:
 Density Functional     Method          .... DFT(GTOs)
 Exchange Functional    Exchange        .... WB88
 Correlation Functional Correlation     .... LYP
 Gradients option       PostSCFGGA      .... off
   Density functional embedding theory  .... OFF
 Long-range corrected/Screened/Range-Separated Hybrid DFT is turned on
   Amount of maximum screened exact exchange              ....  1.000000
   Range separation parameter mu (erf(mu*r12)/r12)        ....  0.330000
 RI-approximation to the Coulomb term is turned on
   Number of AuxJ basis functions       .... 611
   RIJ-COSX (HFX calculated with COS-X)).... on


General Settings:
 Integral files         IntName         .... LC_BLYP_D1_wb97
 Hartree-Fock type      HFTyp           .... RHF
 Total Charge           Charge          ....    0
 Multiplicity           Mult            ....    1
 Number of Electrons    NEL             ....   78
 Basis Dimension        Dim             ....  376
 Nuclear Repulsion      ENuc            ....    595.3124970947 Eh

Convergence Acceleration:
 DIIS                   CNVDIIS         .... on
   Start iteration      DIISMaxIt       ....    12
   Startup error        DIISStart       ....  0.200000
   # of expansion vecs  DIISMaxEq       ....     5
   Bias factor          DIISBfac        ....   1.050
   Max. coefficient     DIISMaxC        ....  10.000
 Trust-Rad. Augm. Hess. CNVTRAH         .... auto
   Auto Start mean grad. ratio tolernc. ....  1.125000
   Auto Start start iteration           ....    20
   Auto Start num. interpolation iter.  ....    10
   Max. Number of Micro iterations      ....    16
   Max. Number of Macro iterations      .... Maxiter - #DIIS iter
   Number of Davidson start vectors     ....     2
   Converg. threshold I  (grad. norm)   ....   1.000e-05
   Converg. threshold II (energy diff.) ....   1.000e-08
   Grad. Scal. Fac. for Micro threshold ....   0.100
   Minimum threshold for Micro iter.    ....   0.010
   NR start threshold (gradient norm)   ....   0.001
   Initial trust radius                 ....   0.400
   Minimum AH scaling param. (alpha)    ....   1.000
   Maximum AH scaling param. (alpha)    .... 1000.000
   Orbital update algorithm             .... Taylor
   White noise on init. David. guess    .... on
   Maximum white noise                  ....   0.010
   Quad. conv. algorithm                .... NR
 SOSCF                  CNVSOSCF        .... on
   Start iteration      SOSCFMaxIt      ....   150
   Startup grad/error   SOSCFStart      ....  0.003300
 Level Shifting         CNVShift        .... on
   Level shift para.    LevelShift      ....    0.2500
   Turn off err/grad.   ShiftErr        ....    0.0010
 Zerner damping         CNVZerner       .... off
 Static damping         CNVDamp         .... on
   Fraction old density DampFac         ....    0.7000
   Max. Damping (<1)    DampMax         ....    0.9800
   Min. Damping (>=0)   DampMin         ....    0.0000
   Turn off err/grad.   DampErr         ....    0.1000
 Fernandez-Rico         CNVRico         .... off

SCF Procedure:
 Maximum # iterations   MaxIter         ....   150
 SCF integral mode      SCFMode         .... Direct
   Integral package                     .... SHARK and LIBINT hybrid scheme
 Reset frequency        DirectResetFreq ....    20
 Integral Threshold     Thresh          ....  2.500e-11 Eh
 Primitive CutOff       TCut            ....  2.500e-12 Eh

Convergence Tolerance:
 Convergence Check Mode ConvCheckMode   .... Total+1el-Energy
 Convergence forced     ConvForced      .... 0
 Energy Change          TolE            ....  1.000e-08 Eh
 1-El. energy change                    ....  1.000e-05 Eh
 Orbital Gradient       TolG            ....  1.000e-05
 Orbital Rotation angle TolX            ....  1.000e-05
 DIIS Error             TolErr          ....  5.000e-07


Diagonalization of the overlap matrix:
Smallest eigenvalue                        ... 6.135e-05
Time for diagonalization                   ...    0.040 sec
Threshold for overlap eigenvalues          ... 1.000e-08
Number of eigenvalues below threshold      ... 0
Time for construction of square roots      ...    0.056 sec
Total time needed                          ...    0.099 sec

Time for model grid setup =    0.129 sec

------------------------------
INITIAL GUESS: MODEL POTENTIAL
------------------------------
Loading Hartree-Fock densities                     ... done
Calculating cut-offs                               ... done
Initializing the effective Hamiltonian             ... done
Setting up the integral package (SHARK)            ... done
Starting the Coulomb interaction                   ... done (   0.1 sec)
Reading the grid                                   ... done
Mapping shells                                     ... done
Starting the XC term evaluation                    ... done (   0.1 sec)
  promolecular density results
     # of electrons  =     78.001858614
     EX              =    -65.284040208
     EC              =     -2.633020498
     EX+EC           =    -67.917060705
Transforming the Hamiltonian                       ... done (   0.0 sec)
Diagonalizing the Hamiltonian                      ... done (   0.0 sec)
Back transforming the eigenvectors                 ... done (   0.0 sec)
Now organizing SCF variables                       ... done
                      ------------------
                      INITIAL GUESS DONE (   0.4 sec)
                      ------------------
-------------------
DFT GRID GENERATION
-------------------

General Integration Accuracy     IntAcc      ... 4.388
Radial Grid Type                 RadialGrid  ... OptM3 with GC (2021)
Angular Grid (max. ang.)         AngularGrid ... 4 (Lebedev-302)
Angular grid pruning method      GridPruning ... 4 (adaptive)
Weight generation scheme         WeightScheme... Becke
Basis function cutoff            BFCut       ... 1.0000e-11
Integration weight cutoff        WCut        ... 1.0000e-14
Angular grids for H and He will be reduced by one unit
Partially contracted basis set               ... off
Rotationally invariant grid construction     ... off

Total number of grid points                  ...    95071
Total number of batches                      ...     1493
Average number of points per batch           ...       63
Average number of grid points per atom       ...     4527
Time for grid setup =    0.698 sec

--------------------
COSX GRID GENERATION
--------------------

GRIDX 1
-------
General Integration Accuracy     IntAcc      ... 3.816
Radial Grid Type                 RadialGrid  ... OptM3 with GC (2021)
Angular Grid (max. ang.)         AngularGrid ... 1 (Lebedev-50)
Angular grid pruning method      GridPruning ... 4 (adaptive)
Weight generation scheme         WeightScheme... Becke
Basis function cutoff            BFCut       ... 1.0000e-11
Integration weight cutoff        WCut        ... 1.0000e-14
Angular grids for H and He will be reduced by one unit
Partially contracted basis set               ... on
Rotationally invariant grid construction     ... off

Total number of grid points                  ...    12108
Total number of batches                      ...      202
Average number of points per batch           ...       59
Average number of grid points per atom       ...      577
UseSFitting                                  ... on

GRIDX 2
-------
General Integration Accuracy     IntAcc      ... 4.020
Radial Grid Type                 RadialGrid  ... OptM3 with GC (2021)
Angular Grid (max. ang.)         AngularGrid ... 2 (Lebedev-110)
Angular grid pruning method      GridPruning ... 4 (adaptive)
Weight generation scheme         WeightScheme... Becke
Basis function cutoff            BFCut       ... 1.0000e-11
Integration weight cutoff        WCut        ... 1.0000e-14
Angular grids for H and He will be reduced by one unit
Partially contracted basis set               ... on
Rotationally invariant grid construction     ... off

Total number of grid points                  ...    25973
Total number of batches                      ...      417
Average number of points per batch           ...       62
Average number of grid points per atom       ...     1237
UseSFitting                                  ... on

GRIDX 3
-------
General Integration Accuracy     IntAcc      ... 4.338
Radial Grid Type                 RadialGrid  ... OptM3 with GC (2021)
Angular Grid (max. ang.)         AngularGrid ... 3 (Lebedev-194)
Angular grid pruning method      GridPruning ... 4 (adaptive)
Weight generation scheme         WeightScheme... Becke
Basis function cutoff            BFCut       ... 1.0000e-11
Integration weight cutoff        WCut        ... 1.0000e-14
Angular grids for H and He will be reduced by one unit
Partially contracted basis set               ... on
Rotationally invariant grid construction     ... off

Total number of grid points                  ...    56851
Total number of batches                      ...      897
Average number of points per batch           ...       63
Average number of grid points per atom       ...     2707
UseSFitting                                  ... on

Time for X-Grid setup             =    0.682 sec

--------------
SCF ITERATIONS
--------------
ITER       Energy         Delta-E        Max-DP      RMS-DP      [F,P]     Damp
               ***  Starting incremental Fock matrix formation  ***
  0   -518.3791343731   0.000000000000 0.15457488  0.00139341  0.2728870 0.7000
  1   -518.5655782084  -0.186443835350 0.14829797  0.00115344  0.1285617 0.7000
                               ***Turning on DIIS***
  2   -518.6494099056  -0.083831697230 0.30641713  0.00227354  0.0567906 0.0000
  3   -518.7865817660  -0.137171860348 0.06854704  0.00068611  0.0597255 0.0000
  4   -518.8100488135  -0.023467047540 0.02598365  0.00022041  0.0139816 0.0000
  5   -518.8108641324  -0.000815318822 0.00373847  0.00007044  0.0111969 0.0000
                      *** Initiating the SOSCF procedure ***
                           *** Shutting down DIIS ***
                      *** Re-Reading the Fockian *** 
                      *** Removing any level shift *** 
ITER      Energy       Delta-E        Grad      Rot      Max-DP    RMS-DP
  6   -518.81105402  -0.0001898905  0.000477  0.000477  0.002127  0.000054
               *** Restarting incremental Fock matrix formation ***
  7   -518.81106784  -0.0000138207  0.000144  0.000337  0.000976  0.000021
  8   -518.81106938  -0.0000015367  0.000213  0.000264  0.000407  0.000009
  9   -518.81107136  -0.0000019823  0.000034  0.000129  0.000314  0.000004
 10   -518.81107139  -0.0000000273  0.000050  0.000057  0.000125  0.000002
 11   -518.81107152  -0.0000001297  0.000009  0.000032  0.000129  0.000001
 12   -518.81107152  -0.0000000053  0.000009  0.000018  0.000028  0.000000
                  ***Gradient check signals convergence***
              ***Rediagonalizing the Fockian in SOSCF/NRSCF***

               *****************************************************
               *                     SUCCESS                       *
               *           SCF CONVERGED AFTER  13 CYCLES          *
               *****************************************************


----------------
TOTAL SCF ENERGY
----------------

Total Energy       :         -518.81107152 Eh          -14117.56698 eV

Components:
Nuclear Repulsion  :          595.31249709 Eh           16199.27660 eV
Electronic Energy  :        -1114.12356862 Eh          -30316.84358 eV
One Electron Energy:        -1890.00533058 Eh          -51429.65968 eV
Two Electron Energy:          775.88176196 Eh           21112.81610 eV
Max COSX asymmetry :            0.00000448 Eh               0.00012 eV

Virial components:
Potential Energy   :        -1036.52767635 Eh          -28205.35201 eV
Kinetic Energy     :          517.71660482 Eh           14087.78503 eV
Virial Ratio       :            2.00211403


DFT components:
N(Alpha)           :       39.000093578279 electrons
N(Beta)            :       39.000093578279 electrons
N(Total)           :       78.000187156558 electrons
E(XC)              :      -55.229517731758 Eh       
DFET-embed. en.    :        0.000000000000 Eh       

---------------
SCF CONVERGENCE
---------------

  Last Energy change         ...    1.4858e-09  Tolerance :   1.0000e-08
  Last MAX-Density change    ...    2.9599e-05  Tolerance :   1.0000e-07
  Last RMS-Density change    ...    3.2467e-07  Tolerance :   5.0000e-09
  Last Orbital Gradient      ...    2.2293e-06  Tolerance :   1.0000e-05
  Last Orbital Rotation      ...    1.0549e-05  Tolerance :   1.0000e-05

             **** THE GBW FILE WAS UPDATED (LC_BLYP_D1_wb97.gbw) ****
             **** DENSITY LC_BLYP_D1_wb97.scfp WAS UPDATED ****
             **** ENERGY FILE WAS UPDATED (LC_BLYP_D1_wb97.en.tmp) ****
             **** THE GBW FILE WAS UPDATED (LC_BLYP_D1_wb97.gbw) ****
             **** DENSITY LC_BLYP_D1_wb97.scfp WAS UPDATED ****
----------------
ORBITAL ENERGIES
----------------

  NO   OCC          E(Eh)            E(eV) 
   0   2.0000     -24.534770      -667.6250 
   1   2.0000     -18.948593      -515.6174 
   2   2.0000     -14.170593      -385.6014 
   3   2.0000     -14.148966      -385.0129 
   4   2.0000     -10.258416      -279.1457 
   5   2.0000     -10.110248      -275.1138 
   6   2.0000     -10.097453      -274.7657 
   7   2.0000     -10.075116      -274.1578 
   8   2.0000     -10.056892      -273.6619 
   9   2.0000      -9.992916      -271.9211 
  10   2.0000      -1.414082       -38.4791 
  11   2.0000      -1.134359       -30.8675 
  12   2.0000      -1.061027       -28.8720 
  13   2.0000      -0.970432       -26.4068 
  14   2.0000      -0.928608       -25.2687 
  15   2.0000      -0.860263       -23.4090 
  16   2.0000      -0.801991       -21.8233 
  17   2.0000      -0.766594       -20.8601 
  18   2.0000      -0.716856       -19.5066 
  19   2.0000      -0.686565       -18.6824 
  20   2.0000      -0.668596       -18.1934 
  21   2.0000      -0.649308       -17.6686 
  22   2.0000      -0.638675       -17.3792 
  23   2.0000      -0.624992       -17.0069 
  24   2.0000      -0.605223       -16.4689 
  25   2.0000      -0.570487       -15.5237 
  26   2.0000      -0.565054       -15.3759 
  27   2.0000      -0.544105       -14.8058 
  28   2.0000      -0.534363       -14.5408 
  29   2.0000      -0.499728       -13.5983 
  30   2.0000      -0.491921       -13.3859 
  31   2.0000      -0.468017       -12.7354 
  32   2.0000      -0.466089       -12.6829 
  33   2.0000      -0.446357       -12.1460 
  34   2.0000      -0.433036       -11.7835 
  35   2.0000      -0.420283       -11.4365 
  36   2.0000      -0.400202       -10.8901 
  37   2.0000      -0.363378        -9.8880 
  38   2.0000      -0.262674        -7.1477 
  39   0.0000       0.044803         1.2191 
  40   0.0000       0.087611         2.3840 
  41   0.0000       0.108353         2.9484 
  42   0.0000       0.123487         3.3602 
  43   0.0000       0.133336         3.6283 
  44   0.0000       0.141544         3.8516 
  45   0.0000       0.151171         4.1136 
  46   0.0000       0.160833         4.3765 
  47   0.0000       0.176933         4.8146 
  48   0.0000       0.179978         4.8974 
  49   0.0000       0.188958         5.1418 
  50   0.0000       0.203416         5.5352 
  51   0.0000       0.217606         5.9214 
  52   0.0000       0.233659         6.3582 
  53   0.0000       0.240440         6.5427 
  54   0.0000       0.252541         6.8720 
  55   0.0000       0.266375         7.2484 
  56   0.0000       0.277673         7.5559 
  57   0.0000       0.283860         7.7242 
  58   0.0000       0.303282         8.2527 
  59   0.0000       0.308587         8.3971 
  60   0.0000       0.314910         8.5691 
  61   0.0000       0.344885         9.3848 
  62   0.0000       0.350809         9.5460 
  63   0.0000       0.362001         9.8505 
  64   0.0000       0.371010        10.0957 
  65   0.0000       0.377658        10.2766 
  66   0.0000       0.399185        10.8624 
  67   0.0000       0.410400        11.1676 
  68   0.0000       0.418359        11.3841 
  69   0.0000       0.427245        11.6259 
  70   0.0000       0.433409        11.7937 
  71   0.0000       0.445962        12.1353 
  72   0.0000       0.449918        12.2429 
  73   0.0000       0.461961        12.5706 
  74   0.0000       0.466646        12.6981 
  75   0.0000       0.476606        12.9691 
  76   0.0000       0.485180        13.2024 
  77   0.0000       0.488122        13.2825 
  78   0.0000       0.496704        13.5160 
  79   0.0000       0.502751        13.6806 
  80   0.0000       0.510337        13.8870 
  81   0.0000       0.521266        14.1844 
  82   0.0000       0.524542        14.2735 
  83   0.0000       0.534655        14.5487 
  84   0.0000       0.538185        14.6448 
  85   0.0000       0.545337        14.8394 
  86   0.0000       0.550918        14.9912 
  87   0.0000       0.556536        15.1441 
  88   0.0000       0.564384        15.3577 
  89   0.0000       0.578757        15.7488 
  90   0.0000       0.593680        16.1549 
  91   0.0000       0.614344        16.7172 
  92   0.0000       0.616273        16.7696 
  93   0.0000       0.622855        16.9487 
  94   0.0000       0.640576        17.4309 
  95   0.0000       0.659915        17.9572 
  96   0.0000       0.660655        17.9773 
  97   0.0000       0.676968        18.4212 
  98   0.0000       0.686523        18.6812 
  99   0.0000       0.704424        19.1684 
 100   0.0000       0.730427        19.8759 
 101   0.0000       0.740162        20.1408 
 102   0.0000       0.765682        20.8353 
 103   0.0000       0.776703        21.1352 
 104   0.0000       0.787287        21.4232 
 105   0.0000       0.808513        22.0007 
 106   0.0000       0.835700        22.7405 
 107   0.0000       0.841638        22.9021 
 108   0.0000       0.862004        23.4563 
 109   0.0000       0.887343        24.1458 
 110   0.0000       0.903621        24.5888 
 111   0.0000       0.906826        24.6760 
 112   0.0000       0.926668        25.2159 
 113   0.0000       0.956071        26.0160 
 114   0.0000       0.966965        26.3125 
 115   0.0000       0.980136        26.6708 
 116   0.0000       0.995970        27.1017 
 117   0.0000       1.027480        27.9591 
 118   0.0000       1.029228        28.0067 
 119   0.0000       1.055095        28.7106 
 120   0.0000       1.058960        28.8158 
 121   0.0000       1.092665        29.7329 
 122   0.0000       1.115350        30.3502 
 123   0.0000       1.116674        30.3862 
 124   0.0000       1.128063        30.6962 
 125   0.0000       1.139620        31.0107 
 126   0.0000       1.165968        31.7276 
 127   0.0000       1.170726        31.8571 
 128   0.0000       1.198415        32.6105 
 129   0.0000       1.230987        33.4969 
 130   0.0000       1.257134        34.2083 
 131   0.0000       1.264281        34.4028 
 132   0.0000       1.290285        35.1104 
 133   0.0000       1.298429        35.3321 
 134   0.0000       1.318764        35.8854 
 135   0.0000       1.331541        36.2331 
 136   0.0000       1.346334        36.6356 
 137   0.0000       1.360976        37.0340 
 138   0.0000       1.385431        37.6995 
 139   0.0000       1.399013        38.0691 
 140   0.0000       1.411353        38.4049 
 141   0.0000       1.432462        38.9793 
 142   0.0000       1.457004        39.6471 
 143   0.0000       1.467593        39.9352 
 144   0.0000       1.504020        40.9265 
 145   0.0000       1.505200        40.9586 
 146   0.0000       1.523564        41.4583 
 147   0.0000       1.536146        41.8006 
 148   0.0000       1.558921        42.4204 
 149   0.0000       1.597340        43.4658 
 150   0.0000       1.601255        43.5724 
 151   0.0000       1.619757        44.0758 
 152   0.0000       1.630799        44.3763 
 153   0.0000       1.647218        44.8231 
 154   0.0000       1.651925        44.9512 
 155   0.0000       1.677024        45.6342 
 156   0.0000       1.692639        46.0590 
 157   0.0000       1.698303        46.2132 
 158   0.0000       1.708527        46.4914 
 159   0.0000       1.737548        47.2811 
 160   0.0000       1.749917        47.6177 
 161   0.0000       1.752661        47.6923 
 162   0.0000       1.773204        48.2513 
 163   0.0000       1.782211        48.4964 
 164   0.0000       1.798836        48.9488 
 165   0.0000       1.811002        49.2799 
 166   0.0000       1.817187        49.4482 
 167   0.0000       1.844121        50.1811 
 168   0.0000       1.867384        50.8141 
 169   0.0000       1.895264        51.5727 
 170   0.0000       1.901027        51.7296 
 171   0.0000       1.913932        52.0807 
 172   0.0000       1.942675        52.8629 
 173   0.0000       1.959637        53.3244 
 174   0.0000       1.972431        53.6726 
 175   0.0000       2.000290        54.4307 
 176   0.0000       2.003065        54.5062 
 177   0.0000       2.026298        55.1384 
 178   0.0000       2.041998        55.5656 
 179   0.0000       2.062291        56.1178 
 180   0.0000       2.071826        56.3772 
 181   0.0000       2.092684        56.9448 
 182   0.0000       2.115311        57.5605 
 183   0.0000       2.129346        57.9425 
 184   0.0000       2.145485        58.3816 
 185   0.0000       2.169662        59.0395 
 186   0.0000       2.191437        59.6320 
 187   0.0000       2.198479        59.8236 
 188   0.0000       2.215262        60.2804 
 189   0.0000       2.229085        60.6565 
 190   0.0000       2.253624        61.3242 
 191   0.0000       2.277273        61.9677 
 192   0.0000       2.302353        62.6502 
 193   0.0000       2.313145        62.9439 
 194   0.0000       2.321813        63.1797 
 195   0.0000       2.358089        64.1669 
 196   0.0000       2.379040        64.7370 
 197   0.0000       2.392554        65.1047 
 198   0.0000       2.417694        65.7888 
 199   0.0000       2.447143        66.5902 
 200   0.0000       2.457679        66.8768 
 201   0.0000       2.499745        68.0215 
 202   0.0000       2.506200        68.1972 
 203   0.0000       2.508319        68.2548 
 204   0.0000       2.525674        68.7271 
 205   0.0000       2.541843        69.1671 
 206   0.0000       2.551341        69.4255 
 207   0.0000       2.564111        69.7730 
 208   0.0000       2.580274        70.2128 
 209   0.0000       2.588718        70.4426 
 210   0.0000       2.631182        71.5981 
 211   0.0000       2.637640        71.7738 
 212   0.0000       2.649435        72.0948 
 213   0.0000       2.675407        72.8015 
 214   0.0000       2.681535        72.9683 
 215   0.0000       2.696456        73.3743 
 216   0.0000       2.701766        73.5188 
 217   0.0000       2.718521        73.9747 
 218   0.0000       2.724471        74.1366 
 219   0.0000       2.739811        74.5541 
 220   0.0000       2.752356        74.8954 
 221   0.0000       2.777218        75.5719 
 222   0.0000       2.799664        76.1827 
 223   0.0000       2.819799        76.7306 
 224   0.0000       2.836296        77.1795 
 225   0.0000       2.852330        77.6159 
 226   0.0000       2.871968        78.1502 
 227   0.0000       2.886542        78.5468 
 228   0.0000       2.911156        79.2166 
 229   0.0000       2.937357        79.9295 
 230   0.0000       2.942556        80.0710 
 231   0.0000       2.968106        80.7663 
 232   0.0000       2.990574        81.3777 
 233   0.0000       3.001223        81.6674 
 234   0.0000       3.020614        82.1951 
 235   0.0000       3.036425        82.6253 
 236   0.0000       3.055040        83.1319 
 237   0.0000       3.097507        84.2875 
 238   0.0000       3.115564        84.7788 
 239   0.0000       3.127817        85.1122 
 240   0.0000       3.150815        85.7380 
 241   0.0000       3.160085        85.9903 
 242   0.0000       3.176083        86.4256 
 243   0.0000       3.177866        86.4741 
 244   0.0000       3.194659        86.9311 
 245   0.0000       3.203549        87.1730 
 246   0.0000       3.221409        87.6590 
 247   0.0000       3.227700        87.8302 
 248   0.0000       3.244266        88.2810 
 249   0.0000       3.258442        88.6667 
 250   0.0000       3.270324        88.9900 
 251   0.0000       3.289011        89.4986 
 252   0.0000       3.297832        89.7386 
 253   0.0000       3.321001        90.3690 
 254   0.0000       3.325582        90.4937 
 255   0.0000       3.341388        90.9238 
 256   0.0000       3.352945        91.2383 
 257   0.0000       3.371517        91.7436 
 258   0.0000       3.390327        92.2555 
 259   0.0000       3.411796        92.8397 
 260   0.0000       3.420609        93.0795 
 261   0.0000       3.442407        93.6727 
 262   0.0000       3.455356        94.0250 
 263   0.0000       3.476445        94.5989 
 264   0.0000       3.492032        95.0230 
 265   0.0000       3.509505        95.4985 
 266   0.0000       3.520374        95.7942 
 267   0.0000       3.547109        96.5217 
 268   0.0000       3.570756        97.1652 
 269   0.0000       3.593665        97.7886 
 270   0.0000       3.604218        98.0757 
 271   0.0000       3.620430        98.5169 
 272   0.0000       3.654199        99.4358 
 273   0.0000       3.667330        99.7931 
 274   0.0000       3.671140        99.8968 
 275   0.0000       3.682769       100.2132 
 276   0.0000       3.708600       100.9161 
 277   0.0000       3.753261       102.1314 
 278   0.0000       3.778137       102.8083 
 279   0.0000       3.795437       103.2791 
 280   0.0000       3.814076       103.7863 
 281   0.0000       3.828990       104.1921 
 282   0.0000       3.851312       104.7995 
 283   0.0000       3.880787       105.6016 
 284   0.0000       3.931972       106.9944 
 285   0.0000       3.939204       107.1912 
 286   0.0000       3.968622       107.9917 
 287   0.0000       3.988101       108.5217 
 288   0.0000       3.998316       108.7997 
 289   0.0000       4.009619       109.1073 
 290   0.0000       4.036313       109.8336 
 291   0.0000       4.055502       110.3558 
 292   0.0000       4.070616       110.7671 
 293   0.0000       4.118245       112.0632 
 294   0.0000       4.156683       113.1091 
 295   0.0000       4.178499       113.7028 
 296   0.0000       4.200656       114.3057 
 297   0.0000       4.229941       115.1026 
 298   0.0000       4.255033       115.7853 
 299   0.0000       4.304983       117.1445 
 300   0.0000       4.334335       117.9432 
 301   0.0000       4.369110       118.8895 
 302   0.0000       4.418188       120.2250 
 303   0.0000       4.449649       121.0811 
 304   0.0000       4.458081       121.3105 
 305   0.0000       4.504119       122.5633 
 306   0.0000       4.533409       123.3603 
 307   0.0000       4.558165       124.0340 
 308   0.0000       4.580794       124.6497 
 309   0.0000       4.618597       125.6784 
 310   0.0000       4.666947       126.9941 
 311   0.0000       4.713333       128.2563 
 312   0.0000       4.716286       128.3367 
 313   0.0000       4.755245       129.3968 
 314   0.0000       4.774825       129.9296 
 315   0.0000       4.808947       130.8581 
 316   0.0000       4.842074       131.7595 
 317   0.0000       4.875590       132.6715 
 318   0.0000       4.882233       132.8523 
 319   0.0000       4.903499       133.4310 
 320   0.0000       4.938149       134.3739 
 321   0.0000       4.959948       134.9671 
 322   0.0000       4.995810       135.9429 
 323   0.0000       5.011214       136.3621 
 324   0.0000       5.058810       137.6572 
 325   0.0000       5.079880       138.2306 
 326   0.0000       5.089932       138.5041 
 327   0.0000       5.130845       139.6174 
 328   0.0000       5.191074       141.2563 
 329   0.0000       5.210702       141.7904 
 330   0.0000       5.237475       142.5189 
 331   0.0000       5.256370       143.0331 
 332   0.0000       5.307657       144.4287 
 333   0.0000       5.329462       145.0220 
 334   0.0000       5.344622       145.4346 
 335   0.0000       5.397522       146.8740 
 336   0.0000       5.427096       147.6788 
 337   0.0000       5.469955       148.8450 
 338   0.0000       5.552915       151.1025 
 339   0.0000       5.559296       151.2761 
 340   0.0000       5.621498       152.9687 
 341   0.0000       5.643645       153.5714 
 342   0.0000       5.697788       155.0447 
 343   0.0000       5.995326       163.1411 
 344   0.0000       6.031875       164.1357 
 345   0.0000       6.045655       164.5106 
 346   0.0000       6.176579       168.0733 
 347   0.0000       6.202505       168.7787 
 348   0.0000       6.257814       170.2838 
 349   0.0000       6.493310       176.6919 
 350   0.0000       6.582968       179.1317 
 351   0.0000       6.818133       185.5308 
 352   0.0000       6.860077       186.6722 
 353   0.0000       6.887012       187.4051 
 354   0.0000       6.915079       188.1689 
 355   0.0000       7.045300       191.7124 
 356   0.0000       7.124401       193.8648 
 357   0.0000       7.189008       195.6228 
 358   0.0000       7.399394       201.3477 
 359   0.0000       7.537526       205.1065 
 360   0.0000       7.860796       213.9031 
 361   0.0000       8.365021       227.6238 
 362   0.0000       8.444489       229.7862 
 363   0.0000       8.848493       240.7797 
 364   0.0000       8.985134       244.4979 
 365   0.0000       9.009675       245.1657 
 366   0.0000      22.322150       607.4166 
 367   0.0000      22.402561       609.6047 
 368   0.0000      22.496274       612.1547 
 369   0.0000      22.803412       620.5124 
 370   0.0000      23.163042       630.2984 
 371   0.0000      23.289062       633.7276 
 372   0.0000      31.861893       867.0062 
 373   0.0000      32.031425       871.6194 
 374   0.0000      43.709392      1189.3930 
 375   0.0000      57.119699      1554.3060 

                    ********************************
                    * MULLIKEN POPULATION ANALYSIS *
                    ********************************

-----------------------
MULLIKEN ATOMIC CHARGES
-----------------------
   0 C :   -0.244014
   1 C :   -0.388104
   2 C :   -0.266589
   3 C :   -0.287957
   4 H :    0.158045
   5 H :    0.141398
   6 C :    0.339898
   7 C :    0.114440
   8 N :   -0.355600
   9 N :   -0.406778
  10 H :    0.208579
  11 H :    0.234854
  12 H :    0.143400
  13 H :    0.248006
  14 H :    0.201345
  15 H :    0.090819
  16 H :    0.137736
  17 H :    0.155762
  18 H :    0.131705
  19 F :   -0.048045
  20 O :   -0.308903
Sum of atomic charges:   -0.0000000

--------------------------------
MULLIKEN REDUCED ORBITAL CHARGES
--------------------------------
  0 C s       :     3.258937  s :     3.258937
      pz      :     1.045336  p :     2.888752
      px      :     0.915903
      py      :     0.927512
      dz2     :     0.008209  d :     0.090805
      dxz     :     0.023784
      dyz     :     0.015512
      dx2y2   :     0.013142
      dxy     :     0.030158
      f0      :     0.000156  f :     0.005520
      f+1     :     0.000879
      f-1     :     0.000629
      f+2     :     0.001306
      f-2     :     0.000355
      f+3     :     0.001089
      f-3     :     0.001106
  1 C s       :     3.338880  s :     3.338880
      pz      :     0.874246  p :     2.982580
      px      :     0.867645
      py      :     1.240690
      dz2     :     0.005491  d :     0.060465
      dxz     :     0.015780
      dyz     :     0.017516
      dx2y2   :     0.006540
      dxy     :     0.015138
      f0      :     0.001301  f :     0.006178
      f+1     :     0.000781
      f-1     :     0.000693
      f+2     :     0.001117
      f-2     :     0.000843
      f+3     :     0.000731
      f-3     :     0.000712
  2 C s       :     3.297670  s :     3.297670
      pz      :     0.933616  p :     2.877954
      px      :     1.073070
      py      :     0.871268
      dz2     :     0.013300  d :     0.085647
      dxz     :     0.020401
      dyz     :     0.018041
      dx2y2   :     0.017249
      dxy     :     0.016655
      f0      :     0.000400  f :     0.005318
      f+1     :     0.000209
      f-1     :     0.001197
      f+2     :     0.001659
      f-2     :     0.000685
      f+3     :     0.000886
      f-3     :     0.000283
  3 C s       :     3.284620  s :     3.284620
      pz      :     0.965262  p :     2.929095
      px      :     0.942255
      py      :     1.021577
      dz2     :     0.012548  d :     0.069312
      dxz     :     0.025879
      dyz     :     0.005419
      dx2y2   :     0.017131
      dxy     :     0.008336
      f0      :     0.000538  f :     0.004930
      f+1     :     0.000579
      f-1     :     0.000500
      f+2     :     0.001700
      f-2     :     0.000910
      f+3     :     0.000365
      f-3     :     0.000339
  4 H s       :     0.821374  s :     0.821374
      pz      :     0.005557  p :     0.020581
      px      :     0.003726
      py      :     0.011298
  5 H s       :     0.838369  s :     0.838369
      pz      :     0.005960  p :     0.020233
      px      :     0.010267
      py      :     0.004007
  6 C s       :     3.099694  s :     3.099694
      pz      :     0.704001  p :     2.248661
      px      :     0.839808
      py      :     0.704851
      dz2     :     0.066828  d :     0.282293
      dxz     :     0.084145
      dyz     :     0.040346
      dx2y2   :     0.038358
      dxy     :     0.052616
      f0      :     0.005409  f :     0.029454
      f+1     :     0.007483
      f-1     :     0.002894
      f+2     :     0.004627
      f-2     :     0.003643
      f+3     :     0.002221
      f-3     :     0.003176
  7 C s       :     3.160156  s :     3.160156
      pz      :     0.817788  p :     2.467062
      px      :     0.752558
      py      :     0.896716
      dz2     :     0.050638  d :     0.240008
      dxz     :     0.052008
      dyz     :     0.055168
      dx2y2   :     0.054777
      dxy     :     0.027416
      f0      :     0.001991  f :     0.018334
      f+1     :     0.003080
      f-1     :     0.002093
      f+2     :     0.003365
      f-2     :     0.002370
      f+3     :     0.002977
      f-3     :     0.002459
  8 N s       :     3.430813  s :     3.430813
      pz      :     1.289255  p :     3.894529
      px      :     1.312795
      py      :     1.292479
      dz2     :     0.006847  d :     0.027632
      dxz     :     0.005635
      dyz     :     0.001302
      dx2y2   :     0.007504
      dxy     :     0.006344
      f0      :     0.000320  f :     0.002625
      f+1     :     0.000481
      f-1     :     0.000310
      f+2     :     0.000374
      f-2     :     0.000309
      f+3     :     0.000334
      f-3     :     0.000496
  9 N s       :     3.444275  s :     3.444275
      pz      :     1.097656  p :     3.931868
      px      :     1.280792
      py      :     1.553421
      dz2     :     0.010381  d :     0.027822
      dxz     :     0.001492
      dyz     :     0.003828
      dx2y2   :     0.007902
      dxy     :     0.004219
      f0      :     0.000598  f :     0.002812
      f+1     :     0.000181
      f-1     :     0.000393
      f+2     :     0.000285
      f-2     :     0.000309
      f+3     :     0.000477
      f-3     :     0.000569
 10 H s       :     0.753968  s :     0.753968
      pz      :     0.019449  p :     0.037453
      px      :     0.007274
      py      :     0.010730
 11 H s       :     0.727179  s :     0.727179
      pz      :     0.006838  p :     0.037966
      px      :     0.018792
      py      :     0.012336
 12 H s       :     0.832249  s :     0.832249
      pz      :     0.007037  p :     0.024350
      px      :     0.007826
      py      :     0.009488
 13 H s       :     0.706080  s :     0.706080
      pz      :     0.009605  p :     0.045913
      px      :     0.008665
      py      :     0.027643
 14 H s       :     0.761091  s :     0.761091
      pz      :     0.018734  p :     0.037564
      px      :     0.010477
      py      :     0.008353
 15 H s       :     0.889098  s :     0.889098
      pz      :     0.009293  p :     0.020083
      px      :     0.006779
      py      :     0.004011
 16 H s       :     0.842297  s :     0.842297
      pz      :     0.007659  p :     0.019967
      px      :     0.004832
      py      :     0.007476
 17 H s       :     0.824264  s :     0.824264
      pz      :     0.007967  p :     0.019975
      px      :     0.008173
      py      :     0.003835
 18 H s       :     0.848150  s :     0.848150
      pz      :     0.006118  p :     0.020145
      px      :     0.010037
      py      :     0.003989
 19 F s       :     3.871955  s :     3.871955
      pz      :     1.550317  p :     5.157368
      px      :     1.864264
      py      :     1.742787
      dz2     :     0.006300  d :     0.017845
      dxz     :     0.004161
      dyz     :     0.005067
      dx2y2   :     0.001194
      dxy     :     0.001123
      f0      :     0.000228  f :     0.000878
      f+1     :     0.000184
      f-1     :     0.000225
      f+2     :     0.000103
      f-2     :     0.000111
      f+3     :     0.000014
      f-3     :     0.000014
 20 O s       :     3.815050  s :     3.815050
      pz      :     1.639105  p :     4.465950
      px      :     1.363347
      py      :     1.463498
      dz2     :     0.003451  d :     0.026440
      dxz     :     0.007372
      dyz     :     0.002141
      dx2y2   :     0.005815
      dxy     :     0.007661
      f0      :     0.000143  f :     0.001462
      f+1     :     0.000351
      f-1     :     0.000016
      f+2     :     0.000277
      f-2     :     0.000190
      f+3     :     0.000178
      f-3     :     0.000308


                     *******************************
                     * LOEWDIN POPULATION ANALYSIS *
                     *******************************

----------------------
LOEWDIN ATOMIC CHARGES
----------------------
   0 C :   -0.294310
   1 C :   -0.272414
   2 C :   -0.258212
   3 C :   -0.235701
   4 H :    0.159000
   5 H :    0.145800
   6 C :   -0.520368
   7 C :   -0.493977
   8 N :   -0.006326
   9 N :   -0.017494
  10 H :    0.157729
  11 H :    0.173772
  12 H :    0.134519
  13 H :    0.164786
  14 H :    0.159334
  15 H :    0.134708
  16 H :    0.140346
  17 H :    0.151001
  18 H :    0.141848
  19 F :    0.370728
  20 O :    0.065232

-------------------------------
LOEWDIN REDUCED ORBITAL CHARGES
-------------------------------
  0 C s       :     2.752800  s :     2.752800
      pz      :     1.016320  p :     3.067257
      px      :     1.047654
      py      :     1.003283
      dz2     :     0.044786  d :     0.430493
      dxz     :     0.108844
      dyz     :     0.080649
      dx2y2   :     0.089470
      dxy     :     0.106744
      f0      :     0.003114  f :     0.043760
      f+1     :     0.006939
      f-1     :     0.005140
      f+2     :     0.006128
      f-2     :     0.004309
      f+3     :     0.009060
      f-3     :     0.009070
  1 C s       :     2.745703  s :     2.745703
      pz      :     1.057577  p :     3.102807
      px      :     0.997035
      py      :     1.048195
      dz2     :     0.078717  d :     0.376476
      dxz     :     0.117641
      dyz     :     0.046955
      dx2y2   :     0.053709
      dxy     :     0.079455
      f0      :     0.010418  f :     0.047427
      f+1     :     0.009297
      f-1     :     0.005584
      f+2     :     0.006266
      f-2     :     0.005775
      f+3     :     0.004992
      f-3     :     0.005095
  2 C s       :     2.770794  s :     2.770794
      pz      :     1.006532  p :     3.059597
      px      :     1.038125
      py      :     1.014940
      dz2     :     0.054817  d :     0.389926
      dxz     :     0.093438
      dyz     :     0.092835
      dx2y2   :     0.090992
      dxy     :     0.057844
      f0      :     0.005248  f :     0.037895
      f+1     :     0.002312
      f-1     :     0.008207
      f+2     :     0.005894
      f-2     :     0.004914
      f+3     :     0.007465
      f-3     :     0.003855
  3 C s       :     2.782015  s :     2.782015
      pz      :     1.027665  p :     3.072388
      px      :     1.007321
      py      :     1.037402
      dz2     :     0.055498  d :     0.345723
      dxz     :     0.110394
      dyz     :     0.060000
      dx2y2   :     0.085293
      dxy     :     0.034538
      f0      :     0.006956  f :     0.035574
      f+1     :     0.004638
      f-1     :     0.004562
      f+2     :     0.005720
      f-2     :     0.005987
      f+3     :     0.003828
      f-3     :     0.003883
  4 H s       :     0.782321  s :     0.782321
      pz      :     0.016751  p :     0.058680
      px      :     0.012361
      py      :     0.029568
  5 H s       :     0.795606  s :     0.795606
      pz      :     0.018044  p :     0.058595
      px      :     0.027397
      py      :     0.013154
  6 C s       :     2.780265  s :     2.780265
      pz      :     0.852888  p :     2.606177
      px      :     1.022345
      py      :     0.730943
      dz2     :     0.225710  d :     0.957043
      dxz     :     0.297610
      dyz     :     0.143384
      dx2y2   :     0.141315
      dxy     :     0.149024
      f0      :     0.032270  f :     0.176884
      f+1     :     0.044731
      f-1     :     0.022560
      f+2     :     0.025419
      f-2     :     0.021407
      f+3     :     0.014584
      f-3     :     0.015913
  7 C s       :     2.699406  s :     2.699406
      pz      :     1.025286  p :     2.828840
      px      :     0.924055
      py      :     0.879499
      dz2     :     0.177769  d :     0.850021
      dxz     :     0.188081
      dyz     :     0.176090
      dx2y2   :     0.181377
      dxy     :     0.126705
      f0      :     0.014100  f :     0.115710
      f+1     :     0.022739
      f-1     :     0.015094
      f+2     :     0.019591
      f-2     :     0.011270
      f+3     :     0.017766
      f-3     :     0.015151
  8 N s       :     2.977982  s :     2.977982
      pz      :     1.257416  p :     3.865603
      px      :     1.353069
      py      :     1.255118
      dz2     :     0.036465  d :     0.150226
      dxz     :     0.031335
      dyz     :     0.010758
      dx2y2   :     0.043964
      dxy     :     0.027704
      f0      :     0.001253  f :     0.012515
      f+1     :     0.001848
      f-1     :     0.001215
      f+2     :     0.002158
      f-2     :     0.001212
      f+3     :     0.002003
      f-3     :     0.002825
  9 N s       :     2.979938  s :     2.979938
      pz      :     1.143130  p :     3.877630
      px      :     1.261516
      py      :     1.472985
      dz2     :     0.055765  d :     0.148375
      dxz     :     0.020852
      dyz     :     0.023366
      dx2y2   :     0.028203
      dxy     :     0.020190
      f0      :     0.001517  f :     0.011551
      f+1     :     0.001084
      f-1     :     0.002092
      f+2     :     0.002147
      f-2     :     0.001808
      f+3     :     0.001209
      f-3     :     0.001694
 10 H s       :     0.734462  s :     0.734462
      pz      :     0.052416  p :     0.107809
      px      :     0.022359
      py      :     0.033034
 11 H s       :     0.719837  s :     0.719837
      pz      :     0.022072  p :     0.106391
      px      :     0.050908
      py      :     0.033411
 12 H s       :     0.790578  s :     0.790578
      pz      :     0.022134  p :     0.074904
      px      :     0.024156
      py      :     0.028614
 13 H s       :     0.704665  s :     0.704665
      pz      :     0.028504  p :     0.130549
      px      :     0.025033
      py      :     0.077011
 14 H s       :     0.733624  s :     0.733624
      pz      :     0.052995  p :     0.107042
      px      :     0.027907
      py      :     0.026140
 15 H s       :     0.808027  s :     0.808027
      pz      :     0.025818  p :     0.057265
      px      :     0.018656
      py      :     0.012791
 16 H s       :     0.802438  s :     0.802438
      pz      :     0.022323  p :     0.057216
      px      :     0.014574
      py      :     0.020319
 17 H s       :     0.791288  s :     0.791288
      pz      :     0.021500  p :     0.057711
      px      :     0.023823
      py      :     0.012388
 18 H s       :     0.800375  s :     0.800375
      pz      :     0.016808  p :     0.057777
      px      :     0.028313
      py      :     0.012656
 19 F s       :     3.520092  s :     3.520092
      pz      :     1.614134  p :     5.068202
      px      :     1.773935
      py      :     1.680133
      dz2     :     0.013438  d :     0.038808
      dxz     :     0.009806
      dyz     :     0.010881
      dx2y2   :     0.002246
      dxy     :     0.002438
      f0      :     0.000493  f :     0.002170
      f+1     :     0.000502
      f-1     :     0.000557
      f+2     :     0.000250
      f-2     :     0.000302
      f+3     :     0.000032
      f-3     :     0.000033
 20 O s       :     3.426204  s :     3.426204
      pz      :     1.567376  p :     4.443217
      px      :     1.494291
      py      :     1.381550
      dz2     :     0.008155  d :     0.060320
      dxz     :     0.018811
      dyz     :     0.003235
      dx2y2   :     0.019113
      dxy     :     0.011006
      f0      :     0.000598  f :     0.005026
      f+1     :     0.001029
      f-1     :     0.000027
      f+2     :     0.001282
      f-2     :     0.000436
      f+3     :     0.001023
      f-3     :     0.000632


                      *****************************
                      * MAYER POPULATION ANALYSIS *
                      *****************************

  NA   - Mulliken gross atomic population
  ZA   - Total nuclear charge
  QA   - Mulliken gross atomic charge
  VA   - Mayer's total valence
  BVA  - Mayer's bonded valence
  FA   - Mayer's free valence

  ATOM       NA         ZA         QA         VA         BVA        FA
  0 C      6.2440     6.0000    -0.2440     3.7015     3.7015     0.0000
  1 C      6.3881     6.0000    -0.3881     3.4958     3.4958    -0.0000
  2 C      6.2666     6.0000    -0.2666     3.7920     3.7920     0.0000
  3 C      6.2880     6.0000    -0.2880     3.7638     3.7638    -0.0000
  4 H      0.8420     1.0000     0.1580     0.9708     0.9708     0.0000
  5 H      0.8586     1.0000     0.1414     0.9618     0.9618     0.0000
  6 C      5.6601     6.0000     0.3399     4.2377     4.2377    -0.0000
  7 C      5.8856     6.0000     0.1144     3.9787     3.9787    -0.0000
  8 N      7.3556     7.0000    -0.3556     3.0197     3.0197    -0.0000
  9 N      7.4068     7.0000    -0.4068     3.0679     3.0679    -0.0000
 10 H      0.7914     1.0000     0.2086     0.9673     0.9673    -0.0000
 11 H      0.7651     1.0000     0.2349     0.9563     0.9563    -0.0000
 12 H      0.8566     1.0000     0.1434     1.0035     1.0035    -0.0000
 13 H      0.7520     1.0000     0.2480     0.9943     0.9943    -0.0000
 14 H      0.7987     1.0000     0.2013     0.9705     0.9705     0.0000
 15 H      0.9092     1.0000     0.0908     0.9852     0.9852    -0.0000
 16 H      0.8623     1.0000     0.1377     0.9485     0.9485     0.0000
 17 H      0.8442     1.0000     0.1558     0.9618     0.9618     0.0000
 18 H      0.8683     1.0000     0.1317     0.9648     0.9648    -0.0000
 19 F      9.0480     9.0000    -0.0480     1.2643     1.2643    -0.0000
 20 O      8.3089     8.0000    -0.3089     2.1359     2.1359     0.0000

  Mayer bond orders larger than 0.100000
B(  0-C ,  1-C ) :   0.8973 B(  0-C ,  2-C ) :   0.9153 B(  0-C , 15-H ) :   0.9771 
B(  0-C , 16-H ) :   0.9810 B(  1-C ,  7-C ) :   1.5622 B(  1-C , 12-H ) :   1.0539 
B(  2-C ,  3-C ) :   0.9207 B(  2-C , 17-H ) :   0.9743 B(  2-C , 18-H ) :   0.9835 
B(  3-C ,  4-H ) :   0.9620 B(  3-C ,  5-H ) :   0.9628 B(  3-C ,  6-C ) :   0.9631 
B(  6-C , 19-F ) :   1.2222 B(  6-C , 20-O ) :   1.9996 B(  7-C ,  8-N ) :   1.1995 
B(  7-C ,  9-N ) :   1.1588 B(  8-N , 13-H ) :   0.8703 B(  8-N , 14-H ) :   0.9336 
B(  9-N , 10-H ) :   0.9222 B(  9-N , 11-H ) :   0.9316 

-------
TIMINGS
-------

Total SCF time: 0 days 0 hours 0 min 31 sec 

Total time                  ....      31.690 sec
Sum of individual times     ....      31.099 sec  ( 98.1%)

Fock matrix formation       ....      28.496 sec  ( 89.9%)
  Split-RI-J                ....       2.219 sec  (  7.8% of F)
  Chain of spheres X        ....      22.999 sec  ( 80.7% of F)
  XC integration            ....       3.100 sec  ( 10.9% of F)
    Basis function eval.    ....       0.788 sec  ( 25.4% of XC)
    Density eval.           ....       0.787 sec  ( 25.4% of XC)
    XC-Functional eval.     ....       0.139 sec  (  4.5% of XC)
    XC-Potential eval.      ....       0.841 sec  ( 27.1% of XC)
Diagonalization             ....       0.351 sec  (  1.1%)
Density matrix formation    ....       0.028 sec  (  0.1%)
Population analysis         ....       0.035 sec  (  0.1%)
Initial guess               ....       0.269 sec  (  0.8%)
Orbital Transformation      ....       0.000 sec  (  0.0%)
Orbital Orthonormalization  ....       0.000 sec  (  0.0%)
DIIS solution               ....       0.184 sec  (  0.6%)
SOSCF solution              ....       0.226 sec  (  0.7%)
Grid generation             ....       1.510 sec  (  4.8%)

Maximum memory used throughout the entire SCF-calculation: 50.8 MB

-------------------------   --------------------
FINAL SINGLE POINT ENERGY      -518.811071523351
-------------------------   --------------------


                            ***************************************
                            *     ORCA property calculations      *
                            ***************************************

                                    ---------------------
                                    Active property flags
                                    ---------------------
   (+) Dipole Moment


------------------------------------------------------------------------------
                       ORCA ELECTRIC PROPERTIES CALCULATION
------------------------------------------------------------------------------

Dipole Moment Calculation                       ... on
Quadrupole Moment Calculation                   ... off
Polarizability Calculation                      ... off
GBWName                                         ... LC_BLYP_D1_wb97.gbw
Electron density file                           ... LC_BLYP_D1_wb97.scfp
The origin for moment calculation is the CENTER OF MASS  = ( 9.601419,  3.884988 -9.423337)

-------------
DIPOLE MOMENT
-------------
                                X             Y             Z
Electronic contribution:      3.38521      -3.66794      -6.51256
Nuclear contribution   :     -4.60158       3.22721       5.56005
                        -----------------------------------------
Total Dipole Moment    :     -1.21638      -0.44073      -0.95251
                        -----------------------------------------
Magnitude (a.u.)       :      1.60657
Magnitude (Debye)      :      4.08359



--------------------
Rotational spectrum 
--------------------
 
Rotational constants in cm-1:     0.061224     0.042534     0.033552 
Rotational constants in MHz :  1835.464095  1275.135177  1005.856966 

 Dipole components along the rotational axes: 
x,y,z [a.u.] :     0.453149     0.137960     1.535157 
x,y,z [Debye]:     1.151813     0.350666     3.902058 

 

Timings for individual modules:

Sum of individual times         ...       33.113 sec (=   0.552 min)
GTO integral calculation        ...        0.985 sec (=   0.016 min)   3.0 %
SCF iterations                  ...       32.128 sec (=   0.535 min)  97.0 %
                             ****ORCA TERMINATED NORMALLY****
TOTAL RUN TIME: 0 days 0 hours 0 minutes 33 seconds 739 msec
