
                                        *****************
                                        * O   R   C   A *
                                        *****************

                                            #,                                       
                                            ###                                      
                                            ####                                     
                                            #####                                    
                                            ######                                   
                                           ########,                                 
                                     ,,################,,,,,                         
                               ,,#################################,,                 
                          ,,##########################################,,             
                       ,#########################################, ''#####,          
                    ,#############################################,,   '####,        
                  ,##################################################,,,,####,       
                ,###########''''           ''''###############################       
              ,#####''   ,,,,##########,,,,          '''####'''          '####       
            ,##' ,,,,###########################,,,                        '##       
           ' ,,###''''                  '''############,,,                           
         ,,##''                                '''############,,,,        ,,,,,,###''
      ,#''                                            '''#######################'''  
     '                                                          ''''####''''         
             ,#######,   #######,   ,#######,      ##                                
            ,#'     '#,  ##    ##  ,#'     '#,    #''#        ######   ,####,        
            ##       ##  ##   ,#'  ##            #'  '#       #        #'  '#        
            ##       ##  #######   ##           ,######,      #####,   #    #        
            '#,     ,#'  ##    ##  '#,     ,#' ,#      #,         ##   #,  ,#        
             '#######'   ##     ##  '#######'  #'      '#     #####' # '####'        



                  #######################################################
                  #                        -***-                        #
                  #          Department of theory and spectroscopy      #
                  #    Directorship and core code : Frank Neese         #
                  #        Max Planck Institute fuer Kohlenforschung    #
                  #                Kaiser Wilhelm Platz 1               #
                  #                 D-45470 Muelheim/Ruhr               #
                  #                      Germany                        #
                  #                                                     #
                  #                  All rights reserved                #
                  #                        -***-                        #
                  #######################################################


                         Program Version 5.0.0 -  RELEASE  -
                                (SVN: $Rev: 19529$)
                ($Date: 2021-06-28 11:36:33 +0200 (Mo, 28 Jun 2021) $)


 With contributions from (in alphabetic order):
   Daniel Aravena         : Magnetic Suceptibility
   Michael Atanasov       : Ab Initio Ligand Field Theory (pilot matlab implementation)
   Alexander A. Auer      : GIAO ZORA, VPT2 properties, NMR spectrum
   Ute Becker             : Parallelization
   Giovanni Bistoni       : ED, misc. LED, open-shell LED, HFLD
   Martin Brehm           : Molecular dynamics
   Dmytro Bykov           : SCF Hessian
   Vijay G. Chilkuri      : MRCI spin determinant printing, contributions to CSF-ICE
   Dipayan Datta          : RHF DLPNO-CCSD density
   Achintya Kumar Dutta   : EOM-CC, STEOM-CC
   Dmitry Ganyushin       : Spin-Orbit,Spin-Spin,Magnetic field MRCI
   Miquel Garcia          : C-PCM Hessian, Gaussian charge scheme
   Yang Guo               : DLPNO-NEVPT2, F12-NEVPT2, CIM, IAO-localization
   Andreas Hansen         : Spin unrestricted coupled pair/coupled cluster methods
   Benjamin Helmich-Paris : MC-RPA, TRAH-SCF, COSX integrals
   Lee Huntington         : MR-EOM, pCC
   Robert Izsak           : Overlap fitted RIJCOSX, COSX-SCS-MP3, EOM
   Marcus Kettner         : VPT2
   Christian Kollmar      : KDIIS, OOCD, Brueckner-CCSD(T), CCSD density, CASPT2, CASPT2-K
   Simone Kossmann        : Meta GGA functionals, TD-DFT gradient, OOMP2, MP2 Hessian
   Martin Krupicka        : Initial AUTO-CI
   Lucas Lang             : DCDCAS
   Marvin Lechner         : AUTO-CI (C++ implementation), FIC-MRCC
   Dagmar Lenk            : GEPOL surface, SMD
   Dimitrios Liakos       : Extrapolation schemes; Compound Job, initial MDCI parallelization
   Dimitrios Manganas     : Further ROCIS development; embedding schemes
   Dimitrios Pantazis     : SARC Basis sets
   Anastasios Papadopoulos: AUTO-CI, single reference methods and gradients
   Taras Petrenko         : DFT Hessian,TD-DFT gradient, ASA, ECA, R-Raman, ABS, FL, XAS/XES, NRVS
   Peter Pinski           : DLPNO-MP2, DLPNO-MP2 Gradient
   Christoph Reimann      : Effective Core Potentials
   Marius Retegan         : Local ZFS, SOC
   Christoph Riplinger    : Optimizer, TS searches, QM/MM, DLPNO-CCSD(T), (RO)-DLPNO pert. Triples
   Tobias Risthaus        : Range-separated hybrids, TD-DFT gradient, RPA, STAB
   Michael Roemelt        : Original ROCIS implementation
   Masaaki Saitow         : Open-shell DLPNO-CCSD energy and density
   Barbara Sandhoefer     : DKH picture change effects
   Avijit Sen             : IP-ROCIS
   Kantharuban Sivalingam : CASSCF convergence, NEVPT2, FIC-MRCI
   Bernardo de Souza      : ESD, SOC TD-DFT
   Georgi Stoychev        : AutoAux, RI-MP2 NMR
   Willem Van den Heuvel  : Paramagnetic NMR
   Boris Wezisla          : Elementary symmetry handling
   Frank Wennmohs         : Technical directorship


 We gratefully acknowledge several colleagues who have allowed us to
 interface, adapt or use parts of their codes:
   Stefan Grimme, W. Hujo, H. Kruse, P. Pracht,  : VdW corrections, initial TS optimization,
                  C. Bannwarth, S. Ehlert          DFT functionals, gCP, sTDA/sTD-DF
   Ed Valeev, F. Pavosevic, A. Kumar             : LibInt (2-el integral package), F12 methods
   Garnet Chan, S. Sharma, J. Yang, R. Olivares  : DMRG
   Ulf Ekstrom                                   : XCFun DFT Library
   Mihaly Kallay                                 : mrcc  (arbitrary order and MRCC methods)
   Jiri Pittner, Ondrej Demel                    : Mk-CCSD
   Frank Weinhold                                : gennbo (NPA and NBO analysis)
   Christopher J. Cramer and Donald G. Truhlar   : smd solvation model
   Lars Goerigk                                  : TD-DFT with DH, B97 family of functionals
   V. Asgeirsson, H. Jonsson                     : NEB implementation
   FAccTs GmbH                                   : IRC, NEB, NEB-TS, DLPNO-Multilevel, CI-OPT
                                                   MM, QMMM, 2- and 3-layer-ONIOM, Crystal-QMMM,
                                                   LR-CPCM, SF, NACMEs, symmetry and pop. for TD-DFT,
                                                   nearIR, NL-DFT gradient (VV10), updates on ESD,
                                                   ML-optimized integration grids
   S Lehtola, MJT Oliveira, MAL Marques          : LibXC Library
   Liviu Ungur et al                             : ANISO software


 Your calculation uses the libint2 library for the computation of 2-el integrals
 For citations please refer to: http://libint.valeyev.net

 Your ORCA version has been built with support for libXC version: 5.1.0
 For citations please refer to: https://tddft.org/programs/libxc/

 This ORCA versions uses:
   CBLAS   interface :  Fast vector & matrix operations
   LAPACKE interface :  Fast linear algebra routines
   SCALAPACK package :  Parallel linear algebra routines
   Shared memory     :  Shared parallel matrices
   BLAS/LAPACK       :  OpenBLAS 0.3.15  USE64BITINT DYNAMIC_ARCH NO_AFFINITY Haswell SINGLE_THREADED
        Core in use  :  Haswell
   Copyright (c) 2011-2014, The OpenBLAS Project




***************************************
The coordinates will be read from file: D2.xyz
***************************************


XCFun DFT library Copyright 2009-2010 Ulf Ekstrom and contributors.
See http://admol.org/xcfun for more information.
This is free software; see the source code for copying conditions.
There is ABSOLUTELY NO WARRANTY; not even for MERCHANTABILITY or FITNESS FOR A PARTICULAR PURPOSE.
For details see the documentation.
Scientific users of this library should cite U. Ekstrom, L. Visscher, R. Bast, A. J. Thorvaldsen and K. Ruud;
J.Chem.Theor.Comp. 2010, DOI: 10.1021/ct100117s
XCFun Version 0.99 

================================================================================

----- Orbital basis set information -----
Your calculation utilizes the basis: def2-TZVPD
   F. Weigend and R. Ahlrichs, Phys. Chem. Chem. Phys. 7, 3297 (2005).
   D. Rappoport and F. Furche, J. Chem. Phys. 133 134105 (2010).

----- AuxJ basis set information -----
Your calculation utilizes the auxiliary basis: def2/J
   F. Weigend, Phys. Chem. Chem. Phys. 8, 1057 (2006).

================================================================================
                                        WARNINGS
                       Please study these warnings very carefully!
================================================================================


INFO   : the flag for use of the SHARK integral package has been found!

================================================================================
                                       INPUT FILE
================================================================================
NAME = 28Oct_TZVPD_LC_BLYP_D2_wb97.com
|  1> !LC-BLYP RIJCOSX def2-TZVPD def2/J TightSCF xyzfile                                                                                         
|  2> 
|  3> *xyzfile 0 1 D2.xyz
|  4> 
|  5> %MaxCore 64000
|  6> 
|  7> %pal nprocs 4                                                                                                                                                  
|  8> end  
|  9> 
| 10> %scf
| 11>   MaxIter 150
| 12> end
| 13> 
| 14> 
| 15>                          ****END OF INPUT****
================================================================================

                       ****************************
                       * Single Point Calculation *
                       ****************************

---------------------------------
CARTESIAN COORDINATES (ANGSTROEM)
---------------------------------
  C      3.905947    2.819855   -3.752920
  N      5.295615    3.131515   -4.105334
  C      3.803511    1.374716   -3.260807
  C      3.939934    0.320362   -4.367729
  H      4.105043   -0.655085   -3.907733
  H      3.022801    0.280517   -4.957117
  C      5.105846    0.668022   -5.305463
  C      5.708619    3.468885   -5.324190
  C      6.904696    3.038954   -5.717084
  N      4.981884    4.293570   -6.097457
  H      5.000546    4.101311   -7.087761
  H      4.084693    4.596899   -5.739652
  H      5.963358    2.526112   -3.642391
  H      7.047164    2.066861   -5.473604
  H      7.198145    3.307994   -6.645225
  H      3.282025    2.949187   -4.640259
  H      3.565254    3.514574   -2.982523
  H      4.574833    1.215157   -2.500443
  H      2.843514    1.260845   -2.751465
  F      4.809132    1.150187   -6.414361
  O      6.267366    0.564999   -4.819481

----------------------------
CARTESIAN COORDINATES (A.U.)
----------------------------
  NO LB      ZA    FRAG     MASS         X           Y           Z
   0 C     6.0000    0    12.011    7.381171    5.328753   -7.091990
   1 N     7.0000    0    14.007   10.007263    5.917705   -7.757957
   2 C     6.0000    0    12.011    7.187595    2.597836   -6.162033
   3 C     6.0000    0    12.011    7.445396    0.605397   -8.253812
   4 H     1.0000    0     1.008    7.757407   -1.237930   -7.384545
   5 H     1.0000    0     1.008    5.712267    0.530101   -9.367594
   6 C     6.0000    0    12.011    9.648650    1.262379  -10.025871
   7 C     6.0000    0    12.011   10.787727    6.555244  -10.061262
   8 C     6.0000    0    12.011   13.047984    5.742790  -10.803723
   9 N     7.0000    0    14.007    9.414397    8.113671  -11.522523
  10 H     1.0000    0     1.008    9.449663    7.750356  -13.393928
  11 H     1.0000    0     1.008    7.718951    8.686880  -10.846370
  12 H     1.0000    0     1.008   11.269114    4.773660   -6.883122
  13 H     1.0000    0     1.008   13.317210    3.905801  -10.343612
  14 H     1.0000    0     1.008   13.602523    6.251203  -12.557656
  15 H     1.0000    0     1.008    6.202128    5.573156   -8.768819
  16 H     1.0000    0     1.008    6.737353    6.641582   -5.636151
  17 H     1.0000    0     1.008    8.645182    2.296314   -4.725153
  18 H     1.0000    0     1.008    5.373463    2.382653   -5.199515
  19 F     9.0000    0    18.998    9.087942    2.173538  -12.121386
  20 O     8.0000    0    15.999   11.843606    1.067694   -9.107499

--------------------------------
INTERNAL COORDINATES (ANGSTROEM)
--------------------------------
 C      0   0   0     0.000000000000     0.00000000     0.00000000
 N      1   0   0     1.467141978358     0.00000000     0.00000000
 C      1   2   0     1.530063517905   109.95648736     0.00000000
 C      3   1   2     1.534779619809   114.26304417   287.08499053
 H      4   3   1     1.091033620284   108.87872696   165.98404284
 H      4   3   1     1.090916052212   109.87805700   285.05600920
 C      4   3   1     1.536086504513   110.62627363    44.77550193
 C      2   1   3     1.330414023142   124.60886225   117.82427755
 C      8   2   1     1.330340554584   117.88637737   216.04032271
 N      8   2   1     1.343945232509   120.98842718    40.55760065
 H     10   8   2     1.008967339645   115.96355102   215.01872382
 H     10   8   2     1.012415453042   117.36824842   356.14625482
 H      2   1   3     1.013266581664   112.80126275   337.30529129
 H      9   8   2     1.012197712497   111.46140142    44.03797432
 H      9   8   2     1.009921403817   116.52360736   180.07724841
 H      1   2   3     1.092418234860   108.70639248   240.06343406
 H      1   2   3     1.091887397005   109.26080405   121.65715898
 H      3   1   2     1.094783130927   108.29253614    49.74675079
 H      3   1   2     1.092698650205   107.88852219   164.36908434
 F      7   4   3     1.245061367518   116.77397318   256.40244270
 O      7   4   3     1.263298100477   116.39547193    69.30146499

---------------------------
INTERNAL COORDINATES (A.U.)
---------------------------
 C      0   0   0     0.000000000000     0.00000000     0.00000000
 N      1   0   0     2.772496538677     0.00000000     0.00000000
 C      1   2   0     2.891401016345   109.95648736     0.00000000
 C      3   1   2     2.900313157364   114.26304417   287.08499053
 H      4   3   1     2.061754745237   108.87872696   165.98404284
 H      4   3   1     2.061532573779   109.87805700   285.05600920
 C      4   3   1     2.902782811542   110.62627363    44.77550193
 C      2   1   3     2.514118148466   124.60886225   117.82427755
 C      8   2   1     2.513979313013   117.88637737   216.04032271
 N      8   2   1     2.539688428430   120.98842718    40.55760065
 H     10   8   2     1.906671950000   115.96355102   215.01872382
 H     10   8   2     1.913187940000   117.36824842   356.14625482
 H      2   1   3     1.914796340000   112.80126275   337.30529129
 H      9   8   2     1.912776470000   111.46140142    44.03797432
 H      9   8   2     1.908474870000   116.52360736   180.07724841
 H      1   2   3     2.064371287587   108.70639248   240.06343406
 H      1   2   3     2.063368149420   109.26080405   121.65715898
 H      3   1   2     2.068840293488   108.29253614    49.74675079
 H      3   1   2     2.064901195792   107.88852219   164.36908434
 F      7   4   3     2.352825004535   116.77397318   256.40244270
 O      7   4   3     2.387287435404   116.39547193    69.30146499

---------------------
BASIS SET INFORMATION
---------------------
There are 5 groups of distinct atoms

 Group   1 Type C   : 12s6p3d1f contracted to 6s3p3d1f pattern {621111/411/111/1}
 Group   2 Type N   : 12s6p3d1f contracted to 6s3p3d1f pattern {621111/411/111/1}
 Group   3 Type H   : 5s2p contracted to 3s2p pattern {311/11}
 Group   4 Type F   : 12s7p3d1f contracted to 6s4p3d1f pattern {621111/4111/111/1}
 Group   5 Type O   : 12s7p3d1f contracted to 6s4p3d1f pattern {621111/4111/111/1}

Atom   0C    basis set group =>   1
Atom   1N    basis set group =>   2
Atom   2C    basis set group =>   1
Atom   3C    basis set group =>   1
Atom   4H    basis set group =>   3
Atom   5H    basis set group =>   3
Atom   6C    basis set group =>   1
Atom   7C    basis set group =>   1
Atom   8C    basis set group =>   1
Atom   9N    basis set group =>   2
Atom  10H    basis set group =>   3
Atom  11H    basis set group =>   3
Atom  12H    basis set group =>   3
Atom  13H    basis set group =>   3
Atom  14H    basis set group =>   3
Atom  15H    basis set group =>   3
Atom  16H    basis set group =>   3
Atom  17H    basis set group =>   3
Atom  18H    basis set group =>   3
Atom  19F    basis set group =>   4
Atom  20O    basis set group =>   5
---------------------------------
AUXILIARY/J BASIS SET INFORMATION
---------------------------------
There are 5 groups of distinct atoms

 Group   1 Type C   : 12s5p4d2f1g contracted to 6s4p3d1f1g pattern {711111/2111/211/2/1}
 Group   2 Type N   : 12s5p4d2f1g contracted to 6s4p3d1f1g pattern {711111/2111/211/2/1}
 Group   3 Type H   : 5s2p1d contracted to 3s1p1d pattern {311/2/1}
 Group   4 Type F   : 12s5p4d2f1g contracted to 6s4p3d1f1g pattern {711111/2111/211/2/1}
 Group   5 Type O   : 12s5p4d2f1g contracted to 6s4p3d1f1g pattern {711111/2111/211/2/1}

Atom   0C    basis set group =>   1
Atom   1N    basis set group =>   2
Atom   2C    basis set group =>   1
Atom   3C    basis set group =>   1
Atom   4H    basis set group =>   3
Atom   5H    basis set group =>   3
Atom   6C    basis set group =>   1
Atom   7C    basis set group =>   1
Atom   8C    basis set group =>   1
Atom   9N    basis set group =>   2
Atom  10H    basis set group =>   3
Atom  11H    basis set group =>   3
Atom  12H    basis set group =>   3
Atom  13H    basis set group =>   3
Atom  14H    basis set group =>   3
Atom  15H    basis set group =>   3
Atom  16H    basis set group =>   3
Atom  17H    basis set group =>   3
Atom  18H    basis set group =>   3
Atom  19F    basis set group =>   4
Atom  20O    basis set group =>   5


           ************************************************************
           *        Program running with 4 parallel MPI-processes     *
           *              working on a common directory               *
           ************************************************************
------------------------------------------------------------------------------
                           ORCA GTO INTEGRAL CALCULATION
                           -- RI-GTO INTEGRALS CHOSEN --
------------------------------------------------------------------------------
------------------------------------------------------------------------------
                   ___                                                        
                  /   \      - P O W E R E D   B Y -                         
                 /     \                                                     
                 |  |  |   _    _      __       _____    __    __             
                 |  |  |  | |  | |    /  \     |  _  \  |  |  /  |          
                  \  \/   | |  | |   /    \    | | | |  |  | /  /          
                 / \  \   | |__| |  /  /\  \   | |_| |  |  |/  /          
                |  |  |   |  __  | /  /__\  \  |    /   |      \           
                |  |  |   | |  | | |   __   |  |    \   |  |\   \          
                \     /   | |  | | |  |  |  |  | |\  \  |  | \   \       
                 \___/    |_|  |_| |__|  |__|  |_| \__\ |__|  \__/        
                                                                              
                      - O R C A' S   B I G   F R I E N D -                    
                                      &                                       
                       - I N T E G R A L  F E E D E R -                       
                                                                              
 v1 FN, 2020, v2 2021                                                         
------------------------------------------------------------------------------


Reading SHARK input file 28Oct_TZVPD_LC_BLYP_D2_wb97.SHARKINP.tmp ... ok
----------------------
SHARK INTEGRAL PACKAGE
----------------------

Number of atoms                             ...     21
Number of basis functions                   ...    475
Number of shells                            ...    187
Maximum angular momentum                    ...      3
Integral batch strategy                     ... SHARK/LIBINT Hybrid
RI-J (if used) integral strategy            ... SPLIT-RIJ (Revised 2003 algorithm where possible)
Printlevel                                  ...      1
Contraction scheme used                     ... SEGMENTED contraction
Coulomb Range Separation                    ... NOT USED
Exchange Range Separation                   ... Long Range
   Mu parameter                             ...  0.330000
   Scaling (regular/separated)              ...  0.000000  1.000000
Finite Nucleus Model                        ... NOT USED
Auxiliary Coulomb fitting basis             ... AVAILABLE
   # of basis functions in Aux-J            ...    611
   # of shells in Aux-J                     ...    205
   Maximum angular momentum in Aux-J        ...      4
Auxiliary J/K fitting basis                 ... NOT available
Auxiliary Correlation fitting basis         ... NOT available
Auxiliary 'external' fitting basis          ... NOT available
Integral threshold                          ...     2.500000e-11
Primitive cut-off                           ...     2.500000e-12
Primitive pair pre-selection threshold      ...     2.500000e-12

Calculating pre-screening integrals         ... done (  0.1 sec) Dimension = 187
Organizing shell pair data                  ... done (  0.2 sec)
Shell pair information
Total number of shell pairs                 ...     17578
Shell pairs after pre-screening             ...     16562
Total number of primitive shell pairs       ...     45103
Primitive shell pairs kept                  ...     33334
          la=0 lb=0:   3947 shell pairs
          la=1 lb=0:   4754 shell pairs
          la=1 lb=1:   1450 shell pairs
          la=2 lb=0:   2642 shell pairs
          la=2 lb=1:   1592 shell pairs
          la=2 lb=2:    458 shell pairs
          la=3 lb=0:    846 shell pairs
          la=3 lb=1:    524 shell pairs
          la=3 lb=2:    295 shell pairs
          la=3 lb=3:     54 shell pairs

Calculating one electron integrals          ... done (  0.0 sec)
Calculating RI/J V-Matrix + Cholesky decomp.... done (  0.0 sec)
Calculating Nuclear repulsion               ... done (  0.0 sec) ENN=    597.428165268536 Eh

SHARK setup successfully completed in   0.5 seconds

Maximum memory used throughout the entire GTOINT-calculation: 25.9 MB


           ************************************************************
           *        Program running with 4 parallel MPI-processes     *
           *              working on a common directory               *
           ************************************************************
-------------------------------------------------------------------------------
                                 ORCA SCF
-------------------------------------------------------------------------------

------------
SCF SETTINGS
------------
Hamiltonian:
 Density Functional     Method          .... DFT(GTOs)
 Exchange Functional    Exchange        .... WB88
 Correlation Functional Correlation     .... LYP
 Gradients option       PostSCFGGA      .... off
   Density functional embedding theory  .... OFF
 Long-range corrected/Screened/Range-Separated Hybrid DFT is turned on
   Amount of maximum screened exact exchange              ....  1.000000
   Range separation parameter mu (erf(mu*r12)/r12)        ....  0.330000
 RI-approximation to the Coulomb term is turned on
   Number of AuxJ basis functions       .... 611
   RIJ-COSX (HFX calculated with COS-X)).... on


General Settings:
 Integral files         IntName         .... 28Oct_TZVPD_LC_BLYP_D2_wb97
 Hartree-Fock type      HFTyp           .... RHF
 Total Charge           Charge          ....    0
 Multiplicity           Mult            ....    1
 Number of Electrons    NEL             ....   78
 Basis Dimension        Dim             ....  475
 Nuclear Repulsion      ENuc            ....    597.4281652685 Eh

Convergence Acceleration:
 DIIS                   CNVDIIS         .... on
   Start iteration      DIISMaxIt       ....    12
   Startup error        DIISStart       ....  0.200000
   # of expansion vecs  DIISMaxEq       ....     5
   Bias factor          DIISBfac        ....   1.050
   Max. coefficient     DIISMaxC        ....  10.000
 Trust-Rad. Augm. Hess. CNVTRAH         .... auto
   Auto Start mean grad. ratio tolernc. ....  1.125000
   Auto Start start iteration           ....    20
   Auto Start num. interpolation iter.  ....    10
   Max. Number of Micro iterations      ....    16
   Max. Number of Macro iterations      .... Maxiter - #DIIS iter
   Number of Davidson start vectors     ....     2
   Converg. threshold I  (grad. norm)   ....   1.000e-05
   Converg. threshold II (energy diff.) ....   1.000e-08
   Grad. Scal. Fac. for Micro threshold ....   0.100
   Minimum threshold for Micro iter.    ....   0.010
   NR start threshold (gradient norm)   ....   0.001
   Initial trust radius                 ....   0.400
   Minimum AH scaling param. (alpha)    ....   1.000
   Maximum AH scaling param. (alpha)    .... 1000.000
   Orbital update algorithm             .... Taylor
   White noise on init. David. guess    .... on
   Maximum white noise                  ....   0.010
   Quad. conv. algorithm                .... NR
 SOSCF                  CNVSOSCF        .... on
   Start iteration      SOSCFMaxIt      ....   150
   Startup grad/error   SOSCFStart      ....  0.003300
 Level Shifting         CNVShift        .... on
   Level shift para.    LevelShift      ....    0.2500
   Turn off err/grad.   ShiftErr        ....    0.0010
 Zerner damping         CNVZerner       .... off
 Static damping         CNVDamp         .... on
   Fraction old density DampFac         ....    0.7000
   Max. Damping (<1)    DampMax         ....    0.9800
   Min. Damping (>=0)   DampMin         ....    0.0000
   Turn off err/grad.   DampErr         ....    0.1000
 Fernandez-Rico         CNVRico         .... off

SCF Procedure:
 Maximum # iterations   MaxIter         ....   150
 SCF integral mode      SCFMode         .... Direct
   Integral package                     .... SHARK and LIBINT hybrid scheme
 Reset frequency        DirectResetFreq ....    20
 Integral Threshold     Thresh          ....  2.500e-11 Eh
 Primitive CutOff       TCut            ....  2.500e-12 Eh

Convergence Tolerance:
 Convergence Check Mode ConvCheckMode   .... Total+1el-Energy
 Convergence forced     ConvForced      .... 0
 Energy Change          TolE            ....  1.000e-08 Eh
 1-El. energy change                    ....  1.000e-05 Eh
 Orbital Gradient       TolG            ....  1.000e-05
 Orbital Rotation angle TolX            ....  1.000e-05
 DIIS Error             TolErr          ....  5.000e-07


Diagonalization of the overlap matrix:
Smallest eigenvalue                        ... 2.794e-06
Time for diagonalization                   ...    0.060 sec
Threshold for overlap eigenvalues          ... 1.000e-08
Number of eigenvalues below threshold      ... 0
Time for construction of square roots      ...    0.040 sec
Total time needed                          ...    0.103 sec

Time for model grid setup =    0.245 sec

------------------------------
INITIAL GUESS: MODEL POTENTIAL
------------------------------
Loading Hartree-Fock densities                     ... done
Calculating cut-offs                               ... done
Initializing the effective Hamiltonian             ... done
Setting up the integral package (SHARK)            ... done
Starting the Coulomb interaction                   ... done (   0.3 sec)
Reading the grid                                   ... done
Mapping shells                                     ... done
Starting the XC term evaluation                    ... done (   0.5 sec)
  promolecular density results
     # of electrons  =     78.000329537
     EX              =    -65.274882312
     EC              =     -2.631596292
     EX+EC           =    -67.906478604
Transforming the Hamiltonian                       ... done (   0.0 sec)
Diagonalizing the Hamiltonian                      ... done (   0.0 sec)
Back transforming the eigenvectors                 ... done (   0.0 sec)
Now organizing SCF variables                       ... done
                      ------------------
                      INITIAL GUESS DONE (   1.2 sec)
                      ------------------
-------------------
DFT GRID GENERATION
-------------------

General Integration Accuracy     IntAcc      ... 4.388
Radial Grid Type                 RadialGrid  ... OptM3 with GC (2021)
Angular Grid (max. ang.)         AngularGrid ... 4 (Lebedev-302)
Angular grid pruning method      GridPruning ... 4 (adaptive)
Weight generation scheme         WeightScheme... Becke
Basis function cutoff            BFCut       ... 1.0000e-11
Integration weight cutoff        WCut        ... 1.0000e-14
Angular grids for H and He will be reduced by one unit
Partially contracted basis set               ... off
Rotationally invariant grid construction     ... off

Total number of grid points                  ...    99523
Total number of batches                      ...     1565
Average number of points per batch           ...       63
Average number of grid points per atom       ...     4739
Time for grid setup =    0.885 sec

--------------------
COSX GRID GENERATION
--------------------

GRIDX 1
-------
General Integration Accuracy     IntAcc      ... 3.816
Radial Grid Type                 RadialGrid  ... OptM3 with GC (2021)
Angular Grid (max. ang.)         AngularGrid ... 1 (Lebedev-50)
Angular grid pruning method      GridPruning ... 4 (adaptive)
Weight generation scheme         WeightScheme... Becke
Basis function cutoff            BFCut       ... 1.0000e-11
Integration weight cutoff        WCut        ... 1.0000e-14
Angular grids for H and He will be reduced by one unit
Partially contracted basis set               ... on
Rotationally invariant grid construction     ... off

Total number of grid points                  ...    12444
Total number of batches                      ...      205
Average number of points per batch           ...       60
Average number of grid points per atom       ...      593
UseSFitting                                  ... on

GRIDX 2
-------
General Integration Accuracy     IntAcc      ... 4.020
Radial Grid Type                 RadialGrid  ... OptM3 with GC (2021)
Angular Grid (max. ang.)         AngularGrid ... 2 (Lebedev-110)
Angular grid pruning method      GridPruning ... 4 (adaptive)
Weight generation scheme         WeightScheme... Becke
Basis function cutoff            BFCut       ... 1.0000e-11
Integration weight cutoff        WCut        ... 1.0000e-14
Angular grids for H and He will be reduced by one unit
Partially contracted basis set               ... on
Rotationally invariant grid construction     ... off

Total number of grid points                  ...    29578
Total number of batches                      ...      470
Average number of points per batch           ...       62
Average number of grid points per atom       ...     1408
UseSFitting                                  ... on

GRIDX 3
-------
General Integration Accuracy     IntAcc      ... 4.338
Radial Grid Type                 RadialGrid  ... OptM3 with GC (2021)
Angular Grid (max. ang.)         AngularGrid ... 3 (Lebedev-194)
Angular grid pruning method      GridPruning ... 4 (adaptive)
Weight generation scheme         WeightScheme... Becke
Basis function cutoff            BFCut       ... 1.0000e-11
Integration weight cutoff        WCut        ... 1.0000e-14
Angular grids for H and He will be reduced by one unit
Partially contracted basis set               ... on
Rotationally invariant grid construction     ... off

Total number of grid points                  ...    65724
Total number of batches                      ...     1038
Average number of points per batch           ...       63
Average number of grid points per atom       ...     3130
UseSFitting                                  ... on

Time for X-Grid setup             =    1.342 sec

--------------
SCF ITERATIONS
--------------
ITER       Energy         Delta-E        Max-DP      RMS-DP      [F,P]     Damp
               ***  Starting incremental Fock matrix formation  ***
  0   -518.3618185339   0.000000000000 0.53731448  0.00316912  0.2766287 0.7000
  1   -518.5434345860  -0.181616052115 0.56240775  0.00293556  0.1433542 0.7000
                               ***Turning on DIIS***
  2   -518.6261038933  -0.082669307279 1.05376052  0.00646048  0.0679076 0.0000
  3   -518.7639136539  -0.137809760599 0.45526331  0.00165305  0.0667542 0.0000
  4   -518.7858438583  -0.021930204438 0.07824465  0.00040069  0.0192321 0.0000
  5   -518.7867682049  -0.000924346643 0.03326098  0.00019035  0.0110691 0.0000
                      *** Initiating the SOSCF procedure ***
                           *** Shutting down DIIS ***
                      *** Re-Reading the Fockian *** 
                      *** Removing any level shift *** 
ITER      Energy       Delta-E        Grad      Rot      Max-DP    RMS-DP
  6   -518.78698638  -0.0002181730  0.000752  0.000752  0.009233  0.000084
               *** Restarting incremental Fock matrix formation ***
  7   -518.78701961  -0.0000332346  0.000461  0.001271  0.009849  0.000126
  8   -518.78702985  -0.0000102342  0.000223  0.001391  0.011879  0.000107
  9   -518.78703315  -0.0000033065  0.000171  0.000234  0.005932  0.000055
 10   -518.78703395  -0.0000007924  0.000056  0.000075  0.003451  0.000023
 11   -518.78703411  -0.0000001614  0.000038  0.000091  0.001385  0.000012
 12   -518.78703416  -0.0000000494  0.000008  0.000016  0.002451  0.000014
 13   -518.78703416   0.0000000005  0.000003  0.000005  0.000961  0.000007
                  ***Gradient check signals convergence***
              ***Rediagonalizing the Fockian in SOSCF/NRSCF***

               *****************************************************
               *                     SUCCESS                       *
               *           SCF CONVERGED AFTER  14 CYCLES          *
               *****************************************************


----------------
TOTAL SCF ENERGY
----------------

Total Energy       :         -518.78703417 Eh          -14116.91289 eV

Components:
Nuclear Repulsion  :          597.42816527 Eh           16256.84686 eV
Electronic Energy  :        -1116.21519944 Eh          -30373.75975 eV
One Electron Energy:        -1893.64788198 Eh          -51528.77854 eV
Two Electron Energy:          777.43268254 Eh           21155.01879 eV
Max COSX asymmetry :            0.00000278 Eh               0.00008 eV

Virial components:
Potential Energy   :        -1036.46589930 Eh          -28203.67097 eV
Kinetic Energy     :          517.67886514 Eh           14086.75808 eV
Virial Ratio       :            2.00214065


DFT components:
N(Alpha)           :       39.000093466215 electrons
N(Beta)            :       39.000093466215 electrons
N(Total)           :       78.000186932431 electrons
E(XC)              :      -55.213571924193 Eh       
DFET-embed. en.    :        0.000000000000 Eh       

---------------
SCF CONVERGENCE
---------------

  Last Energy change         ...   -1.1519e-08  Tolerance :   1.0000e-08
  Last MAX-Density change    ...    3.1636e-03  Tolerance :   1.0000e-07
  Last RMS-Density change    ...    1.3969e-05  Tolerance :   5.0000e-09
  Last Orbital Gradient      ...    1.0870e-06  Tolerance :   1.0000e-05
  Last Orbital Rotation      ...    3.3106e-06  Tolerance :   1.0000e-05

             **** THE GBW FILE WAS UPDATED (28Oct_TZVPD_LC_BLYP_D2_wb97.gbw) ****
             **** DENSITY 28Oct_TZVPD_LC_BLYP_D2_wb97.scfp WAS UPDATED ****
             **** ENERGY FILE WAS UPDATED (28Oct_TZVPD_LC_BLYP_D2_wb97.en.tmp) ****
             **** THE GBW FILE WAS UPDATED (28Oct_TZVPD_LC_BLYP_D2_wb97.gbw) ****
             **** DENSITY 28Oct_TZVPD_LC_BLYP_D2_wb97.scfp WAS UPDATED ****
----------------
ORBITAL ENERGIES
----------------

  NO   OCC          E(Eh)            E(eV) 
   0   2.0000     -24.535488      -667.6446 
   1   2.0000     -18.949089      -515.6309 
   2   2.0000     -14.172125      -385.6431 
   3   2.0000     -14.169836      -385.5808 
   4   2.0000     -10.260233      -279.1951 
   5   2.0000     -10.117815      -275.3197 
   6   2.0000     -10.110075      -275.1091 
   7   2.0000     -10.109782      -275.1012 
   8   2.0000     -10.100296      -274.8430 
   9   2.0000      -9.964213      -271.1400 
  10   2.0000      -1.414396       -38.4877 
  11   2.0000      -1.135072       -30.8869 
  12   2.0000      -1.073130       -29.2013 
  13   2.0000      -0.992816       -27.0159 
  14   2.0000      -0.930624       -25.3236 
  15   2.0000      -0.854251       -23.2454 
  16   2.0000      -0.809423       -22.0255 
  17   2.0000      -0.771839       -21.0028 
  18   2.0000      -0.731241       -19.8981 
  19   2.0000      -0.703368       -19.1396 
  20   2.0000      -0.674569       -18.3560 
  21   2.0000      -0.655569       -17.8389 
  22   2.0000      -0.642716       -17.4892 
  23   2.0000      -0.616912       -16.7870 
  24   2.0000      -0.603109       -16.4114 
  25   2.0000      -0.590085       -16.0570 
  26   2.0000      -0.572868       -15.5885 
  27   2.0000      -0.546931       -14.8827 
  28   2.0000      -0.522468       -14.2171 
  29   2.0000      -0.510532       -13.8923 
  30   2.0000      -0.499457       -13.5909 
  31   2.0000      -0.494519       -13.4566 
  32   2.0000      -0.469461       -12.7747 
  33   2.0000      -0.466897       -12.7049 
  34   2.0000      -0.448538       -12.2053 
  35   2.0000      -0.439187       -11.9509 
  36   2.0000      -0.383760       -10.4426 
  37   2.0000      -0.358090        -9.7441 
  38   2.0000      -0.261596        -7.1184 
  39   0.0000       0.032828         0.8933 
  40   0.0000       0.041630         1.1328 
  41   0.0000       0.057086         1.5534 
  42   0.0000       0.062351         1.6967 
  43   0.0000       0.071418         1.9434 
  44   0.0000       0.085496         2.3265 
  45   0.0000       0.092425         2.5150 
  46   0.0000       0.101642         2.7658 
  47   0.0000       0.103772         2.8238 
  48   0.0000       0.106012         2.8847 
  49   0.0000       0.129394         3.5210 
  50   0.0000       0.131966         3.5910 
  51   0.0000       0.140220         3.8156 
  52   0.0000       0.144556         3.9336 
  53   0.0000       0.146864         3.9964 
  54   0.0000       0.153547         4.1782 
  55   0.0000       0.156949         4.2708 
  56   0.0000       0.170168         4.6305 
  57   0.0000       0.182787         4.9739 
  58   0.0000       0.187302         5.0968 
  59   0.0000       0.196100         5.3361 
  60   0.0000       0.201406         5.4805 
  61   0.0000       0.205357         5.5881 
  62   0.0000       0.211017         5.7421 
  63   0.0000       0.215311         5.8589 
  64   0.0000       0.225030         6.1234 
  65   0.0000       0.228522         6.2184 
  66   0.0000       0.239700         6.5226 
  67   0.0000       0.251546         6.8449 
  68   0.0000       0.254647         6.9293 
  69   0.0000       0.255841         6.9618 
  70   0.0000       0.261576         7.1178 
  71   0.0000       0.267178         7.2703 
  72   0.0000       0.272116         7.4047 
  73   0.0000       0.274569         7.4714 
  74   0.0000       0.283412         7.7120 
  75   0.0000       0.285574         7.7709 
  76   0.0000       0.292539         7.9604 
  77   0.0000       0.300341         8.1727 
  78   0.0000       0.305766         8.3203 
  79   0.0000       0.307277         8.3614 
  80   0.0000       0.313026         8.5179 
  81   0.0000       0.318840         8.6761 
  82   0.0000       0.322569         8.7775 
  83   0.0000       0.328744         8.9456 
  84   0.0000       0.335316         9.1244 
  85   0.0000       0.336309         9.1514 
  86   0.0000       0.339294         9.2326 
  87   0.0000       0.342548         9.3212 
  88   0.0000       0.349551         9.5118 
  89   0.0000       0.358412         9.7529 
  90   0.0000       0.362492         9.8639 
  91   0.0000       0.367470         9.9994 
  92   0.0000       0.369818        10.0633 
  93   0.0000       0.374017        10.1775 
  94   0.0000       0.382348        10.4042 
  95   0.0000       0.388560        10.5733 
  96   0.0000       0.388885        10.5821 
  97   0.0000       0.391115        10.6428 
  98   0.0000       0.398962        10.8563 
  99   0.0000       0.401534        10.9263 
 100   0.0000       0.403827        10.9887 
 101   0.0000       0.413600        11.2546 
 102   0.0000       0.419679        11.4200 
 103   0.0000       0.422208        11.4889 
 104   0.0000       0.428873        11.6702 
 105   0.0000       0.433842        11.8055 
 106   0.0000       0.441426        12.0118 
 107   0.0000       0.446651        12.1540 
 108   0.0000       0.451161        12.2767 
 109   0.0000       0.454393        12.3647 
 110   0.0000       0.461859        12.5678 
 111   0.0000       0.469051        12.7635 
 112   0.0000       0.477866        13.0034 
 113   0.0000       0.479171        13.0389 
 114   0.0000       0.481344        13.0980 
 115   0.0000       0.488781        13.3004 
 116   0.0000       0.493068        13.4171 
 117   0.0000       0.494216        13.4483 
 118   0.0000       0.500795        13.6273 
 119   0.0000       0.510331        13.8868 
 120   0.0000       0.514143        13.9905 
 121   0.0000       0.515499        14.0274 
 122   0.0000       0.520598        14.1662 
 123   0.0000       0.524465        14.2714 
 124   0.0000       0.532539        14.4911 
 125   0.0000       0.539916        14.6919 
 126   0.0000       0.542785        14.7699 
 127   0.0000       0.552308        15.0291 
 128   0.0000       0.556919        15.1545 
 129   0.0000       0.564302        15.3554 
 130   0.0000       0.565902        15.3990 
 131   0.0000       0.574599        15.6356 
 132   0.0000       0.577898        15.7254 
 133   0.0000       0.579593        15.7715 
 134   0.0000       0.592687        16.1278 
 135   0.0000       0.596406        16.2290 
 136   0.0000       0.602866        16.4048 
 137   0.0000       0.606214        16.4959 
 138   0.0000       0.611787        16.6476 
 139   0.0000       0.617719        16.8090 
 140   0.0000       0.622775        16.9466 
 141   0.0000       0.630177        17.1480 
 142   0.0000       0.634793        17.2736 
 143   0.0000       0.640192        17.4205 
 144   0.0000       0.651749        17.7350 
 145   0.0000       0.656519        17.8648 
 146   0.0000       0.665686        18.1142 
 147   0.0000       0.683931        18.6107 
 148   0.0000       0.684346        18.6220 
 149   0.0000       0.691763        18.8238 
 150   0.0000       0.699984        19.0475 
 151   0.0000       0.702688        19.1211 
 152   0.0000       0.710352        19.3297 
 153   0.0000       0.718811        19.5598 
 154   0.0000       0.722467        19.6593 
 155   0.0000       0.727819        19.8050 
 156   0.0000       0.739214        20.1150 
 157   0.0000       0.744799        20.2670 
 158   0.0000       0.752971        20.4894 
 159   0.0000       0.755183        20.5496 
 160   0.0000       0.759593        20.6696 
 161   0.0000       0.767211        20.8769 
 162   0.0000       0.773536        21.0490 
 163   0.0000       0.780845        21.2479 
 164   0.0000       0.786984        21.4149 
 165   0.0000       0.792711        21.5708 
 166   0.0000       0.800943        21.7948 
 167   0.0000       0.808477        21.9998 
 168   0.0000       0.810151        22.0453 
 169   0.0000       0.819603        22.3025 
 170   0.0000       0.823221        22.4010 
 171   0.0000       0.825250        22.4562 
 172   0.0000       0.835788        22.7430 
 173   0.0000       0.845840        23.0165 
 174   0.0000       0.852165        23.1886 
 175   0.0000       0.859677        23.3930 
 176   0.0000       0.870580        23.6897 
 177   0.0000       0.881822        23.9956 
 178   0.0000       0.886474        24.1222 
 179   0.0000       0.897715        24.4281 
 180   0.0000       0.902121        24.5480 
 181   0.0000       0.906307        24.6619 
 182   0.0000       0.919263        25.0144 
 183   0.0000       0.926580        25.2135 
 184   0.0000       0.938683        25.5429 
 185   0.0000       0.953066        25.9343 
 186   0.0000       0.957649        26.0590 
 187   0.0000       0.961730        26.1700 
 188   0.0000       0.972452        26.4618 
 189   0.0000       0.979028        26.6407 
 190   0.0000       0.987778        26.8788 
 191   0.0000       0.997077        27.1318 
 192   0.0000       1.006529        27.3890 
 193   0.0000       1.014021        27.5929 
 194   0.0000       1.030177        28.0326 
 195   0.0000       1.041220        28.3330 
 196   0.0000       1.051955        28.6252 
 197   0.0000       1.056401        28.7461 
 198   0.0000       1.072544        29.1854 
 199   0.0000       1.074295        29.2331 
 200   0.0000       1.091082        29.6899 
 201   0.0000       1.104374        30.0516 
 202   0.0000       1.128946        30.7202 
 203   0.0000       1.139158        30.9981 
 204   0.0000       1.157399        31.4944 
 205   0.0000       1.158374        31.5210 
 206   0.0000       1.164356        31.6837 
 207   0.0000       1.189843        32.3773 
 208   0.0000       1.207138        32.8479 
 209   0.0000       1.216985        33.1158 
 210   0.0000       1.235867        33.6297 
 211   0.0000       1.244543        33.8657 
 212   0.0000       1.258332        34.2410 
 213   0.0000       1.280926        34.8558 
 214   0.0000       1.291571        35.1454 
 215   0.0000       1.295797        35.2604 
 216   0.0000       1.313755        35.7491 
 217   0.0000       1.334075        36.3020 
 218   0.0000       1.337998        36.4088 
 219   0.0000       1.350661        36.7534 
 220   0.0000       1.362282        37.0696 
 221   0.0000       1.386365        37.7249 
 222   0.0000       1.397927        38.0395 
 223   0.0000       1.406099        38.2619 
 224   0.0000       1.414333        38.4860 
 225   0.0000       1.425680        38.7947 
 226   0.0000       1.439311        39.1656 
 227   0.0000       1.453637        39.5555 
 228   0.0000       1.455577        39.6083 
 229   0.0000       1.490740        40.5651 
 230   0.0000       1.503468        40.9114 
 231   0.0000       1.505139        40.9569 
 232   0.0000       1.522406        41.4268 
 233   0.0000       1.530278        41.6410 
 234   0.0000       1.552910        42.2568 
 235   0.0000       1.561681        42.4955 
 236   0.0000       1.579414        42.9780 
 237   0.0000       1.587026        43.1852 
 238   0.0000       1.620806        44.1044 
 239   0.0000       1.631063        44.3835 
 240   0.0000       1.661610        45.2147 
 241   0.0000       1.699531        46.2466 
 242   0.0000       1.709067        46.5061 
 243   0.0000       1.739737        47.3406 
 244   0.0000       1.762865        47.9700 
 245   0.0000       1.776757        48.3480 
 246   0.0000       1.827033        49.7161 
 247   0.0000       1.841077        50.0982 
 248   0.0000       1.869141        50.8619 
 249   0.0000       1.891457        51.4692 
 250   0.0000       1.906309        51.8733 
 251   0.0000       1.917904        52.1888 
 252   0.0000       1.921224        52.2792 
 253   0.0000       1.928205        52.4691 
 254   0.0000       1.947585        52.9965 
 255   0.0000       1.954976        53.1976 
 256   0.0000       1.958738        53.3000 
 257   0.0000       1.967239        53.5313 
 258   0.0000       1.987074        54.0710 
 259   0.0000       2.000124        54.4261 
 260   0.0000       2.011524        54.7364 
 261   0.0000       2.016245        54.8648 
 262   0.0000       2.031020        55.2669 
 263   0.0000       2.035977        55.4018 
 264   0.0000       2.062930        56.1352 
 265   0.0000       2.070268        56.3349 
 266   0.0000       2.075022        56.4642 
 267   0.0000       2.101799        57.1929 
 268   0.0000       2.116394        57.5900 
 269   0.0000       2.123189        57.7749 
 270   0.0000       2.135083        58.0986 
 271   0.0000       2.139133        58.2088 
 272   0.0000       2.162550        58.8460 
 273   0.0000       2.197043        59.7846 
 274   0.0000       2.207617        60.0723 
 275   0.0000       2.222898        60.4881 
 276   0.0000       2.249213        61.2042 
 277   0.0000       2.264138        61.6103 
 278   0.0000       2.278804        62.0094 
 279   0.0000       2.278882        62.0115 
 280   0.0000       2.295025        62.4508 
 281   0.0000       2.318799        63.0977 
 282   0.0000       2.340142        63.6785 
 283   0.0000       2.352705        64.0204 
 284   0.0000       2.374869        64.6235 
 285   0.0000       2.389112        65.0110 
 286   0.0000       2.427830        66.0646 
 287   0.0000       2.442244        66.4568 
 288   0.0000       2.449034        66.6416 
 289   0.0000       2.471457        67.2518 
 290   0.0000       2.479534        67.4715 
 291   0.0000       2.488063        67.7036 
 292   0.0000       2.523320        68.6630 
 293   0.0000       2.531990        68.8990 
 294   0.0000       2.549102        69.3646 
 295   0.0000       2.560073        69.6631 
 296   0.0000       2.592734        70.5519 
 297   0.0000       2.601133        70.7804 
 298   0.0000       2.620923        71.3189 
 299   0.0000       2.630812        71.5880 
 300   0.0000       2.663952        72.4898 
 301   0.0000       2.676490        72.8310 
 302   0.0000       2.690589        73.2147 
 303   0.0000       2.702917        73.5501 
 304   0.0000       2.713334        73.8336 
 305   0.0000       2.731120        74.3176 
 306   0.0000       2.741208        74.5921 
 307   0.0000       2.757595        75.0380 
 308   0.0000       2.761958        75.1567 
 309   0.0000       2.781988        75.7017 
 310   0.0000       2.806065        76.3569 
 311   0.0000       2.817629        76.6716 
 312   0.0000       2.830082        77.0104 
 313   0.0000       2.851689        77.5984 
 314   0.0000       2.862234        77.8853 
 315   0.0000       2.871024        78.1245 
 316   0.0000       2.877798        78.3089 
 317   0.0000       2.898346        78.8680 
 318   0.0000       2.903607        79.0112 
 319   0.0000       2.928824        79.6974 
 320   0.0000       2.954784        80.4038 
 321   0.0000       2.978911        81.0603 
 322   0.0000       2.990647        81.3797 
 323   0.0000       2.995981        81.5248 
 324   0.0000       2.997622        81.5694 
 325   0.0000       3.043693        82.8231 
 326   0.0000       3.054434        83.1154 
 327   0.0000       3.084042        83.9211 
 328   0.0000       3.098976        84.3274 
 329   0.0000       3.105777        84.5125 
 330   0.0000       3.111018        84.6551 
 331   0.0000       3.132270        85.2334 
 332   0.0000       3.154158        85.8290 
 333   0.0000       3.169790        86.2544 
 334   0.0000       3.216121        87.5151 
 335   0.0000       3.233522        87.9886 
 336   0.0000       3.255462        88.5856 
 337   0.0000       3.268978        88.9534 
 338   0.0000       3.271844        89.0314 
 339   0.0000       3.293795        89.6287 
 340   0.0000       3.302925        89.8772 
 341   0.0000       3.317854        90.2834 
 342   0.0000       3.330814        90.6361 
 343   0.0000       3.341356        90.9229 
 344   0.0000       3.352136        91.2163 
 345   0.0000       3.371859        91.7530 
 346   0.0000       3.378072        91.9220 
 347   0.0000       3.392921        92.3261 
 348   0.0000       3.404715        92.6470 
 349   0.0000       3.410190        92.7960 
 350   0.0000       3.423077        93.1467 
 351   0.0000       3.433904        93.4413 
 352   0.0000       3.450184        93.8843 
 353   0.0000       3.471446        94.4628 
 354   0.0000       3.483078        94.7794 
 355   0.0000       3.489950        94.9664 
 356   0.0000       3.500944        95.2655 
 357   0.0000       3.525347        95.9296 
 358   0.0000       3.536125        96.2228 
 359   0.0000       3.556564        96.7790 
 360   0.0000       3.573099        97.2290 
 361   0.0000       3.579918        97.4145 
 362   0.0000       3.602387        98.0259 
 363   0.0000       3.629079        98.7523 
 364   0.0000       3.641300        99.0848 
 365   0.0000       3.643649        99.1487 
 366   0.0000       3.665433        99.7415 
 367   0.0000       3.669606        99.8551 
 368   0.0000       3.695483       100.5592 
 369   0.0000       3.713203       101.0414 
 370   0.0000       3.747146       101.9650 
 371   0.0000       3.757193       102.2384 
 372   0.0000       3.773734       102.6885 
 373   0.0000       3.775318       102.7316 
 374   0.0000       3.804637       103.5294 
 375   0.0000       3.816054       103.8401 
 376   0.0000       3.842860       104.5695 
 377   0.0000       3.860102       105.0387 
 378   0.0000       3.872084       105.3648 
 379   0.0000       3.928956       106.9123 
 380   0.0000       3.943293       107.3025 
 381   0.0000       3.969836       108.0247 
 382   0.0000       3.998029       108.7919 
 383   0.0000       4.015853       109.2769 
 384   0.0000       4.049240       110.1854 
 385   0.0000       4.052960       110.2867 
 386   0.0000       4.083667       111.1222 
 387   0.0000       4.108820       111.8067 
 388   0.0000       4.125462       112.2595 
 389   0.0000       4.145809       112.8132 
 390   0.0000       4.155883       113.0873 
 391   0.0000       4.172640       113.5433 
 392   0.0000       4.187612       113.9507 
 393   0.0000       4.218759       114.7983 
 394   0.0000       4.240802       115.3981 
 395   0.0000       4.291601       116.7804 
 396   0.0000       4.327020       117.7442 
 397   0.0000       4.357899       118.5845 
 398   0.0000       4.366208       118.8106 
 399   0.0000       4.409981       120.0017 
 400   0.0000       4.447816       121.0312 
 401   0.0000       4.505207       122.5929 
 402   0.0000       4.530396       123.2783 
 403   0.0000       4.553781       123.9147 
 404   0.0000       4.587862       124.8421 
 405   0.0000       4.616457       125.6202 
 406   0.0000       4.623930       125.8235 
 407   0.0000       4.658517       126.7647 
 408   0.0000       4.713171       128.2519 
 409   0.0000       4.717954       128.3821 
 410   0.0000       4.784370       130.1893 
 411   0.0000       4.821631       131.2033 
 412   0.0000       4.852640       132.0471 
 413   0.0000       4.899085       133.3109 
 414   0.0000       4.914297       133.7248 
 415   0.0000       4.957411       134.8980 
 416   0.0000       4.965161       135.1089 
 417   0.0000       5.023259       136.6898 
 418   0.0000       5.035622       137.0262 
 419   0.0000       5.066910       137.8776 
 420   0.0000       5.092982       138.5871 
 421   0.0000       5.117313       139.2492 
 422   0.0000       5.154268       140.2548 
 423   0.0000       5.170323       140.6916 
 424   0.0000       5.233983       142.4239 
 425   0.0000       5.266052       143.2966 
 426   0.0000       5.292629       144.0198 
 427   0.0000       5.348356       145.5362 
 428   0.0000       5.363637       145.9520 
 429   0.0000       5.387064       146.5895 
 430   0.0000       5.441285       148.0649 
 431   0.0000       5.455152       148.4422 
 432   0.0000       5.524555       150.3308 
 433   0.0000       5.570541       151.5821 
 434   0.0000       5.577947       151.7837 
 435   0.0000       5.619519       152.9149 
 436   0.0000       5.626883       153.1153 
 437   0.0000       5.685055       154.6982 
 438   0.0000       5.689937       154.8311 
 439   0.0000       5.810763       158.1189 
 440   0.0000       5.854274       159.3029 
 441   0.0000       5.958763       162.1462 
 442   0.0000       6.066377       165.0745 
 443   0.0000       6.075205       165.3147 
 444   0.0000       6.174311       168.0116 
 445   0.0000       6.274563       170.7395 
 446   0.0000       6.344160       172.6334 
 447   0.0000       6.359734       173.0572 
 448   0.0000       6.681866       181.8228 
 449   0.0000       6.719460       182.8458 
 450   0.0000       6.862300       186.7327 
 451   0.0000       6.894822       187.6177 
 452   0.0000       6.963617       189.4897 
 453   0.0000       6.977185       189.8589 
 454   0.0000       7.151719       194.6082 
 455   0.0000       7.202330       195.9854 
 456   0.0000       7.303031       198.7256 
 457   0.0000       7.482687       203.6143 
 458   0.0000       7.630485       207.6361 
 459   0.0000       7.886903       214.6136 
 460   0.0000       8.584903       233.6071 
 461   0.0000       8.632987       234.9155 
 462   0.0000       8.930705       243.0168 
 463   0.0000       9.077482       247.0108 
 464   0.0000       9.280629       252.5388 
 465   0.0000      22.575551       614.3120 
 466   0.0000      22.615576       615.4011 
 467   0.0000      22.676120       617.0486 
 468   0.0000      22.830863       621.2594 
 469   0.0000      23.388095       636.4224 
 470   0.0000      23.485720       639.0789 
 471   0.0000      32.312768       879.2751 
 472   0.0000      32.757122       891.3666 
 473   0.0000      44.214772      1203.1451 
 474   0.0000      57.575814      1566.7176 

                    ********************************
                    * MULLIKEN POPULATION ANALYSIS *
                    ********************************

-----------------------
MULLIKEN ATOMIC CHARGES
-----------------------
   0 C :   -0.784411
   1 N :   -0.330496
   2 C :   -0.848920
   3 C :   -0.638421
   4 H :    0.376604
   5 H :    0.395105
   6 C :    0.670551
   7 C :    0.128261
   8 C :   -0.875933
   9 N :   -0.512242
  10 H :    0.201909
  11 H :    0.239944
  12 H :    0.265653
  13 H :    0.513608
  14 H :    0.319821
  15 H :    0.402403
  16 H :    0.375085
  17 H :    0.380230
  18 H :    0.418183
  19 F :   -0.211037
  20 O :   -0.485897
Sum of atomic charges:   -0.0000000

--------------------------------
MULLIKEN REDUCED ORBITAL CHARGES
--------------------------------
  0 C s       :     3.575573  s :     3.575573
      pz      :     1.341168  p :     3.171497
      px      :     0.861458
      py      :     0.968871
      dz2     :    -0.012134  d :     0.029451
      dxz     :     0.023140
      dyz     :     0.015633
      dx2y2   :    -0.000788
      dxy     :     0.003600
      f0      :     0.000418  f :     0.007889
      f+1     :     0.001101
      f-1     :     0.000735
      f+2     :     0.001711
      f-2     :     0.000422
      f+3     :     0.001716
      f-3     :     0.001785
  1 N s       :     3.605049  s :     3.605049
      pz      :     1.146978  p :     3.703263
      px      :     1.027392
      py      :     1.528892
      dz2     :     0.000744  d :     0.018739
      dxz     :     0.014382
      dyz     :     0.002742
      dx2y2   :    -0.002338
      dxy     :     0.003208
      f0      :     0.000702  f :     0.003445
      f+1     :     0.000429
      f-1     :     0.000507
      f+2     :     0.000477
      f-2     :     0.000520
      f+3     :     0.000421
      f-3     :     0.000389
  2 C s       :     3.500961  s :     3.500961
      pz      :     1.143945  p :     3.374145
      px      :     1.397502
      py      :     0.832698
      dz2     :    -0.023873  d :    -0.031481
      dxz     :     0.021827
      dyz     :    -0.004794
      dx2y2   :     0.020208
      dxy     :    -0.044848
      f0      :     0.000420  f :     0.005295
      f+1     :     0.000190
      f-1     :     0.001205
      f+2     :     0.001706
      f-2     :     0.000690
      f+3     :     0.000784
      f-3     :     0.000300
  3 C s       :     3.387269  s :     3.387269
      pz      :     1.055679  p :     3.233610
      px      :     1.041517
      py      :     1.136415
      dz2     :    -0.017995  d :     0.012591
      dxz     :     0.006746
      dyz     :     0.011551
      dx2y2   :     0.036689
      dxy     :    -0.024400
      f0      :     0.000513  f :     0.004951
      f+1     :     0.000584
      f-1     :     0.000531
      f+2     :     0.001722
      f-2     :     0.000924
      f+3     :     0.000337
      f-3     :     0.000340
  4 H s       :     0.562199  s :     0.562199
      pz      :     0.022711  p :     0.061197
      px      :     0.002879
      py      :     0.035606
  5 H s       :     0.557960  s :     0.557960
      pz      :     0.010641  p :     0.046936
      px      :     0.026045
      py      :     0.010249
  6 C s       :     3.210563  s :     3.210563
      pz      :     0.516903  p :     1.812996
      px      :     0.652776
      py      :     0.643317
      dz2     :     0.048310  d :     0.276442
      dxz     :     0.105926
      dyz     :     0.055032
      dx2y2   :     0.023683
      dxy     :     0.043490
      f0      :     0.005405  f :     0.029448
      f+1     :     0.007655
      f-1     :     0.002843
      f+2     :     0.004559
      f-2     :     0.003661
      f+3     :     0.002273
      f-3     :     0.003054
  7 C s       :     3.510420  s :     3.510420
      pz      :     0.513849  p :     2.172318
      px      :     0.814082
      py      :     0.844387
      dz2     :     0.051066  d :     0.170173
      dxz     :     0.019446
      dyz     :     0.045860
      dx2y2   :     0.053177
      dxy     :     0.000623
      f0      :     0.002959  f :     0.018828
      f+1     :     0.003366
      f-1     :     0.003111
      f+2     :     0.003031
      f-2     :     0.002490
      f+3     :     0.002186
      f-3     :     0.001686
  8 C s       :     3.382897  s :     3.382897
      pz      :     1.322217  p :     3.433939
      px      :     0.945452
      py      :     1.166270
      dz2     :     0.026141  d :     0.055335
      dxz     :     0.011987
      dyz     :     0.009240
      dx2y2   :     0.005078
      dxy     :     0.002889
      f0      :     0.000377  f :     0.003762
      f+1     :     0.000777
      f-1     :     0.000318
      f+2     :     0.000484
      f-2     :     0.000670
      f+3     :     0.000610
      f-3     :     0.000527
  9 N s       :     3.591147  s :     3.591147
      pz      :     1.118646  p :     3.892163
      px      :     1.280409
      py      :     1.493108
      dz2     :     0.004706  d :     0.026200
      dxz     :     0.002500
      dyz     :     0.004477
      dx2y2   :     0.000748
      dxy     :     0.013769
      f0      :     0.000588  f :     0.002732
      f+1     :     0.000183
      f-1     :     0.000451
      f+2     :     0.000278
      f-2     :     0.000297
      f+3     :     0.000451
      f-3     :     0.000483
 10 H s       :     0.735583  s :     0.735583
      pz      :     0.031617  p :     0.062508
      px      :     0.023313
      py      :     0.007578
 11 H s       :     0.724922  s :     0.724922
      pz      :    -0.001823  p :     0.035134
      px      :     0.023462
      py      :     0.013496
 12 H s       :     0.697501  s :     0.697501
      pz      :     0.016557  p :     0.036846
      px      :     0.009860
      py      :     0.010429
 13 H s       :     0.502737  s :     0.502737
      pz      :     0.027228  p :    -0.016345
      px      :    -0.068079
      py      :     0.024506
 14 H s       :     0.589976  s :     0.589976
      pz      :     0.093905  p :     0.090203
      px      :    -0.016147
      py      :     0.012445
 15 H s       :     0.516358  s :     0.516358
      pz      :     0.044828  p :     0.081239
      px      :     0.027250
      py      :     0.009161
 16 H s       :     0.524557  s :     0.524557
      pz      :     0.044104  p :     0.100359
      px      :     0.029114
      py      :     0.027141
 17 H s       :     0.552595  s :     0.552595
      pz      :     0.035926  p :     0.067175
      px      :     0.010963
      py      :     0.020286
 18 H s       :     0.512156  s :     0.512156
      pz      :     0.027142  p :     0.069660
      px      :     0.031628
      py      :     0.010890
 19 F s       :     4.009131  s :     4.009131
      pz      :     1.527282  p :     5.190108
      px      :     1.889948
      py      :     1.772878
      dz2     :     0.003474  d :     0.010910
      dxz     :    -0.001146
      dyz     :     0.005916
      dx2y2   :     0.002483
      dxy     :     0.000182
      f0      :     0.000234  f :     0.000889
      f+1     :     0.000185
      f-1     :     0.000225
      f+2     :     0.000104
      f-2     :     0.000111
      f+3     :     0.000016
      f-3     :     0.000014
 20 O s       :     3.992002  s :     3.992002
      pz      :     1.672993  p :     4.473324
      px      :     1.331980
      py      :     1.468351
      dz2     :     0.001458  d :     0.019065
      dxz     :     0.004493
      dyz     :     0.003272
      dx2y2   :    -0.002056
      dxy     :     0.011897
      f0      :     0.000146  f :     0.001505
      f+1     :     0.000356
      f-1     :     0.000015
      f+2     :     0.000277
      f-2     :     0.000203
      f+3     :     0.000179
      f-3     :     0.000330


                     *******************************
                     * LOEWDIN POPULATION ANALYSIS *
                     *******************************

----------------------
LOEWDIN ATOMIC CHARGES
----------------------
   0 C :   -0.193974
   1 N :    0.039655
   2 C :   -0.186737
   3 C :   -0.099159
   4 H :    0.129924
   5 H :    0.121904
   6 C :   -0.499758
   7 C :   -0.598954
   8 C :   -0.002033
   9 N :    0.138692
  10 H :    0.107659
  11 H :    0.091689
  12 H :    0.131607
  13 H :   -0.010605
  14 H :    0.025128
  15 H :    0.120138
  16 H :    0.119677
  17 H :    0.126159
  18 H :    0.119999
  19 F :    0.252063
  20 O :    0.066926

-------------------------------
LOEWDIN REDUCED ORBITAL CHARGES
-------------------------------
  0 C s       :     2.660110  s :     2.660110
      pz      :     0.927916  p :     2.687515
      px      :     0.838191
      py      :     0.921407
      dz2     :     0.087466  d :     0.792301
      dxz     :     0.172008
      dyz     :     0.162721
      dx2y2   :     0.170963
      dxy     :     0.199144
      f0      :     0.004341  f :     0.054048
      f+1     :     0.007951
      f-1     :     0.005618
      f+2     :     0.007684
      f-2     :     0.004555
      f+3     :     0.011885
      f-3     :     0.012013
  1 N s       :     2.832998  s :     2.832998
      pz      :     1.149197  p :     3.431847
      px      :     1.046639
      py      :     1.236011
      dz2     :     0.132729  d :     0.678493
      dxz     :     0.204560
      dyz     :     0.101654
      dx2y2   :     0.118777
      dxy     :     0.120773
      f0      :     0.003554  f :     0.017007
      f+1     :     0.003148
      f-1     :     0.002345
      f+2     :     0.002083
      f-2     :     0.002446
      f+3     :     0.001768
      f-3     :     0.001662
  2 C s       :     2.669144  s :     2.669144
      pz      :     0.915290  p :     2.761624
      px      :     0.935033
      py      :     0.911301
      dz2     :     0.114068  d :     0.717370
      dxz     :     0.153748
      dyz     :     0.174615
      dx2y2   :     0.173694
      dxy     :     0.101246
      f0      :     0.005436  f :     0.038598
      f+1     :     0.002335
      f-1     :     0.008357
      f+2     :     0.006964
      f-2     :     0.004728
      f+3     :     0.006717
      f-3     :     0.004061
  3 C s       :     2.668479  s :     2.668479
      pz      :     0.912404  p :     2.748801
      px      :     0.901287
      py      :     0.935110
      dz2     :     0.121052  d :     0.645377
      dxz     :     0.178061
      dyz     :     0.119770
      dx2y2   :     0.153961
      dxy     :     0.072534
      f0      :     0.006738  f :     0.036502
      f+1     :     0.004558
      f-1     :     0.004763
      f+2     :     0.006766
      f-2     :     0.005945
      f+3     :     0.003847
      f-3     :     0.003886
  4 H s       :     0.667833  s :     0.667833
      pz      :     0.059401  p :     0.202243
      px      :     0.054798
      py      :     0.088044
  5 H s       :     0.672789  s :     0.672789
      pz      :     0.067772  p :     0.205307
      px      :     0.084390
      py      :     0.053144
  6 C s       :     2.628009  s :     2.628009
      pz      :     0.767334  p :     2.313896
      px      :     0.910916
      py      :     0.635646
      dz2     :     0.313056  d :     1.377809
      dxz     :     0.400367
      dyz     :     0.213721
      dx2y2   :     0.225525
      dxy     :     0.225140
      f0      :     0.033007  f :     0.180045
      f+1     :     0.045146
      f-1     :     0.023202
      f+2     :     0.026068
      f-2     :     0.021589
      f+3     :     0.015239
      f-3     :     0.015795
  7 C s       :     2.591186  s :     2.591186
      pz      :     0.843377  p :     2.535803
      px      :     0.929957
      py      :     0.762469
      dz2     :     0.301902  d :     1.354245
      dxz     :     0.305666
      dyz     :     0.248062
      dx2y2   :     0.284799
      dxy     :     0.213816
      f0      :     0.020052  f :     0.117720
      f+1     :     0.022264
      f-1     :     0.019180
      f+2     :     0.019445
      f-2     :     0.012330
      f+3     :     0.011725
      f-3     :     0.012724
  8 C s       :     2.711582  s :     2.711582
      pz      :     0.933080  p :     2.845650
      px      :     0.973826
      py      :     0.938745
      dz2     :     0.086674  d :     0.412487
      dxz     :     0.091469
      dyz     :     0.038897
      dx2y2   :     0.101966
      dxy     :     0.093481
      f0      :     0.003637  f :     0.032314
      f+1     :     0.005300
      f-1     :     0.002730
      f+2     :     0.005164
      f-2     :     0.002678
      f+3     :     0.005806
      f-3     :     0.006999
  9 N s       :     2.907885  s :     2.907885
      pz      :     1.085936  p :     3.562822
      px      :     1.159579
      py      :     1.317307
      dz2     :     0.112306  d :     0.378667
      dxz     :     0.062061
      dyz     :     0.054359
      dx2y2   :     0.077033
      dxy     :     0.072908
      f0      :     0.001747  f :     0.011934
      f+1     :     0.000996
      f-1     :     0.002195
      f+2     :     0.002124
      f-2     :     0.001901
      f+3     :     0.001439
      f-3     :     0.001531
 10 H s       :     0.621879  s :     0.621879
      pz      :     0.113141  p :     0.270462
      px      :     0.072152
      py      :     0.085168
 11 H s       :     0.624501  s :     0.624501
      pz      :     0.072963  p :     0.283810
      px      :     0.115612
      py      :     0.095234
 12 H s       :     0.575299  s :     0.575299
      pz      :     0.084617  p :     0.293094
      px      :     0.095420
      py      :     0.113056
 13 H s       :     0.656113  s :     0.656113
      pz      :     0.093343  p :     0.354492
      px      :     0.091544
      py      :     0.169604
 14 H s       :     0.717305  s :     0.717305
      pz      :     0.111790  p :     0.257567
      px      :     0.077196
      py      :     0.068581
 15 H s       :     0.659183  s :     0.659183
      pz      :     0.098232  p :     0.220679
      px      :     0.059426
      py      :     0.063021
 16 H s       :     0.686307  s :     0.686307
      pz      :     0.075229  p :     0.194016
      px      :     0.050904
      py      :     0.067882
 17 H s       :     0.665375  s :     0.665375
      pz      :     0.070951  p :     0.208466
      px      :     0.085587
      py      :     0.051928
 18 H s       :     0.676483  s :     0.676483
      pz      :     0.061110  p :     0.203518
      px      :     0.090156
      py      :     0.052252
 19 F s       :     3.472245  s :     3.472245
      pz      :     1.612708  p :     5.033014
      px      :     1.756879
      py      :     1.663426
      dz2     :     0.069501  d :     0.240377
      dxz     :     0.066577
      dyz     :     0.058239
      dx2y2   :     0.019496
      dxy     :     0.026564
      f0      :     0.000530  f :     0.002301
      f+1     :     0.000537
      f-1     :     0.000578
      f+2     :     0.000269
      f-2     :     0.000320
      f+3     :     0.000034
      f-3     :     0.000034
 20 O s       :     3.330530  s :     3.330530
      pz      :     1.514337  p :     4.317602
      px      :     1.477021
      py      :     1.326245
      dz2     :     0.038340  d :     0.279749
      dxz     :     0.062597
      dyz     :     0.032824
      dx2y2   :     0.084988
      dxy     :     0.060999
      f0      :     0.000623  f :     0.005192
      f+1     :     0.001068
      f-1     :     0.000027
      f+2     :     0.001305
      f-2     :     0.000449
      f+3     :     0.001056
      f-3     :     0.000664


                      *****************************
                      * MAYER POPULATION ANALYSIS *
                      *****************************

  NA   - Mulliken gross atomic population
  ZA   - Total nuclear charge
  QA   - Mulliken gross atomic charge
  VA   - Mayer's total valence
  BVA  - Mayer's bonded valence
  FA   - Mayer's free valence

  ATOM       NA         ZA         QA         VA         BVA        FA
  0 C      6.7844     6.0000    -0.7844     2.9772     2.9772    -0.0000
  1 N      7.3305     7.0000    -0.3305     2.4866     2.4866    -0.0000
  2 C      6.8489     6.0000    -0.8489     3.0442     3.0442     0.0000
  3 C      6.6384     6.0000    -0.6384     3.3141     3.3141     0.0000
  4 H      0.6234     1.0000     0.3766     0.9675     0.9675     0.0000
  5 H      0.6049     1.0000     0.3951     0.9193     0.9193     0.0000
  6 C      5.3294     6.0000     0.6706     3.2905     3.2905     0.0000
  7 C      5.8717     6.0000     0.1283     2.6033     2.6033    -0.0000
  8 C      6.8759     6.0000    -0.8759     3.5671     3.5671    -0.0000
  9 N      7.5122     7.0000    -0.5122     2.8014     2.8014    -0.0000
 10 H      0.7981     1.0000     0.2019     1.0059     1.0059    -0.0000
 11 H      0.7601     1.0000     0.2399     0.9172     0.9172     0.0000
 12 H      0.7343     1.0000     0.2657     0.9103     0.9103    -0.0000
 13 H      0.4864     1.0000     0.5136     0.7311     0.7311    -0.0000
 14 H      0.6802     1.0000     0.3198     1.2122     1.2122    -0.0000
 15 H      0.5976     1.0000     0.4024     0.9578     0.9578    -0.0000
 16 H      0.6249     1.0000     0.3751     1.0416     1.0416    -0.0000
 17 H      0.6198     1.0000     0.3802     0.9744     0.9744    -0.0000
 18 H      0.5818     1.0000     0.4182     0.9161     0.9161     0.0000
 19 F      9.2110     9.0000    -0.2110     1.1288     1.1288     0.0000
 20 O      8.4859     8.0000    -0.4859     1.7049     1.7049     0.0000

  Mayer bond orders larger than 0.100000
B(  0-C ,  1-N ) :   0.6539 B(  0-C ,  2-C ) :   0.5877 B(  0-C ,  7-C ) :  -0.1757 
B(  0-C , 15-H ) :   0.8958 B(  0-C , 16-H ) :   0.9898 B(  1-N ,  7-C ) :   0.8982 
B(  1-N , 12-H ) :   0.8848 B(  2-C ,  3-C ) :   0.6499 B(  2-C , 17-H ) :   0.9391 
B(  2-C , 18-H ) :   0.9319 B(  3-C ,  4-H ) :   0.9385 B(  3-C ,  5-H ) :   0.9522 
B(  3-C ,  6-C ) :   0.8145 B(  6-C , 19-F ) :   0.9823 B(  6-C , 20-O ) :   1.6805 
B(  7-C ,  8-C ) :   1.4400 B(  7-C ,  9-N ) :   0.6968 B(  7-C , 14-H ) :  -0.1470 
B(  8-C , 13-H ) :   0.7049 B(  8-C , 14-H ) :   1.2914 B(  9-N , 10-H ) :   0.9738 
B(  9-N , 11-H ) :   0.9221 B( 13-H , 20-O ) :  -0.1030 

-------
TIMINGS
-------

Total SCF time: 0 days 0 hours 3 min 20 sec 

Total time                  ....     200.462 sec
Sum of individual times     ....     199.794 sec  ( 99.7%)

Fock matrix formation       ....     195.056 sec  ( 97.3%)
  Split-RI-J                ....       9.172 sec  (  4.7% of F)
  Chain of spheres X        ....     164.089 sec  ( 84.1% of F)
  XC integration            ....      21.550 sec  ( 11.0% of F)
    Basis function eval.    ....       4.978 sec  ( 23.1% of XC)
    Density eval.           ....       6.947 sec  ( 32.2% of XC)
    XC-Functional eval.     ....       0.660 sec  (  3.1% of XC)
    XC-Potential eval.      ....       8.448 sec  ( 39.2% of XC)
Diagonalization             ....       0.524 sec  (  0.3%)
Density matrix formation    ....       0.036 sec  (  0.0%)
Population analysis         ....       0.062 sec  (  0.0%)
Initial guess               ....       0.921 sec  (  0.5%)
Orbital Transformation      ....       0.000 sec  (  0.0%)
Orbital Orthonormalization  ....       0.000 sec  (  0.0%)
DIIS solution               ....       0.285 sec  (  0.1%)
SOSCF solution              ....       0.439 sec  (  0.2%)
Grid generation             ....       2.472 sec  (  1.2%)

Maximum memory used throughout the entire SCF-calculation: 74.6 MB

-------------------------   --------------------
FINAL SINGLE POINT ENERGY      -518.787034167323
-------------------------   --------------------


                            ***************************************
                            *     ORCA property calculations      *
                            ***************************************

                                    ---------------------
                                    Active property flags
                                    ---------------------
   (+) Dipole Moment


------------------------------------------------------------------------------
                       ORCA ELECTRIC PROPERTIES CALCULATION
------------------------------------------------------------------------------

Dipole Moment Calculation                       ... on
Quadrupole Moment Calculation                   ... off
Polarizability Calculation                      ... off
GBWName                                         ... 28Oct_TZVPD_LC_BLYP_D2_wb97.gbw
Electron density file                           ... 28Oct_TZVPD_LC_BLYP_D2_wb97.scfp
The origin for moment calculation is the CENTER OF MASS  = ( 9.559895,  3.887377 -9.381744)

-------------
DIPOLE MOMENT
-------------
                                X             Y             Z
Electronic contribution:      2.04729      -3.80074      -5.16991
Nuclear contribution   :     -4.40347       3.21582       5.36161
                        -----------------------------------------
Total Dipole Moment    :     -2.35618      -0.58493       0.19171
                        -----------------------------------------
Magnitude (a.u.)       :      2.43526
Magnitude (Debye)      :      6.18993



--------------------
Rotational spectrum 
--------------------
 
Rotational constants in cm-1:     0.061226     0.043199     0.033926 
Rotational constants in MHz :  1835.503528  1295.087558  1017.061512 

 Dipole components along the rotational axes: 
x,y,z [a.u.] :    -1.437667     1.114837    -1.618864 
x,y,z [Debye]:    -3.654259     2.833690    -4.114825 

 

Timings for individual modules:

Sum of individual times         ...      201.671 sec (=   3.361 min)
GTO integral calculation        ...        0.812 sec (=   0.014 min)   0.4 %
SCF iterations                  ...      200.858 sec (=   3.348 min)  99.6 %
                             ****ORCA TERMINATED NORMALLY****
TOTAL RUN TIME: 0 days 0 hours 3 minutes 22 seconds 319 msec
