
                                        *****************
                                        * O   R   C   A *
                                        *****************

                                            #,                                       
                                            ###                                      
                                            ####                                     
                                            #####                                    
                                            ######                                   
                                           ########,                                 
                                     ,,################,,,,,                         
                               ,,#################################,,                 
                          ,,##########################################,,             
                       ,#########################################, ''#####,          
                    ,#############################################,,   '####,        
                  ,##################################################,,,,####,       
                ,###########''''           ''''###############################       
              ,#####''   ,,,,##########,,,,          '''####'''          '####       
            ,##' ,,,,###########################,,,                        '##       
           ' ,,###''''                  '''############,,,                           
         ,,##''                                '''############,,,,        ,,,,,,###''
      ,#''                                            '''#######################'''  
     '                                                          ''''####''''         
             ,#######,   #######,   ,#######,      ##                                
            ,#'     '#,  ##    ##  ,#'     '#,    #''#        ######   ,####,        
            ##       ##  ##   ,#'  ##            #'  '#       #        #'  '#        
            ##       ##  #######   ##           ,######,      #####,   #    #        
            '#,     ,#'  ##    ##  '#,     ,#' ,#      #,         ##   #,  ,#        
             '#######'   ##     ##  '#######'  #'      '#     #####' # '####'        



                  #######################################################
                  #                        -***-                        #
                  #          Department of theory and spectroscopy      #
                  #    Directorship and core code : Frank Neese         #
                  #        Max Planck Institute fuer Kohlenforschung    #
                  #                Kaiser Wilhelm Platz 1               #
                  #                 D-45470 Muelheim/Ruhr               #
                  #                      Germany                        #
                  #                                                     #
                  #                  All rights reserved                #
                  #                        -***-                        #
                  #######################################################


                         Program Version 5.0.0 -  RELEASE  -
                                (SVN: $Rev: 19529$)
                ($Date: 2021-06-28 11:36:33 +0200 (Mo, 28 Jun 2021) $)


 With contributions from (in alphabetic order):
   Daniel Aravena         : Magnetic Suceptibility
   Michael Atanasov       : Ab Initio Ligand Field Theory (pilot matlab implementation)
   Alexander A. Auer      : GIAO ZORA, VPT2 properties, NMR spectrum
   Ute Becker             : Parallelization
   Giovanni Bistoni       : ED, misc. LED, open-shell LED, HFLD
   Martin Brehm           : Molecular dynamics
   Dmytro Bykov           : SCF Hessian
   Vijay G. Chilkuri      : MRCI spin determinant printing, contributions to CSF-ICE
   Dipayan Datta          : RHF DLPNO-CCSD density
   Achintya Kumar Dutta   : EOM-CC, STEOM-CC
   Dmitry Ganyushin       : Spin-Orbit,Spin-Spin,Magnetic field MRCI
   Miquel Garcia          : C-PCM Hessian, Gaussian charge scheme
   Yang Guo               : DLPNO-NEVPT2, F12-NEVPT2, CIM, IAO-localization
   Andreas Hansen         : Spin unrestricted coupled pair/coupled cluster methods
   Benjamin Helmich-Paris : MC-RPA, TRAH-SCF, COSX integrals
   Lee Huntington         : MR-EOM, pCC
   Robert Izsak           : Overlap fitted RIJCOSX, COSX-SCS-MP3, EOM
   Marcus Kettner         : VPT2
   Christian Kollmar      : KDIIS, OOCD, Brueckner-CCSD(T), CCSD density, CASPT2, CASPT2-K
   Simone Kossmann        : Meta GGA functionals, TD-DFT gradient, OOMP2, MP2 Hessian
   Martin Krupicka        : Initial AUTO-CI
   Lucas Lang             : DCDCAS
   Marvin Lechner         : AUTO-CI (C++ implementation), FIC-MRCC
   Dagmar Lenk            : GEPOL surface, SMD
   Dimitrios Liakos       : Extrapolation schemes; Compound Job, initial MDCI parallelization
   Dimitrios Manganas     : Further ROCIS development; embedding schemes
   Dimitrios Pantazis     : SARC Basis sets
   Anastasios Papadopoulos: AUTO-CI, single reference methods and gradients
   Taras Petrenko         : DFT Hessian,TD-DFT gradient, ASA, ECA, R-Raman, ABS, FL, XAS/XES, NRVS
   Peter Pinski           : DLPNO-MP2, DLPNO-MP2 Gradient
   Christoph Reimann      : Effective Core Potentials
   Marius Retegan         : Local ZFS, SOC
   Christoph Riplinger    : Optimizer, TS searches, QM/MM, DLPNO-CCSD(T), (RO)-DLPNO pert. Triples
   Tobias Risthaus        : Range-separated hybrids, TD-DFT gradient, RPA, STAB
   Michael Roemelt        : Original ROCIS implementation
   Masaaki Saitow         : Open-shell DLPNO-CCSD energy and density
   Barbara Sandhoefer     : DKH picture change effects
   Avijit Sen             : IP-ROCIS
   Kantharuban Sivalingam : CASSCF convergence, NEVPT2, FIC-MRCI
   Bernardo de Souza      : ESD, SOC TD-DFT
   Georgi Stoychev        : AutoAux, RI-MP2 NMR
   Willem Van den Heuvel  : Paramagnetic NMR
   Boris Wezisla          : Elementary symmetry handling
   Frank Wennmohs         : Technical directorship


 We gratefully acknowledge several colleagues who have allowed us to
 interface, adapt or use parts of their codes:
   Stefan Grimme, W. Hujo, H. Kruse, P. Pracht,  : VdW corrections, initial TS optimization,
                  C. Bannwarth, S. Ehlert          DFT functionals, gCP, sTDA/sTD-DF
   Ed Valeev, F. Pavosevic, A. Kumar             : LibInt (2-el integral package), F12 methods
   Garnet Chan, S. Sharma, J. Yang, R. Olivares  : DMRG
   Ulf Ekstrom                                   : XCFun DFT Library
   Mihaly Kallay                                 : mrcc  (arbitrary order and MRCC methods)
   Jiri Pittner, Ondrej Demel                    : Mk-CCSD
   Frank Weinhold                                : gennbo (NPA and NBO analysis)
   Christopher J. Cramer and Donald G. Truhlar   : smd solvation model
   Lars Goerigk                                  : TD-DFT with DH, B97 family of functionals
   V. Asgeirsson, H. Jonsson                     : NEB implementation
   FAccTs GmbH                                   : IRC, NEB, NEB-TS, DLPNO-Multilevel, CI-OPT
                                                   MM, QMMM, 2- and 3-layer-ONIOM, Crystal-QMMM,
                                                   LR-CPCM, SF, NACMEs, symmetry and pop. for TD-DFT,
                                                   nearIR, NL-DFT gradient (VV10), updates on ESD,
                                                   ML-optimized integration grids
   S Lehtola, MJT Oliveira, MAL Marques          : LibXC Library
   Liviu Ungur et al                             : ANISO software


 Your calculation uses the libint2 library for the computation of 2-el integrals
 For citations please refer to: http://libint.valeyev.net

 Your ORCA version has been built with support for libXC version: 5.1.0
 For citations please refer to: https://tddft.org/programs/libxc/

 This ORCA versions uses:
   CBLAS   interface :  Fast vector & matrix operations
   LAPACKE interface :  Fast linear algebra routines
   SCALAPACK package :  Parallel linear algebra routines
   Shared memory     :  Shared parallel matrices
   BLAS/LAPACK       :  OpenBLAS 0.3.15  USE64BITINT DYNAMIC_ARCH NO_AFFINITY Haswell SINGLE_THREADED
        Core in use  :  Haswell
   Copyright (c) 2011-2014, The OpenBLAS Project




***************************************
The coordinates will be read from file: D5.xyz
***************************************


Your calculation utilizes the atom-pairwise dispersion correction
with the zero-damping scheme (D30)
Cite in your paper:
S.Grimme, J.Antony, S.Ehrlich and H.Krieg, J.Chem.Phys., 132, (2010), 154104 
   

XCFun DFT library Copyright 2009-2010 Ulf Ekstrom and contributors.
See http://admol.org/xcfun for more information.
This is free software; see the source code for copying conditions.
There is ABSOLUTELY NO WARRANTY; not even for MERCHANTABILITY or FITNESS FOR A PARTICULAR PURPOSE.
For details see the documentation.
Scientific users of this library should cite U. Ekstrom, L. Visscher, R. Bast, A. J. Thorvaldsen and K. Ruud;
J.Chem.Theor.Comp. 2010, DOI: 10.1021/ct100117s
XCFun Version 0.99 

================================================================================

----- Orbital basis set information -----
Your calculation utilizes the basis: def2-SVPD
   F. Weigend and R. Ahlrichs, Phys. Chem. Chem. Phys. 7, 3297 (2005).
   D. Rappoport and F. Furche, J. Chem. Phys. 133 134105 (2010).

----- AuxJ basis set information -----
Your calculation utilizes the auxiliary basis: def2/J
   F. Weigend, Phys. Chem. Chem. Phys. 8, 1057 (2006).

================================================================================
                                        WARNINGS
                       Please study these warnings very carefully!
================================================================================


INFO   : the flag for use of the SHARK integral package has been found!

================================================================================
                                       INPUT FILE
================================================================================
NAME = new_SVPD_D5_wb97.com
|  1> !wB97X-D3 RIJCOSX def2-SVPD def2/J TightSCF xyzfile                                                                                         
|  2> 
|  3> *xyzfile 0 1 D5.xyz
|  4> 
|  5> %MaxCore 64000
|  6> 
|  7> %pal nprocs 18                                                                                                                                                  
|  8> end  
|  9> 
| 10> %scf
| 11>   MaxIter 150
| 12> end
| 13> 
| 14> 
| 15>                          ****END OF INPUT****
================================================================================

                       ****************************
                       * Single Point Calculation *
                       ****************************

---------------------------------
CARTESIAN COORDINATES (ANGSTROEM)
---------------------------------
  C      2.916324   -1.242589   -1.543125
  C      0.704661    1.443129   -4.503630
  C      1.728539    1.424320   -5.639443
  H      2.646718    1.953794   -5.381054
  H      1.299916    1.930613   -6.503614
  S      2.252625   -0.188115   -6.271840
  C      3.466585   -1.590971   -2.889082
  C      4.652275   -1.143164   -3.259692
  N      2.752264   -2.292043   -3.728029
  H      1.778364   -2.489604   -3.512738
  H      2.948612   -2.208544   -4.716813
  H      5.146723   -0.512508   -2.633852
  H      4.783030   -1.007203   -4.253498
  O      3.562607   -0.444464   -5.631552
  O      2.344944   -0.033742   -7.696501
  C      2.804084    0.290698   -1.359243
  C      1.052550    0.695659   -3.214915
  H     -0.232483    1.032925   -4.884449
  H      0.511700    2.495794   -4.267966
  C      2.388380    1.093669   -2.597108
  H      3.763425    0.674718   -0.999889
  H      2.094788    0.461222   -0.545756
  F      1.266058   -1.159177   -5.805365
  H      3.167316    1.013242   -3.359430
  H      2.357690    2.149375   -2.310997
  H      1.039284   -0.368429   -3.449329
  H      0.250787    0.865605   -2.488283
  H      1.940472   -1.716529   -1.441161
  H      3.558569   -1.663433   -0.766371

----------------------------
CARTESIAN COORDINATES (A.U.)
----------------------------
  NO LB      ZA    FRAG     MASS         X           Y           Z
   0 C     6.0000    0    12.011    5.511054   -2.348154   -2.916084
   1 C     6.0000    0    12.011    1.331617    2.727119   -8.510627
   2 C     6.0000    0    12.011    3.266466    2.691575  -10.657002
   3 H     1.0000    0     1.008    5.001573    3.692135  -10.168719
   4 H     1.0000    0     1.008    2.456486    3.648330  -12.290050
   5 S    16.0000    0    32.060    4.256845   -0.355485  -11.852059
   6 C     6.0000    0    12.011    6.550897   -3.006500   -5.459573
   7 C     6.0000    0    12.011    8.791525   -2.160266   -6.159925
   8 N     7.0000    0    14.007    5.201026   -4.331334   -7.044953
   9 H     1.0000    0     1.008    3.360621   -4.704669   -6.638113
  10 H     1.0000    0     1.008    5.572070   -4.173543   -8.913484
  11 H     1.0000    0     1.008    9.725897   -0.968501   -4.977259
  12 H     1.0000    0     1.008    9.038617   -1.903337   -8.037945
  13 O     8.0000    0    15.999    6.732352   -0.839915  -10.642091
  14 O     8.0000    0    15.999    4.431301   -0.063764  -14.544279
  15 C     6.0000    0    12.011    5.298951    0.549339   -2.568597
  16 C     6.0000    0    12.011    1.989032    1.314604   -6.075308
  17 H     1.0000    0     1.008   -0.439329    1.951946   -9.230272
  18 H     1.0000    0     1.008    0.966972    4.716368   -8.065286
  19 C     6.0000    0    12.011    4.513384    2.066735   -4.907822
  20 H     1.0000    0     1.008    7.111842    1.275032   -1.889516
  21 H     1.0000    0     1.008    3.958575    0.871583   -1.031329
  22 F     9.0000    0    18.998    2.392504   -2.190526  -10.970549
  23 H     1.0000    0     1.008    5.985361    1.914750   -6.348402
  24 H     1.0000    0     1.008    4.455389    4.061730   -4.367151
  25 H     1.0000    0     1.008    1.963961   -0.696229   -6.518287
  26 H     1.0000    0     1.008    0.473919    1.635756   -4.702174
  27 H     1.0000    0     1.008    3.666960   -3.243770   -2.723400
  28 H     1.0000    0     1.008    6.724720   -3.143433   -1.448231

--------------------------------
INTERNAL COORDINATES (ANGSTROEM)
--------------------------------
 C      0   0   0     0.000000000000     0.00000000     0.00000000
 C      1   0   0     4.568273793968     0.00000000     0.00000000
 C      2   1   0     1.529297825534    98.62404527     0.00000000
 H      3   2   1     1.090944370706   112.43319093   291.35935600
 H      3   2   1     1.089423309889   108.66365748   173.02891256
 S      3   2   1     1.809568454434   117.67249747    54.59879179
 C      1   2   3     1.495244269354    74.44217903   337.12806402
 C      7   1   2     1.320508752421   120.26891390   103.10495601
 N      7   1   2     1.305981940434   120.13503729   286.08645689
 H      9   7   1     1.016790325068   119.48364563     8.33019225
 H      9   7   1     1.011542432359   118.51921329   155.66854205
 H      8   7   1     1.016799188787   118.30856157   356.12171918
 H      8   7   1     1.011549184661   115.93680355   208.86906715
 O      6   3   2     1.480451351977   105.03550261   259.70514125
 O      6   3   2     1.435971529587   105.63739582   140.00826415
 C      1   2   3     1.548347683709    57.29458071   106.04454887
 C      2   1   3     1.529877614442    19.39834396   186.99389249
 H      2   1   3     1.091572130247   114.88526166   114.65620169
 H      2   1   3     1.095844940799   120.70540048   244.49829987
 C     17   2   1     1.524643581099   114.39523607    61.63043835
 H     16   1   2     1.094048234703   108.84673673   220.49718341
 H     16   1   2     1.092676175276   106.85886165   106.82959772
 F      6   3   2     1.460778685441   106.56716191    16.57397008
 H     20  17   2     1.092861154855   108.82111327   307.33588892
 H     20  17   2     1.094219453583   109.46571263    62.60087563
 H     17   2   1     1.089682404302   107.04520605   298.66165453
 H     17   2   1     1.095307766624   108.45540496   184.02122912
 H      1   2   3     1.089634927768    83.26793994   226.06030881
 H      1   2   3     1.092215339711   166.43145148    86.04509137

---------------------------
INTERNAL COORDINATES (A.U.)
---------------------------
 C      0   0   0     0.000000000000     0.00000000     0.00000000
 C      1   0   0     8.632786375368     0.00000000     0.00000000
 C      2   1   0     2.889954067461    98.62404527     0.00000000
 H      3   2   1     2.061586087978   112.43319093   291.35935600
 H      3   2   1     2.058711699600   108.66365748   173.02891256
 S      3   2   1     3.419588799463   117.67249747    54.59879179
 C      1   2   3     2.825602172394    74.44217903   337.12806402
 C      7   1   2     2.495399899522   120.26891390   103.10495601
 N      7   1   2     2.467948203268   120.13503729   286.08645689
 H      9   7   1     1.921455250000   119.48364563     8.33019225
 H      9   7   1     1.911538170000   118.51921329   155.66854205
 H      8   7   1     1.921472000000   118.30856157   356.12171918
 H      8   7   1     1.911550930000   115.93680355   208.86906715
 O      6   3   2     2.797647609830   105.03550261   259.70514125
 O      6   3   2     2.713592927028   105.63739582   140.00826415
 C      1   2   3     2.925953082301    57.29458071   106.04454887
 C      2   1   3     2.891049709713    19.39834396   186.99389249
 H      2   1   3     2.062772381588   114.88526166   114.65620169
 H      2   1   3     2.070846823354   120.70540048   244.49829987
 C     17   2   1     2.881158820119   114.39523607    61.63043835
 H     16   1   2     2.067451540889   108.84673673   220.49718341
 H     16   1   2     2.064858724332   106.85886165   106.82959772
 F      6   3   2     2.760471657752   106.56716191    16.57397008
 H     20  17   2     2.065208285076   108.82111327   307.33588892
 H     20  17   2     2.067775097680   109.46571263    62.60087563
 H     17   2   1     2.059201317083   107.04520605   298.66165453
 H     17   2   1     2.069831711276   108.45540496   184.02122912
 H      1   2   3     2.059111599436    83.26793994   226.06030881
 H      1   2   3     2.063987871322   166.43145148    86.04509137

---------------------
BASIS SET INFORMATION
---------------------
There are 6 groups of distinct atoms

 Group   1 Type C   : 8s4p2d contracted to 4s2p2d pattern {5111/31/11}
 Group   2 Type H   : 4s2p contracted to 2s2p pattern {31/11}
 Group   3 Type S   : 11s8p2d contracted to 5s4p2d pattern {53111/5111/11}
 Group   4 Type N   : 8s4p2d contracted to 4s2p2d pattern {5111/31/11}
 Group   5 Type O   : 8s5p2d contracted to 4s3p2d pattern {5111/311/11}
 Group   6 Type F   : 8s5p2d contracted to 4s3p2d pattern {5111/311/11}

Atom   0C    basis set group =>   1
Atom   1C    basis set group =>   1
Atom   2C    basis set group =>   1
Atom   3H    basis set group =>   2
Atom   4H    basis set group =>   2
Atom   5S    basis set group =>   3
Atom   6C    basis set group =>   1
Atom   7C    basis set group =>   1
Atom   8N    basis set group =>   4
Atom   9H    basis set group =>   2
Atom  10H    basis set group =>   2
Atom  11H    basis set group =>   2
Atom  12H    basis set group =>   2
Atom  13O    basis set group =>   5
Atom  14O    basis set group =>   5
Atom  15C    basis set group =>   1
Atom  16C    basis set group =>   1
Atom  17H    basis set group =>   2
Atom  18H    basis set group =>   2
Atom  19C    basis set group =>   1
Atom  20H    basis set group =>   2
Atom  21H    basis set group =>   2
Atom  22F    basis set group =>   6
Atom  23H    basis set group =>   2
Atom  24H    basis set group =>   2
Atom  25H    basis set group =>   2
Atom  26H    basis set group =>   2
Atom  27H    basis set group =>   2
Atom  28H    basis set group =>   2
---------------------------------
AUXILIARY/J BASIS SET INFORMATION
---------------------------------
There are 6 groups of distinct atoms

 Group   1 Type C   : 12s5p4d2f1g contracted to 6s4p3d1f1g pattern {711111/2111/211/2/1}
 Group   2 Type H   : 5s2p1d contracted to 3s1p1d pattern {311/2/1}
 Group   3 Type S   : 14s5p5d2f1g contracted to 8s4p3d1f1g pattern {71111111/2111/311/2/1}
 Group   4 Type N   : 12s5p4d2f1g contracted to 6s4p3d1f1g pattern {711111/2111/211/2/1}
 Group   5 Type O   : 12s5p4d2f1g contracted to 6s4p3d1f1g pattern {711111/2111/211/2/1}
 Group   6 Type F   : 12s5p4d2f1g contracted to 6s4p3d1f1g pattern {711111/2111/211/2/1}

Atom   0C    basis set group =>   1
Atom   1C    basis set group =>   1
Atom   2C    basis set group =>   1
Atom   3H    basis set group =>   2
Atom   4H    basis set group =>   2
Atom   5S    basis set group =>   3
Atom   6C    basis set group =>   1
Atom   7C    basis set group =>   1
Atom   8N    basis set group =>   4
Atom   9H    basis set group =>   2
Atom  10H    basis set group =>   2
Atom  11H    basis set group =>   2
Atom  12H    basis set group =>   2
Atom  13O    basis set group =>   5
Atom  14O    basis set group =>   5
Atom  15C    basis set group =>   1
Atom  16C    basis set group =>   1
Atom  17H    basis set group =>   2
Atom  18H    basis set group =>   2
Atom  19C    basis set group =>   1
Atom  20H    basis set group =>   2
Atom  21H    basis set group =>   2
Atom  22F    basis set group =>   6
Atom  23H    basis set group =>   2
Atom  24H    basis set group =>   2
Atom  25H    basis set group =>   2
Atom  26H    basis set group =>   2
Atom  27H    basis set group =>   2
Atom  28H    basis set group =>   2


           ************************************************************
           *        Program running with 18 parallel MPI-processes    *
           *              working on a common directory               *
           ************************************************************
------------------------------------------------------------------------------
                           ORCA GTO INTEGRAL CALCULATION
                           -- RI-GTO INTEGRALS CHOSEN --
------------------------------------------------------------------------------
------------------------------------------------------------------------------
                   ___                                                        
                  /   \      - P O W E R E D   B Y -                         
                 /     \                                                     
                 |  |  |   _    _      __       _____    __    __             
                 |  |  |  | |  | |    /  \     |  _  \  |  |  /  |          
                  \  \/   | |  | |   /    \    | | | |  |  | /  /          
                 / \  \   | |__| |  /  /\  \   | |_| |  |  |/  /          
                |  |  |   |  __  | /  /__\  \  |    /   |      \           
                |  |  |   | |  | | |   __   |  |    \   |  |\   \          
                \     /   | |  | | |  |  |  |  | |\  \  |  | \   \       
                 \___/    |_|  |_| |__|  |__|  |_| \__\ |__|  \__/        
                                                                              
                      - O R C A' S   B I G   F R I E N D -                    
                                      &                                       
                       - I N T E G R A L  F E E D E R -                       
                                                                              
 v1 FN, 2020, v2 2021                                                         
------------------------------------------------------------------------------


Reading SHARK input file new_SVPD_D5_wb97.SHARKINP.tmp ... ok
----------------------
SHARK INTEGRAL PACKAGE
----------------------

Number of atoms                             ...     29
Number of basis functions                   ...    404
Number of shells                            ...    174
Maximum angular momentum                    ...      2
Integral batch strategy                     ... SHARK/LIBINT Hybrid
RI-J (if used) integral strategy            ... SPLIT-RIJ (Revised 2003 algorithm where possible)
Printlevel                                  ...      1
Contraction scheme used                     ... SEGMENTED contraction
Coulomb Range Separation                    ... NOT USED
Exchange Range Separation                   ... Long Range
   Mu parameter                             ...  0.250000
   Scaling (regular/separated)              ...  0.195728  0.804272
Finite Nucleus Model                        ... NOT USED
Auxiliary Coulomb fitting basis             ... AVAILABLE
   # of basis functions in Aux-J            ...    815
   # of shells in Aux-J                     ...    277
   Maximum angular momentum in Aux-J        ...      4
Auxiliary J/K fitting basis                 ... NOT available
Auxiliary Correlation fitting basis         ... NOT available
Auxiliary 'external' fitting basis          ... NOT available
Integral threshold                          ...     2.500000e-11
Primitive cut-off                           ...     2.500000e-12
Primitive pair pre-selection threshold      ...     2.500000e-12

Calculating pre-screening integrals         ... done (  0.1 sec) Dimension = 174
Organizing shell pair data                  ... done (  0.2 sec)
Shell pair information
Total number of shell pairs                 ...     15225
Shell pairs after pre-screening             ...     14366
Total number of primitive shell pairs       ...     41843
Primitive shell pairs kept                  ...     30380
          la=0 lb=0:   3420 shell pairs
          la=1 lb=0:   5038 shell pairs
          la=1 lb=1:   1913 shell pairs
          la=2 lb=0:   2092 shell pairs
          la=2 lb=1:   1563 shell pairs
          la=2 lb=2:    340 shell pairs

Calculating one electron integrals          ... done (  0.0 sec)
Calculating RI/J V-Matrix + Cholesky decomp.... done (  0.1 sec)
Calculating Nuclear repulsion               ... done (  0.0 sec) ENN=   1087.715665744142 Eh

SHARK setup successfully completed in   0.5 seconds

Maximum memory used throughout the entire GTOINT-calculation: 22.7 MB


           ************************************************************
           *        Program running with 18 parallel MPI-processes    *
           *              working on a common directory               *
           ************************************************************
-------------------------------------------------------------------------------
                                 ORCA SCF
-------------------------------------------------------------------------------

------------
SCF SETTINGS
------------
Hamiltonian:
 Density Functional     Method          .... DFT(GTOs)
 Exchange Functional    Exchange        .... WB97X-D3
 Correlation Functional Correlation     .... WB97X-D3
 Gradients option       PostSCFGGA      .... off
 Hybrid DFT is turned on
   Fraction HF Exchange ScalHFX         ....  0.195728
   Scaling of DF-GGA-X  ScalDFX         ....  0.000000
   Scaling of DF-GGA-C  ScalDFC         ....  1.000000
   Scaling of DF-LDA-C  ScalLDAC        ....  1.000000
   Perturbative correction              ....  0.000000
   Density functional embedding theory  .... OFF
 Long-range corrected/Screened/Range-Separated Hybrid DFT is turned on
   Amount of maximum screened exact exchange              ....  0.804272
   Range separation parameter mu (erf(mu*r12)/r12)        ....  0.250000
 RI-approximation to the Coulomb term is turned on
   Number of AuxJ basis functions       .... 815
   RIJ-COSX (HFX calculated with COS-X)).... on


General Settings:
 Integral files         IntName         .... new_SVPD_D5_wb97
 Hartree-Fock type      HFTyp           .... RHF
 Total Charge           Charge          ....    0
 Multiplicity           Mult            ....    1
 Number of Electrons    NEL             ....  112
 Basis Dimension        Dim             ....  404
 Nuclear Repulsion      ENuc            ....   1087.7156657441 Eh

Convergence Acceleration:
 DIIS                   CNVDIIS         .... on
   Start iteration      DIISMaxIt       ....    12
   Startup error        DIISStart       ....  0.200000
   # of expansion vecs  DIISMaxEq       ....     5
   Bias factor          DIISBfac        ....   1.050
   Max. coefficient     DIISMaxC        ....  10.000
 Trust-Rad. Augm. Hess. CNVTRAH         .... auto
   Auto Start mean grad. ratio tolernc. ....  1.125000
   Auto Start start iteration           ....    20
   Auto Start num. interpolation iter.  ....    10
   Max. Number of Micro iterations      ....    16
   Max. Number of Macro iterations      .... Maxiter - #DIIS iter
   Number of Davidson start vectors     ....     2
   Converg. threshold I  (grad. norm)   ....   1.000e-05
   Converg. threshold II (energy diff.) ....   1.000e-08
   Grad. Scal. Fac. for Micro threshold ....   0.100
   Minimum threshold for Micro iter.    ....   0.010
   NR start threshold (gradient norm)   ....   0.001
   Initial trust radius                 ....   0.400
   Minimum AH scaling param. (alpha)    ....   1.000
   Maximum AH scaling param. (alpha)    .... 1000.000
   Orbital update algorithm             .... Taylor
   White noise on init. David. guess    .... on
   Maximum white noise                  ....   0.010
   Quad. conv. algorithm                .... NR
 SOSCF                  CNVSOSCF        .... on
   Start iteration      SOSCFMaxIt      ....   150
   Startup grad/error   SOSCFStart      ....  0.003300
 Level Shifting         CNVShift        .... on
   Level shift para.    LevelShift      ....    0.2500
   Turn off err/grad.   ShiftErr        ....    0.0010
 Zerner damping         CNVZerner       .... off
 Static damping         CNVDamp         .... on
   Fraction old density DampFac         ....    0.7000
   Max. Damping (<1)    DampMax         ....    0.9800
   Min. Damping (>=0)   DampMin         ....    0.0000
   Turn off err/grad.   DampErr         ....    0.1000
 Fernandez-Rico         CNVRico         .... off

SCF Procedure:
 Maximum # iterations   MaxIter         ....   150
 SCF integral mode      SCFMode         .... Direct
   Integral package                     .... SHARK and LIBINT hybrid scheme
 Reset frequency        DirectResetFreq ....    20
 Integral Threshold     Thresh          ....  2.500e-11 Eh
 Primitive CutOff       TCut            ....  2.500e-12 Eh

Convergence Tolerance:
 Convergence Check Mode ConvCheckMode   .... Total+1el-Energy
 Convergence forced     ConvForced      .... 0
 Energy Change          TolE            ....  1.000e-08 Eh
 1-El. energy change                    ....  1.000e-05 Eh
 Orbital Gradient       TolG            ....  1.000e-05
 Orbital Rotation angle TolX            ....  1.000e-05
 DIIS Error             TolErr          ....  5.000e-07


Diagonalization of the overlap matrix:
Smallest eigenvalue                        ... 3.136e-05
Time for diagonalization                   ...    0.028 sec
Threshold for overlap eigenvalues          ... 1.000e-08
Number of eigenvalues below threshold      ... 0
Time for construction of square roots      ...    0.058 sec
Total time needed                          ...    0.088 sec

Time for model grid setup =    0.208 sec

------------------------------
INITIAL GUESS: MODEL POTENTIAL
------------------------------
Loading Hartree-Fock densities                     ... done
Calculating cut-offs                               ... done
Initializing the effective Hamiltonian             ... done
Setting up the integral package (SHARK)            ... done
Starting the Coulomb interaction                   ... done (   0.1 sec)
Reading the grid                                   ... done
Mapping shells                                     ... done
Starting the XC term evaluation                    ... done (   0.2 sec)
  promolecular density results
     # of electrons  =    111.991479372
     EX              =   -103.633218418
     EC              =     -3.882219351
     EX+EC           =   -107.515437769
Transforming the Hamiltonian                       ... done (   0.0 sec)
Diagonalizing the Hamiltonian                      ... done (   0.0 sec)
Back transforming the eigenvectors                 ... done (   0.0 sec)
Now organizing SCF variables                       ... done
                      ------------------
                      INITIAL GUESS DONE (   0.6 sec)
                      ------------------
-------------------
DFT GRID GENERATION
-------------------

General Integration Accuracy     IntAcc      ... 4.388
Radial Grid Type                 RadialGrid  ... OptM3 with GC (2021)
Angular Grid (max. ang.)         AngularGrid ... 4 (Lebedev-302)
Angular grid pruning method      GridPruning ... 4 (adaptive)
Weight generation scheme         WeightScheme... Becke
Basis function cutoff            BFCut       ... 1.0000e-11
Integration weight cutoff        WCut        ... 1.0000e-14
Angular grids for H and He will be reduced by one unit
Partially contracted basis set               ... off
Rotationally invariant grid construction     ... off

Total number of grid points                  ...   133164
Total number of batches                      ...     2096
Average number of points per batch           ...       63
Average number of grid points per atom       ...     4592
Time for grid setup =    1.028 sec

--------------------
COSX GRID GENERATION
--------------------

GRIDX 1
-------
General Integration Accuracy     IntAcc      ... 3.816
Radial Grid Type                 RadialGrid  ... OptM3 with GC (2021)
Angular Grid (max. ang.)         AngularGrid ... 1 (Lebedev-50)
Angular grid pruning method      GridPruning ... 4 (adaptive)
Weight generation scheme         WeightScheme... Becke
Basis function cutoff            BFCut       ... 1.0000e-11
Integration weight cutoff        WCut        ... 1.0000e-14
Angular grids for H and He will be reduced by one unit
Partially contracted basis set               ... on
Rotationally invariant grid construction     ... off

Total number of grid points                  ...    16549
Total number of batches                      ...      277
Average number of points per batch           ...       59
Average number of grid points per atom       ...      571
UseSFitting                                  ... on

GRIDX 2
-------
General Integration Accuracy     IntAcc      ... 4.020
Radial Grid Type                 RadialGrid  ... OptM3 with GC (2021)
Angular Grid (max. ang.)         AngularGrid ... 2 (Lebedev-110)
Angular grid pruning method      GridPruning ... 4 (adaptive)
Weight generation scheme         WeightScheme... Becke
Basis function cutoff            BFCut       ... 1.0000e-11
Integration weight cutoff        WCut        ... 1.0000e-14
Angular grids for H and He will be reduced by one unit
Partially contracted basis set               ... on
Rotationally invariant grid construction     ... off

Total number of grid points                  ...    36920
Total number of batches                      ...      590
Average number of points per batch           ...       62
Average number of grid points per atom       ...     1273
UseSFitting                                  ... on

GRIDX 3
-------
General Integration Accuracy     IntAcc      ... 4.338
Radial Grid Type                 RadialGrid  ... OptM3 with GC (2021)
Angular Grid (max. ang.)         AngularGrid ... 3 (Lebedev-194)
Angular grid pruning method      GridPruning ... 4 (adaptive)
Weight generation scheme         WeightScheme... Becke
Basis function cutoff            BFCut       ... 1.0000e-11
Integration weight cutoff        WCut        ... 1.0000e-14
Angular grids for H and He will be reduced by one unit
Partially contracted basis set               ... on
Rotationally invariant grid construction     ... off

Total number of grid points                  ...    83213
Total number of batches                      ...     1315
Average number of points per batch           ...       63
Average number of grid points per atom       ...     2869
UseSFitting                                  ... on

Time for X-Grid setup             =    1.018 sec

--------------
SCF ITERATIONS
--------------
ITER       Energy         Delta-E        Max-DP      RMS-DP      [F,P]     Damp
               ***  Starting incremental Fock matrix formation  ***
  0  -1016.2998399567   0.000000000000 0.36826653  0.00344238  0.2631802 0.7000
  1  -1016.5485422288  -0.248702272096 0.33895226  0.00245714  0.1202772 0.7000
                               ***Turning on DIIS***
  2  -1016.6591055029  -0.110563274110 0.65850836  0.00476500  0.0615050 0.0000
  3  -1016.8401317432  -0.181026240370 0.23209824  0.00166095  0.0632125 0.0000
  4  -1016.8706513964  -0.030519653122 0.03130468  0.00036438  0.0133822 0.0000
  5  -1016.8717587352  -0.001107338796 0.01599121  0.00013073  0.0059782 0.0000
                      *** Initiating the SOSCF procedure ***
                           *** Shutting down DIIS ***
                      *** Re-Reading the Fockian *** 
                      *** Removing any level shift *** 
ITER      Energy       Delta-E        Grad      Rot      Max-DP    RMS-DP
  6  -1016.87189864  -0.0001399018  0.000550  0.000550  0.025075  0.000122
               *** Restarting incremental Fock matrix formation ***
  7  -1016.87201657  -0.0001179295  0.000133  0.000226  0.013506  0.000084
  8  -1016.87201825  -0.0000016828  0.000179  0.000307  0.004942  0.000028
  9  -1016.87202019  -0.0000019403  0.000033  0.000113  0.002560  0.000012
 10  -1016.87202026  -0.0000000655  0.000013  0.000037  0.000796  0.000005
 11  -1016.87202030  -0.0000000456  0.000004  0.000004  0.000245  0.000002
                  ***Gradient check signals convergence***
              ***Rediagonalizing the Fockian in SOSCF/NRSCF***

               *****************************************************
               *                     SUCCESS                       *
               *           SCF CONVERGED AFTER  12 CYCLES          *
               *****************************************************

Old exchange energy                            =    -32.699848737 Eh
New exchange energy                            =    -32.699883162 Eh
Exchange energy change after final integration =     -0.000034425 Eh
Total energy after final integration           =  -1016.872054735 Eh
Final COS-X integration done in                =     9.314 sec

----------------
TOTAL SCF ENERGY
----------------

Total Energy       :        -1016.87205474 Eh          -27670.49535 eV

Components:
Nuclear Repulsion  :         1087.71566574 Eh           29598.24801 eV
Electronic Energy  :        -2104.58772048 Eh          -57268.74336 eV
One Electron Energy:        -3552.93765159 Eh          -96680.34863 eV
Two Electron Energy:         1448.34993111 Eh           39411.60527 eV
Max COSX asymmetry :            0.00001263 Eh               0.00034 eV

Virial components:
Potential Energy   :        -2026.94483315 Eh          -55155.97299 eV
Kinetic Energy     :         1010.07277842 Eh           27485.47764 eV
Virial Ratio       :            2.00673147


DFT components:
N(Alpha)           :       56.000089275585 electrons
N(Beta)            :       56.000089275585 electrons
N(Total)           :      112.000178551169 electrons
E(XC)              :      -76.999926753542 Eh       
DFET-embed. en.    :        0.000000000000 Eh       

---------------
SCF CONVERGENCE
---------------

  Last Energy change         ...   -9.6204e-09  Tolerance :   1.0000e-08
  Last MAX-Density change    ...    4.4409e-15  Tolerance :   1.0000e-07
  Last RMS-Density change    ...    3.1260e-17  Tolerance :   5.0000e-09
  Last Orbital Gradient      ...    1.6121e-06  Tolerance :   1.0000e-05
  Last Orbital Rotation      ...    2.1938e-06  Tolerance :   1.0000e-05

             **** THE GBW FILE WAS UPDATED (new_SVPD_D5_wb97.gbw) ****
             **** DENSITY new_SVPD_D5_wb97.scfp WAS UPDATED ****
             **** ENERGY FILE WAS UPDATED (new_SVPD_D5_wb97.en.tmp) ****
             **** THE GBW FILE WAS UPDATED (new_SVPD_D5_wb97.gbw) ****
             **** DENSITY new_SVPD_D5_wb97.scfp WAS UPDATED ****
----------------
ORBITAL ENERGIES
----------------

  NO   OCC          E(Eh)            E(eV) 
   0   2.0000     -89.246836     -2428.5299 
   1   2.0000     -24.927160      -678.3025 
   2   2.0000     -19.272632      -524.4350 
   3   2.0000     -19.258287      -524.0446 
   4   2.0000     -14.427289      -392.5865 
   5   2.0000     -10.359396      -281.8935 
   6   2.0000     -10.329019      -281.0669 
   7   2.0000     -10.305537      -280.4279 
   8   2.0000     -10.297684      -280.2142 
   9   2.0000     -10.291724      -280.0521 
  10   2.0000     -10.290556      -280.0203 
  11   2.0000     -10.287965      -279.9498 
  12   2.0000     -10.198930      -277.5270 
  13   2.0000      -8.320179      -226.4036 
  14   2.0000      -6.284059      -170.9979 
  15   2.0000      -6.277560      -170.8211 
  16   2.0000      -6.275994      -170.7785 
  17   2.0000      -1.493568       -40.6421 
  18   2.0000      -1.239821       -33.7372 
  19   2.0000      -1.135711       -30.9043 
  20   2.0000      -1.036769       -28.2119 
  21   2.0000      -0.961275       -26.1576 
  22   2.0000      -0.915136       -24.9021 
  23   2.0000      -0.876855       -23.8604 
  24   2.0000      -0.840176       -22.8623 
  25   2.0000      -0.816992       -22.2315 
  26   2.0000      -0.790533       -21.5115 
  27   2.0000      -0.751083       -20.4380 
  28   2.0000      -0.713950       -19.4276 
  29   2.0000      -0.704482       -19.1699 
  30   2.0000      -0.686614       -18.6837 
  31   2.0000      -0.665155       -18.0998 
  32   2.0000      -0.650280       -17.6950 
  33   2.0000      -0.615859       -16.7584 
  34   2.0000      -0.605368       -16.4729 
  35   2.0000      -0.600830       -16.3494 
  36   2.0000      -0.584560       -15.9067 
  37   2.0000      -0.575286       -15.6543 
  38   2.0000      -0.560938       -15.2639 
  39   2.0000      -0.552380       -15.0310 
  40   2.0000      -0.534896       -14.5553 
  41   2.0000      -0.519317       -14.1313 
  42   2.0000      -0.505419       -13.7531 
  43   2.0000      -0.488281       -13.2868 
  44   2.0000      -0.487805       -13.2738 
  45   2.0000      -0.475566       -12.9408 
  46   2.0000      -0.468359       -12.7447 
  47   2.0000      -0.451980       -12.2990 
  48   2.0000      -0.447358       -12.1732 
  49   2.0000      -0.437717       -11.9109 
  50   2.0000      -0.429032       -11.6746 
  51   2.0000      -0.423248       -11.5172 
  52   2.0000      -0.417041       -11.3483 
  53   2.0000      -0.406290       -11.0557 
  54   2.0000      -0.401628       -10.9289 
  55   2.0000      -0.264202        -7.1893 
  56   0.0000       0.057098         1.5537 
  57   0.0000       0.080546         2.1918 
  58   0.0000       0.085481         2.3261 
  59   0.0000       0.091700         2.4953 
  60   0.0000       0.098956         2.6927 
  61   0.0000       0.109432         2.9778 
  62   0.0000       0.113173         3.0796 
  63   0.0000       0.119191         3.2433 
  64   0.0000       0.129043         3.5114 
  65   0.0000       0.133265         3.6263 
  66   0.0000       0.135003         3.6736 
  67   0.0000       0.143523         3.9055 
  68   0.0000       0.146793         3.9944 
  69   0.0000       0.159601         4.3430 
  70   0.0000       0.163981         4.4621 
  71   0.0000       0.170569         4.6414 
  72   0.0000       0.171548         4.6680 
  73   0.0000       0.177244         4.8231 
  74   0.0000       0.181551         4.9403 
  75   0.0000       0.187248         5.0953 
  76   0.0000       0.195511         5.3201 
  77   0.0000       0.206628         5.6226 
  78   0.0000       0.215780         5.8717 
  79   0.0000       0.217638         5.9222 
  80   0.0000       0.220539         6.0012 
  81   0.0000       0.225043         6.1237 
  82   0.0000       0.237473         6.4620 
  83   0.0000       0.238823         6.4987 
  84   0.0000       0.241179         6.5628 
  85   0.0000       0.252619         6.8741 
  86   0.0000       0.256615         6.9829 
  87   0.0000       0.258847         7.0436 
  88   0.0000       0.266274         7.2457 
  89   0.0000       0.269234         7.3262 
  90   0.0000       0.270214         7.3529 
  91   0.0000       0.281749         7.6668 
  92   0.0000       0.282621         7.6905 
  93   0.0000       0.289323         7.8729 
  94   0.0000       0.297399         8.0926 
  95   0.0000       0.301413         8.2019 
  96   0.0000       0.305601         8.3158 
  97   0.0000       0.310944         8.4612 
  98   0.0000       0.316203         8.6043 
  99   0.0000       0.321537         8.7495 
 100   0.0000       0.323185         8.7943 
 101   0.0000       0.331985         9.0338 
 102   0.0000       0.334733         9.1085 
 103   0.0000       0.336472         9.1559 
 104   0.0000       0.342744         9.3265 
 105   0.0000       0.350264         9.5312 
 106   0.0000       0.356594         9.7034 
 107   0.0000       0.362964         9.8767 
 108   0.0000       0.368406        10.0248 
 109   0.0000       0.374572        10.1926 
 110   0.0000       0.377873        10.2824 
 111   0.0000       0.381137        10.3713 
 112   0.0000       0.390145        10.6164 
 113   0.0000       0.394475        10.7342 
 114   0.0000       0.399343        10.8667 
 115   0.0000       0.400615        10.9013 
 116   0.0000       0.406114        11.0509 
 117   0.0000       0.410246        11.1634 
 118   0.0000       0.415994        11.3198 
 119   0.0000       0.419113        11.4046 
 120   0.0000       0.426121        11.5954 
 121   0.0000       0.431481        11.7412 
 122   0.0000       0.432599        11.7716 
 123   0.0000       0.436988        11.8910 
 124   0.0000       0.441643        12.0177 
 125   0.0000       0.443781        12.0759 
 126   0.0000       0.453878        12.3507 
 127   0.0000       0.457145        12.4395 
 128   0.0000       0.457914        12.4605 
 129   0.0000       0.462829        12.5942 
 130   0.0000       0.465530        12.6677 
 131   0.0000       0.472156        12.8480 
 132   0.0000       0.473665        12.8891 
 133   0.0000       0.478482        13.0202 
 134   0.0000       0.488898        13.3036 
 135   0.0000       0.489841        13.3293 
 136   0.0000       0.497252        13.5309 
 137   0.0000       0.500689        13.6244 
 138   0.0000       0.504915        13.7394 
 139   0.0000       0.512665        13.9503 
 140   0.0000       0.515618        14.0307 
 141   0.0000       0.517326        14.0771 
 142   0.0000       0.523959        14.2577 
 143   0.0000       0.529057        14.3964 
 144   0.0000       0.531400        14.4601 
 145   0.0000       0.537143        14.6164 
 146   0.0000       0.543442        14.7878 
 147   0.0000       0.550174        14.9710 
 148   0.0000       0.552568        15.0361 
 149   0.0000       0.554688        15.0938 
 150   0.0000       0.560365        15.2483 
 151   0.0000       0.567312        15.4374 
 152   0.0000       0.570551        15.5255 
 153   0.0000       0.575399        15.6574 
 154   0.0000       0.579546        15.7702 
 155   0.0000       0.583118        15.8674 
 156   0.0000       0.588418        16.0117 
 157   0.0000       0.594119        16.1668 
 158   0.0000       0.597706        16.2644 
 159   0.0000       0.601279        16.3616 
 160   0.0000       0.608841        16.5674 
 161   0.0000       0.617988        16.8163 
 162   0.0000       0.619161        16.8482 
 163   0.0000       0.621997        16.9254 
 164   0.0000       0.628670        17.1070 
 165   0.0000       0.633630        17.2419 
 166   0.0000       0.634393        17.2627 
 167   0.0000       0.639153        17.3922 
 168   0.0000       0.649590        17.6762 
 169   0.0000       0.649684        17.6788 
 170   0.0000       0.653926        17.7942 
 171   0.0000       0.656915        17.8756 
 172   0.0000       0.667512        18.1639 
 173   0.0000       0.672256        18.2930 
 174   0.0000       0.673181        18.3182 
 175   0.0000       0.678829        18.4719 
 176   0.0000       0.684574        18.6282 
 177   0.0000       0.686245        18.6737 
 178   0.0000       0.698192        18.9988 
 179   0.0000       0.703299        19.1378 
 180   0.0000       0.705550        19.1990 
 181   0.0000       0.708820        19.2880 
 182   0.0000       0.718854        19.5610 
 183   0.0000       0.724820        19.7233 
 184   0.0000       0.727334        19.7918 
 185   0.0000       0.733260        19.9530 
 186   0.0000       0.739031        20.1101 
 187   0.0000       0.739756        20.1298 
 188   0.0000       0.748939        20.3797 
 189   0.0000       0.754860        20.5408 
 190   0.0000       0.761170        20.7125 
 191   0.0000       0.769273        20.9330 
 192   0.0000       0.773822        21.0568 
 193   0.0000       0.778042        21.1716 
 194   0.0000       0.784568        21.3492 
 195   0.0000       0.792032        21.5523 
 196   0.0000       0.799311        21.7504 
 197   0.0000       0.807794        21.9812 
 198   0.0000       0.812108        22.0986 
 199   0.0000       0.815394        22.1880 
 200   0.0000       0.825282        22.4571 
 201   0.0000       0.827922        22.5289 
 202   0.0000       0.833853        22.6903 
 203   0.0000       0.846559        23.0360 
 204   0.0000       0.851387        23.1674 
 205   0.0000       0.865071        23.5398 
 206   0.0000       0.877057        23.8659 
 207   0.0000       0.882056        24.0020 
 208   0.0000       0.894066        24.3288 
 209   0.0000       0.896873        24.4051 
 210   0.0000       0.901156        24.5217 
 211   0.0000       0.911146        24.7935 
 212   0.0000       0.921140        25.0655 
 213   0.0000       0.927901        25.2495 
 214   0.0000       0.936084        25.4721 
 215   0.0000       0.941877        25.6298 
 216   0.0000       0.963617        26.2214 
 217   0.0000       0.982096        26.7242 
 218   0.0000       0.989278        26.9196 
 219   0.0000       0.992952        27.0196 
 220   0.0000       0.999257        27.1912 
 221   0.0000       1.027251        27.9529 
 222   0.0000       1.030808        28.0497 
 223   0.0000       1.042652        28.3720 
 224   0.0000       1.057642        28.7799 
 225   0.0000       1.071413        29.1546 
 226   0.0000       1.081562        29.4308 
 227   0.0000       1.090529        29.6748 
 228   0.0000       1.100089        29.9349 
 229   0.0000       1.106488        30.1091 
 230   0.0000       1.115290        30.3486 
 231   0.0000       1.117617        30.4119 
 232   0.0000       1.126855        30.6633 
 233   0.0000       1.129624        30.7386 
 234   0.0000       1.141364        31.0581 
 235   0.0000       1.149583        31.2817 
 236   0.0000       1.155281        31.4368 
 237   0.0000       1.167146        31.7597 
 238   0.0000       1.170274        31.8448 
 239   0.0000       1.180587        32.1254 
 240   0.0000       1.184475        32.2312 
 241   0.0000       1.202676        32.7265 
 242   0.0000       1.214268        33.0419 
 243   0.0000       1.215887        33.0860 
 244   0.0000       1.223651        33.2972 
 245   0.0000       1.230094        33.4726 
 246   0.0000       1.237808        33.6825 
 247   0.0000       1.250710        34.0336 
 248   0.0000       1.261344        34.3229 
 249   0.0000       1.272142        34.6167 
 250   0.0000       1.273106        34.6430 
 251   0.0000       1.286602        35.0102 
 252   0.0000       1.297016        35.2936 
 253   0.0000       1.304597        35.4999 
 254   0.0000       1.307626        35.5823 
 255   0.0000       1.316645        35.8277 
 256   0.0000       1.331046        36.2196 
 257   0.0000       1.354000        36.8442 
 258   0.0000       1.359973        37.0067 
 259   0.0000       1.369305        37.2607 
 260   0.0000       1.371837        37.3296 
 261   0.0000       1.401087        38.1255 
 262   0.0000       1.409505        38.3546 
 263   0.0000       1.419015        38.6134 
 264   0.0000       1.428965        38.8841 
 265   0.0000       1.443887        39.2902 
 266   0.0000       1.451218        39.4896 
 267   0.0000       1.463537        39.8249 
 268   0.0000       1.484932        40.4071 
 269   0.0000       1.494048        40.6551 
 270   0.0000       1.499467        40.8026 
 271   0.0000       1.524114        41.4733 
 272   0.0000       1.552274        42.2395 
 273   0.0000       1.567589        42.6563 
 274   0.0000       1.576375        42.8953 
 275   0.0000       1.592910        43.3453 
 276   0.0000       1.606116        43.7046 
 277   0.0000       1.628527        44.3145 
 278   0.0000       1.639067        44.6013 
 279   0.0000       1.643315        44.7169 
 280   0.0000       1.661127        45.2016 
 281   0.0000       1.676449        45.6185 
 282   0.0000       1.697731        46.1976 
 283   0.0000       1.722634        46.8753 
 284   0.0000       1.746156        47.5153 
 285   0.0000       1.755592        47.7721 
 286   0.0000       1.786730        48.6194 
 287   0.0000       1.797653        48.9166 
 288   0.0000       1.803569        49.0776 
 289   0.0000       1.819866        49.5211 
 290   0.0000       1.827851        49.7384 
 291   0.0000       1.846651        50.2499 
 292   0.0000       1.848604        50.3031 
 293   0.0000       1.858770        50.5797 
 294   0.0000       1.882294        51.2198 
 295   0.0000       1.892186        51.4890 
 296   0.0000       1.893256        51.5181 
 297   0.0000       1.907303        51.9004 
 298   0.0000       1.921844        52.2960 
 299   0.0000       1.931858        52.5685 
 300   0.0000       1.954358        53.1808 
 301   0.0000       1.962038        53.3898 
 302   0.0000       1.976506        53.7835 
 303   0.0000       1.984910        54.0121 
 304   0.0000       2.000837        54.4455 
 305   0.0000       2.011337        54.7313 
 306   0.0000       2.021948        55.0200 
 307   0.0000       2.028077        55.1868 
 308   0.0000       2.034288        55.3558 
 309   0.0000       2.039534        55.4986 
 310   0.0000       2.048297        55.7370 
 311   0.0000       2.062117        56.1131 
 312   0.0000       2.087411        56.8014 
 313   0.0000       2.100559        57.1591 
 314   0.0000       2.107370        57.3445 
 315   0.0000       2.115602        57.5685 
 316   0.0000       2.126251        57.8582 
 317   0.0000       2.128829        57.9284 
 318   0.0000       2.142931        58.3121 
 319   0.0000       2.143462        58.3266 
 320   0.0000       2.160210        58.7823 
 321   0.0000       2.174872        59.1813 
 322   0.0000       2.181210        59.3537 
 323   0.0000       2.201762        59.9130 
 324   0.0000       2.204846        59.9969 
 325   0.0000       2.216961        60.3266 
 326   0.0000       2.222465        60.4763 
 327   0.0000       2.248887        61.1953 
 328   0.0000       2.257538        61.4307 
 329   0.0000       2.262270        61.5595 
 330   0.0000       2.277159        61.9646 
 331   0.0000       2.297176        62.5093 
 332   0.0000       2.313298        62.9480 
 333   0.0000       2.335735        63.5586 
 334   0.0000       2.340552        63.6897 
 335   0.0000       2.356068        64.1119 
 336   0.0000       2.373824        64.5950 
 337   0.0000       2.393683        65.1354 
 338   0.0000       2.407206        65.5034 
 339   0.0000       2.416959        65.7688 
 340   0.0000       2.436249        66.2937 
 341   0.0000       2.458257        66.8926 
 342   0.0000       2.462546        67.0093 
 343   0.0000       2.484737        67.6131 
 344   0.0000       2.499691        68.0201 
 345   0.0000       2.512579        68.3708 
 346   0.0000       2.536304        69.0163 
 347   0.0000       2.554706        69.5171 
 348   0.0000       2.571028        69.9612 
 349   0.0000       2.592428        70.5436 
 350   0.0000       2.594318        70.5950 
 351   0.0000       2.603908        70.8559 
 352   0.0000       2.618362        71.2493 
 353   0.0000       2.628842        71.5344 
 354   0.0000       2.639444        71.8229 
 355   0.0000       2.674497        72.7768 
 356   0.0000       2.695709        73.3540 
 357   0.0000       2.723198        74.1020 
 358   0.0000       2.745776        74.7164 
 359   0.0000       2.755898        74.9918 
 360   0.0000       2.773077        75.4593 
 361   0.0000       2.795353        76.0654 
 362   0.0000       2.802286        76.2541 
 363   0.0000       2.833114        77.0929 
 364   0.0000       2.860827        77.8471 
 365   0.0000       2.871775        78.1450 
 366   0.0000       2.883096        78.4530 
 367   0.0000       2.907869        79.1271 
 368   0.0000       2.947357        80.2017 
 369   0.0000       2.960650        80.5634 
 370   0.0000       2.977348        81.0178 
 371   0.0000       2.991890        81.4135 
 372   0.0000       3.001020        81.6619 
 373   0.0000       3.024396        82.2980 
 374   0.0000       3.046176        82.8907 
 375   0.0000       3.066489        83.4434 
 376   0.0000       3.088414        84.0400 
 377   0.0000       3.099509        84.3419 
 378   0.0000       3.121246        84.9334 
 379   0.0000       3.139672        85.4348 
 380   0.0000       3.155112        85.8550 
 381   0.0000       3.180915        86.5571 
 382   0.0000       3.213307        87.4385 
 383   0.0000       3.238759        88.1311 
 384   0.0000       3.242534        88.2338 
 385   0.0000       3.265992        88.8722 
 386   0.0000       3.277295        89.1797 
 387   0.0000       3.293731        89.6270 
 388   0.0000       3.302404        89.8630 
 389   0.0000       3.321712        90.3884 
 390   0.0000       3.366598        91.6098 
 391   0.0000       3.388212        92.1979 
 392   0.0000       3.400827        92.5412 
 393   0.0000       3.415189        92.9320 
 394   0.0000       3.430000        93.3350 
 395   0.0000       3.443769        93.7097 
 396   0.0000       3.468969        94.3954 
 397   0.0000       3.494329        95.0855 
 398   0.0000       3.505584        95.3918 
 399   0.0000       3.543483        96.4231 
 400   0.0000       3.669945        99.8643 
 401   0.0000       3.724664       101.3532 
 402   0.0000       3.846951       104.6809 
 403   0.0000       3.878970       105.5521 

                    ********************************
                    * MULLIKEN POPULATION ANALYSIS *
                    ********************************

-----------------------
MULLIKEN ATOMIC CHARGES
-----------------------
   0 C :    0.530476
   1 C :    0.448994
   2 C :    0.070181
   3 H :    0.159994
   4 H :   -0.138387
   5 S :    1.470648
   6 C :   -0.509250
   7 C :    0.642415
   8 N :    0.297947
   9 H :    0.005661
  10 H :   -0.210497
  11 H :   -0.026967
  12 H :   -0.548844
  13 O :   -0.736711
  14 O :   -0.653663
  15 C :    0.325342
  16 C :    0.228725
  17 H :    0.020490
  18 H :   -0.014253
  19 C :   -0.046158
  20 H :    0.012583
  21 H :   -0.113973
  22 F :   -0.487851
  23 H :   -0.032162
  24 H :   -0.153373
  25 H :   -0.363038
  26 H :   -0.077425
  27 H :    0.082958
  28 H :   -0.183862
Sum of atomic charges:   -0.0000000

--------------------------------
MULLIKEN REDUCED ORBITAL CHARGES
--------------------------------
  0 C s       :     2.521842  s :     2.521842
      pz      :     0.998463  p :     2.747875
      px      :     0.769703
      py      :     0.979709
      dz2     :     0.012967  d :     0.199808
      dxz     :    -0.002160
      dyz     :     0.111513
      dx2y2   :    -0.003656
      dxy     :     0.081144
  1 C s       :     2.553188  s :     2.553188
      pz      :     0.915967  p :     2.729534
      px      :     0.934267
      py      :     0.879300
      dz2     :     0.178155  d :     0.268284
      dxz     :     0.014296
      dyz     :     0.010444
      dx2y2   :     0.071720
      dxy     :    -0.006331
  2 C s       :     2.772171  s :     2.772171
      pz      :     0.994450  p :     2.900077
      px      :     1.044266
      py      :     0.861361
      dz2     :     0.041607  d :     0.257570
      dxz     :     0.076270
      dyz     :     0.044262
      dx2y2   :     0.062880
      dxy     :     0.032551
  3 H s       :     0.817934  s :     0.817934
      pz      :    -0.013023  p :     0.022072
      px      :     0.000899
      py      :     0.034196
  4 H s       :     1.108829  s :     1.108829
      pz      :     0.022189  p :     0.029558
      px      :    -0.005724
      py      :     0.013093
  5 S s       :     5.049183  s :     5.049183
      pz      :     2.962102  p :     8.736070
      px      :     2.792029
      py      :     2.981939
      dz2     :     0.100482  d :     0.744099
      dxz     :     0.195162
      dyz     :     0.187955
      dx2y2   :     0.087715
      dxy     :     0.172786
  6 C s       :     3.034513  s :     3.034513
      pz      :     0.875699  p :     2.717006
      px      :     0.960717
      py      :     0.880591
      dz2     :     0.108591  d :     0.757731
      dxz     :     0.376305
      dyz     :     0.040260
      dx2y2   :     0.178696
      dxy     :     0.053879
  7 C s       :     2.540981  s :     2.540981
      pz      :     0.641071  p :     2.655084
      px      :     1.097819
      py      :     0.916194
      dz2     :    -0.008488  d :     0.161520
      dxz     :     0.096236
      dyz     :    -0.008236
      dx2y2   :     0.024417
      dxy     :     0.057591
  8 N s       :     2.973084  s :     2.973084
      pz      :     1.060277  p :     3.684475
      px      :     1.098967
      py      :     1.525231
      dz2     :    -0.009165  d :     0.044494
      dxz     :     0.009582
      dyz     :     0.013981
      dx2y2   :     0.002596
      dxy     :     0.027500
  9 H s       :     0.994232  s :     0.994232
      pz      :    -0.036778  p :     0.000106
      px      :    -0.015321
      py      :     0.052206
 10 H s       :     1.163007  s :     1.163007
      pz      :     0.059696  p :     0.047491
      px      :    -0.050345
      py      :     0.038139
 11 H s       :     1.048927  s :     1.048927
      pz      :    -0.035708  p :    -0.021961
      px      :    -0.008893
      py      :     0.022640
 12 H s       :     1.448336  s :     1.448336
      pz      :     0.121538  p :     0.100508
      px      :    -0.011927
      py      :    -0.009103
 13 O s       :     3.909230  s :     3.909230
      pz      :     1.779574  p :     4.793542
      px      :     1.281018
      py      :     1.732950
      dz2     :    -0.002610  d :     0.033939
      dxz     :     0.021516
      dyz     :     0.007813
      dx2y2   :     0.009857
      dxy     :    -0.002637
 14 O s       :     3.895292  s :     3.895292
      pz      :     1.228489  p :     4.730144
      px      :     1.759765
      py      :     1.741890
      dz2     :     0.001062  d :     0.028227
      dxz     :     0.010487
      dyz     :     0.012254
      dx2y2   :     0.002927
      dxy     :     0.001498
 15 C s       :     2.623519  s :     2.623519
      pz      :     0.958740  p :     2.667538
      px      :     0.764544
      py      :     0.944254
      dz2     :     0.107730  d :     0.383602
      dxz     :     0.064759
      dyz     :     0.091378
      dx2y2   :     0.059407
      dxy     :     0.060327
 16 C s       :     2.517863  s :     2.517863
      pz      :     0.822331  p :     2.777811
      px      :     1.005291
      py      :     0.950188
      dz2     :     0.051306  d :     0.475602
      dxz     :     0.208814
      dyz     :     0.043728
      dx2y2   :     0.082597
      dxy     :     0.089157
 17 H s       :     0.989533  s :     0.989533
      pz      :    -0.007840  p :    -0.010023
      px      :     0.041958
      py      :    -0.044142
 18 H s       :     1.026249  s :     1.026249
      pz      :    -0.010970  p :    -0.011997
      px      :    -0.028471
      py      :     0.027445
 19 C s       :     2.747768  s :     2.747768
      pz      :     0.978469  p :     2.784300
      px      :     0.968201
      py      :     0.837631
      dz2     :     0.142328  d :     0.514089
      dxz     :     0.222187
      dyz     :     0.011495
      dx2y2   :     0.118135
      dxy     :     0.019945
 20 H s       :     1.017452  s :     1.017452
      pz      :    -0.016815  p :    -0.030036
      px      :    -0.005157
      py      :    -0.008063
 21 H s       :     1.105672  s :     1.105672
      pz      :     0.028117  p :     0.008301
      px      :    -0.006271
      py      :    -0.013546
 22 F s       :     3.956642  s :     3.956642
      pz      :     1.929005  p :     5.506917
      px      :     1.789448
      py      :     1.788465
      dz2     :     0.000088  d :     0.024292
      dxz     :     0.006044
      dyz     :     0.006269
      dx2y2   :     0.004543
      dxy     :     0.007348
 23 H s       :     0.940952  s :     0.940952
      pz      :     0.053095  p :     0.091210
      px      :     0.054516
      py      :    -0.016402
 24 H s       :     1.131615  s :     1.131615
      pz      :    -0.020340  p :     0.021758
      px      :    -0.015012
      py      :     0.057110
 25 H s       :     1.207336  s :     1.207336
      pz      :     0.006803  p :     0.155702
      px      :    -0.001066
      py      :     0.149965
 26 H s       :     1.065732  s :     1.065732
      pz      :     0.015937  p :     0.011693
      px      :     0.027626
      py      :    -0.031870
 27 H s       :     0.897838  s :     0.897838
      pz      :     0.007223  p :     0.019204
      px      :     0.019231
      py      :    -0.007249
 28 H s       :     1.170130  s :     1.170130
      pz      :     0.012916  p :     0.013732
      px      :     0.009933
      py      :    -0.009117


                     *******************************
                     * LOEWDIN POPULATION ANALYSIS *
                     *******************************

----------------------
LOEWDIN ATOMIC CHARGES
----------------------
   0 C :    0.024227
   1 C :   -0.034078
   2 C :   -0.021164
   3 H :    0.031078
   4 H :    0.020358
   5 S :    1.164540
   6 C :   -0.251242
   7 C :    0.176489
   8 N :    0.177167
   9 H :    0.001276
  10 H :   -0.043665
  11 H :   -0.070208
  12 H :   -0.127935
  13 O :   -0.472244
  14 O :   -0.448300
  15 C :   -0.010118
  16 C :   -0.020618
  17 H :    0.027928
  18 H :    0.037143
  19 C :   -0.020477
  20 H :    0.021682
  21 H :    0.017180
  22 F :   -0.263652
  23 H :   -0.001009
  24 H :    0.028018
  25 H :   -0.015517
  26 H :    0.034535
  27 H :    0.009937
  28 H :    0.028669

-------------------------------
LOEWDIN REDUCED ORBITAL CHARGES
-------------------------------
  0 C s       :     2.679339  s :     2.679339
      pz      :     0.895891  p :     2.681772
      px      :     0.898083
      py      :     0.887797
      dz2     :     0.113956  d :     0.614662
      dxz     :     0.104096
      dyz     :     0.153934
      dx2y2   :     0.101984
      dxy     :     0.140693
  1 C s       :     2.674164  s :     2.674164
      pz      :     0.888272  p :     2.700024
      px      :     0.893827
      py      :     0.917925
      dz2     :     0.185298  d :     0.659890
      dxz     :     0.159141
      dyz     :     0.121074
      dx2y2   :     0.125908
      dxy     :     0.068470
  2 C s       :     2.708514  s :     2.708514
      pz      :     0.937077  p :     2.717551
      px      :     0.958063
      py      :     0.822410
      dz2     :     0.126450  d :     0.595099
      dxz     :     0.111205
      dyz     :     0.125382
      dx2y2   :     0.109456
      dxy     :     0.122606
  3 H s       :     0.702561  s :     0.702561
      pz      :     0.077628  p :     0.266361
      px      :     0.109767
      py      :     0.078967
  4 H s       :     0.714137  s :     0.714137
      pz      :     0.107704  p :     0.265506
      px      :     0.079111
      py      :     0.078690
  5 S s       :     4.655193  s :     4.655193
      pz      :     2.825398  p :     8.370917
      px      :     2.768468
      py      :     2.777050
      dz2     :     0.422427  d :     1.809350
      dxz     :     0.391169
      dyz     :     0.351850
      dx2y2   :     0.287437
      dxy     :     0.356468
  6 C s       :     2.651504  s :     2.651504
      pz      :     0.867196  p :     2.556199
      px      :     0.917153
      py      :     0.771850
      dz2     :     0.222615  d :     1.043539
      dxz     :     0.250064
      dyz     :     0.150914
      dx2y2   :     0.230546
      dxy     :     0.189401
  7 C s       :     2.718376  s :     2.718376
      pz      :     0.924194  p :     2.737577
      px      :     0.925772
      py      :     0.887610
      dz2     :     0.075200  d :     0.367558
      dxz     :     0.108200
      dyz     :     0.045948
      dx2y2   :     0.060895
      dxy     :     0.077316
  8 N s       :     2.912527  s :     2.912527
      pz      :     1.076317  p :     3.501422
      px      :     1.097648
      py      :     1.327457
      dz2     :     0.123913  d :     0.408884
      dxz     :     0.065013
      dyz     :     0.066434
      dx2y2   :     0.087938
      dxy     :     0.065587
  9 H s       :     0.651117  s :     0.651117
      pz      :     0.084353  p :     0.347608
      px      :     0.145431
      py      :     0.117824
 10 H s       :     0.623125  s :     0.623125
      pz      :     0.176043  p :     0.420539
      px      :     0.100935
      py      :     0.143562
 11 H s       :     0.757927  s :     0.757927
      pz      :     0.102186  p :     0.312280
      px      :     0.091960
      py      :     0.118134
 12 H s       :     0.723663  s :     0.723663
      pz      :     0.188864  p :     0.404272
      px      :     0.111180
      py      :     0.104228
 13 O s       :     3.519146  s :     3.519146
      pz      :     1.610026  p :     4.633242
      px      :     1.398644
      py      :     1.624572
      dz2     :     0.056493  d :     0.319857
      dxz     :     0.095830
      dyz     :     0.033875
      dx2y2   :     0.065114
      dxy     :     0.068545
 14 O s       :     3.556664  s :     3.556664
      pz      :     1.422297  p :     4.650111
      px      :     1.624631
      py      :     1.603183
      dz2     :     0.090951  d :     0.241525
      dxz     :     0.067488
      dyz     :     0.066490
      dx2y2   :     0.007092
      dxy     :     0.009503
 15 C s       :     2.683180  s :     2.683180
      pz      :     0.894257  p :     2.677847
      px      :     0.907001
      py      :     0.876589
      dz2     :     0.119024  d :     0.649091
      dxz     :     0.121854
      dyz     :     0.147051
      dx2y2   :     0.135664
      dxy     :     0.125498
 16 C s       :     2.670446  s :     2.670446
      pz      :     0.876244  p :     2.683484
      px      :     0.905640
      py      :     0.901599
      dz2     :     0.130111  d :     0.666688
      dxz     :     0.186637
      dyz     :     0.103870
      dx2y2   :     0.157722
      dxy     :     0.088348
 17 H s       :     0.721045  s :     0.721045
      pz      :     0.068310  p :     0.251027
      px      :     0.104569
      py      :     0.078148
 18 H s       :     0.717931  s :     0.717931
      pz      :     0.063758  p :     0.244926
      px      :     0.064539
      py      :     0.116628
 19 C s       :     2.672589  s :     2.672589
      pz      :     0.891589  p :     2.678018
      px      :     0.894384
      py      :     0.892045
      dz2     :     0.142547  d :     0.669871
      dxz     :     0.186213
      dyz     :     0.095116
      dx2y2   :     0.158380
      dxy     :     0.087615
 20 H s       :     0.724552  s :     0.724552
      pz      :     0.069532  p :     0.253766
      px      :     0.116270
      py      :     0.067964
 21 H s       :     0.732169  s :     0.732169
      pz      :     0.090730  p :     0.250651
      px      :     0.096049
      py      :     0.063872
 22 F s       :     3.687645  s :     3.687645
      pz      :     1.831515  p :     5.327162
      px      :     1.748358
      py      :     1.747289
      dz2     :     0.041840  d :     0.248845
      dxz     :     0.040662
      dyz     :     0.037801
      dx2y2   :     0.065145
      dxy     :     0.063397
 23 H s       :     0.695578  s :     0.695578
      pz      :     0.113166  p :     0.305431
      px      :     0.101844
      py      :     0.090421
 24 H s       :     0.728434  s :     0.728434
      pz      :     0.065762  p :     0.243547
      px      :     0.061539
      py      :     0.116247
 25 H s       :     0.707500  s :     0.707500
      pz      :     0.086646  p :     0.308017
      px      :     0.075993
      py      :     0.145378
 26 H s       :     0.725185  s :     0.725185
      pz      :     0.086362  p :     0.240280
      px      :     0.089330
      py      :     0.064588
 27 H s       :     0.729110  s :     0.729110
      pz      :     0.071586  p :     0.260953
      px      :     0.116221
      py      :     0.073146
 28 H s       :     0.723941  s :     0.723941
      pz      :     0.090230  p :     0.247391
      px      :     0.089036
      py      :     0.068125


                      *****************************
                      * MAYER POPULATION ANALYSIS *
                      *****************************

  NA   - Mulliken gross atomic population
  ZA   - Total nuclear charge
  QA   - Mulliken gross atomic charge
  VA   - Mayer's total valence
  BVA  - Mayer's bonded valence
  FA   - Mayer's free valence

  ATOM       NA         ZA         QA         VA         BVA        FA
  0 C      5.4695     6.0000     0.5305     4.1120     4.1120     0.0000
  1 C      5.5510     6.0000     0.4490     4.2180     4.2180     0.0000
  2 C      5.9298     6.0000     0.0702     4.4789     4.4789    -0.0000
  3 H      0.8400     1.0000     0.1600     1.0156     1.0156    -0.0000
  4 H      1.1384     1.0000    -0.1384     1.1583     1.1583    -0.0000
  5 S     14.5294    16.0000     1.4706     4.7193     4.7193    -0.0000
  6 C      6.5092     6.0000    -0.5092     5.4972     5.4972    -0.0000
  7 C      5.3576     6.0000     0.6424     3.6872     3.6872    -0.0000
  8 N      6.7021     7.0000     0.2979     3.4900     3.4900    -0.0000
  9 H      0.9943     1.0000     0.0057     0.8575     0.8575     0.0000
 10 H      1.2105     1.0000    -0.2105     0.9979     0.9979    -0.0000
 11 H      1.0270     1.0000    -0.0270     0.9482     0.9482    -0.0000
 12 H      1.5488     1.0000    -0.5488     1.0882     1.0882    -0.0000
 13 O      8.7367     8.0000    -0.7367     1.9740     1.9740     0.0000
 14 O      8.6537     8.0000    -0.6537     1.6758     1.6758     0.0000
 15 C      5.6747     6.0000     0.3253     4.4857     4.4857     0.0000
 16 C      5.7713     6.0000     0.2287     4.7369     4.7369     0.0000
 17 H      0.9795     1.0000     0.0205     0.9775     0.9775    -0.0000
 18 H      1.0143     1.0000    -0.0143     0.9797     0.9797     0.0000
 19 C      6.0462     6.0000    -0.0462     5.0098     5.0098     0.0000
 20 H      0.9874     1.0000     0.0126     0.8995     0.8995     0.0000
 21 H      1.1140     1.0000    -0.1140     1.0261     1.0261    -0.0000
 22 F      9.4879     9.0000    -0.4879     0.8710     0.8710     0.0000
 23 H      1.0322     1.0000    -0.0322     1.2704     1.2704    -0.0000
 24 H      1.1534     1.0000    -0.1534     1.1285     1.1285    -0.0000
 25 H      1.3630     1.0000    -0.3630     1.3002     1.3002     0.0000
 26 H      1.0774     1.0000    -0.0774     1.0627     1.0627    -0.0000
 27 H      0.9170     1.0000     0.0830     0.9817     0.9817     0.0000
 28 H      1.1839     1.0000    -0.1839     1.0418     1.0418     0.0000

  Mayer bond orders larger than 0.100000
B(  0-C ,  6-C ) :   1.2468 B(  0-C , 15-C ) :   1.1241 B(  0-C , 21-H ) :   0.1843 
B(  0-C , 27-H ) :   0.6172 B(  0-C , 28-H ) :   0.7453 B(  1-C ,  2-C ) :   1.2163 
B(  1-C ,  4-H ) :   0.2025 B(  1-C , 16-C ) :   1.2291 B(  1-C , 17-H ) :   0.6968 
B(  1-C , 18-H ) :   0.7479 B(  2-C ,  3-H ) :   0.8801 B(  2-C ,  4-H ) :   0.9241 
B(  2-C ,  5-S ) :   0.9976 B(  2-C , 17-H ) :   0.1035 B(  2-C , 18-H ) :   0.1505 
B(  5-S , 13-O ) :   1.4231 B(  5-S , 14-O ) :   1.5753 B(  5-S , 22-F ) :   0.6097 
B(  6-C ,  7-C ) :   2.2345 B(  6-C ,  8-N ) :   0.9449 B(  6-C , 11-H ) :   0.1255 
B(  6-C , 12-H ) :   0.3562 B(  6-C , 27-H ) :   0.2564 B(  6-C , 28-H ) :   0.2378 
B(  7-C ,  8-N ) :   0.3287 B(  7-C , 11-H ) :   0.5875 B(  7-C , 12-H ) :   0.4620 
B(  8-N ,  9-H ) :   0.9046 B(  8-N , 10-H ) :   0.9537 B(  8-N , 11-H ) :   0.1543 
B(  9-H , 10-H ) :  -0.1401 B( 10-H , 13-O ) :   0.1071 B( 12-H , 13-O ) :   0.2576 
B( 15-C , 19-C ) :   1.2334 B( 15-C , 20-H ) :   0.7047 B( 15-C , 21-H ) :   0.8393 
B( 15-C , 23-H ) :   0.1546 B( 15-C , 27-H ) :   0.1301 B( 16-C , 17-H ) :   0.2542 
B( 16-C , 18-H ) :   0.1034 B( 16-C , 19-C ) :   1.2252 B( 16-C , 23-H ) :   0.1386 
B( 16-C , 24-H ) :   0.1705 B( 16-C , 25-H ) :   0.8845 B( 16-C , 26-H ) :   0.7337 
B( 19-C , 20-H ) :   0.2583 B( 19-C , 21-H ) :   0.1792 B( 19-C , 23-H ) :   0.8685 
B( 19-C , 24-H ) :   0.8375 B( 19-C , 25-H ) :   0.1528 B( 19-C , 26-H ) :   0.2132 
B( 20-H , 21-H ) :  -0.1221 

-------
TIMINGS
-------

Total SCF time: 0 days 0 hours 1 min 12 sec 

Total time                  ....      72.089 sec
Sum of individual times     ....      71.419 sec  ( 99.1%)

Fock matrix formation       ....      67.905 sec  ( 94.2%)
  Split-RI-J                ....       3.884 sec  (  5.7% of F)
  Chain of spheres X        ....      57.957 sec  ( 85.4% of F)
  XC integration            ....       5.877 sec  (  8.7% of F)
    Basis function eval.    ....       1.103 sec  ( 18.8% of XC)
    Density eval.           ....       1.347 sec  ( 22.9% of XC)
    XC-Functional eval.     ....       0.160 sec  (  2.7% of XC)
    XC-Potential eval.      ....       1.408 sec  ( 24.0% of XC)
Diagonalization             ....       0.350 sec  (  0.5%)
Density matrix formation    ....       0.028 sec  (  0.0%)
Population analysis         ....       0.047 sec  (  0.1%)
Initial guess               ....       0.388 sec  (  0.5%)
Orbital Transformation      ....       0.000 sec  (  0.0%)
Orbital Orthonormalization  ....       0.000 sec  (  0.0%)
DIIS solution               ....       0.191 sec  (  0.3%)
SOSCF solution              ....       0.254 sec  (  0.4%)
Grid generation             ....       2.254 sec  (  3.1%)

Maximum memory used throughout the entire SCF-calculation: 81.6 MB


-------------------------------------------------------------------------------
                          DFT DISPERSION CORRECTION                            
                                                                               
                              DFTD3 V3.1  Rev 1                                
                              USING zero damping                               
-------------------------------------------------------------------------------
The omegaB97X-D3 functional is recognized. Fit by Chai et al.
Active option DFTDOPT                   ...         3   

molecular C6(AA) [au] = 7805.639803 


            DFT-D V3
 parameters
 s6 scaling factor         :     1.0000 
 rs6 scaling factor        :     1.2810 
 s8 scaling factor         :     1.0000 
 rs8 scaling factor        :     1.0940 
 Damping factor alpha6     :    14.0000 
 Damping factor alpha8     :    16.0000 
 ad hoc parameters k1-k3   :    16.0000     1.3333    -4.0000 

 Edisp/kcal,au: -10.257999884013  -0.016347161619 
 E6   /kcal   :  -4.342577566 
 E8   /kcal   :  -5.915422318 
 % E8         :  57.666429959 

-------------------------   ----------------
Dispersion correction           -0.016347162
-------------------------   ----------------


-------------------------   --------------------
FINAL SINGLE POINT ENERGY     -1016.888401896637
-------------------------   --------------------


                            ***************************************
                            *     ORCA property calculations      *
                            ***************************************

                                    ---------------------
                                    Active property flags
                                    ---------------------
   (+) Dipole Moment


------------------------------------------------------------------------------
                       ORCA ELECTRIC PROPERTIES CALCULATION
------------------------------------------------------------------------------

Dipole Moment Calculation                       ... on
Quadrupole Moment Calculation                   ... off
Polarizability Calculation                      ... off
GBWName                                         ... new_SVPD_D5_wb97.gbw
Electron density file                           ... new_SVPD_D5_wb97.scfp
The origin for moment calculation is the CENTER OF MASS  = ( 4.546151, -0.483241 -8.389463)

-------------
DIPOLE MOMENT
-------------
                                X             Y             Z
Electronic contribution:     -1.77067      -6.00537     -18.98178
Nuclear contribution   :     -0.26930       7.11259      19.56706
                        -----------------------------------------
Total Dipole Moment    :     -2.03998       1.10722       0.58529
                        -----------------------------------------
Magnitude (a.u.)       :      2.39374
Magnitude (Debye)      :      6.08441



--------------------
Rotational spectrum 
--------------------
 
Rotational constants in cm-1:     0.036519     0.018683     0.015073 
Rotational constants in MHz :  1094.801738   560.111127   451.890222 

 Dipole components along the rotational axes: 
x,y,z [a.u.] :    -0.024400     2.187649     0.971390 
x,y,z [Debye]:    -0.062019     5.560562     2.469076 

 

Timings for individual modules:

Sum of individual times         ...       73.467 sec (=   1.224 min)
GTO integral calculation        ...        0.948 sec (=   0.016 min)   1.3 %
SCF iterations                  ...       72.519 sec (=   1.209 min)  98.7 %
                             ****ORCA TERMINATED NORMALLY****
TOTAL RUN TIME: 0 days 0 hours 1 minutes 14 seconds 153 msec
