
                                        *****************
                                        * O   R   C   A *
                                        *****************

                                            #,                                       
                                            ###                                      
                                            ####                                     
                                            #####                                    
                                            ######                                   
                                           ########,                                 
                                     ,,################,,,,,                         
                               ,,#################################,,                 
                          ,,##########################################,,             
                       ,#########################################, ''#####,          
                    ,#############################################,,   '####,        
                  ,##################################################,,,,####,       
                ,###########''''           ''''###############################       
              ,#####''   ,,,,##########,,,,          '''####'''          '####       
            ,##' ,,,,###########################,,,                        '##       
           ' ,,###''''                  '''############,,,                           
         ,,##''                                '''############,,,,        ,,,,,,###''
      ,#''                                            '''#######################'''  
     '                                                          ''''####''''         
             ,#######,   #######,   ,#######,      ##                                
            ,#'     '#,  ##    ##  ,#'     '#,    #''#        ######   ,####,        
            ##       ##  ##   ,#'  ##            #'  '#       #        #'  '#        
            ##       ##  #######   ##           ,######,      #####,   #    #        
            '#,     ,#'  ##    ##  '#,     ,#' ,#      #,         ##   #,  ,#        
             '#######'   ##     ##  '#######'  #'      '#     #####' # '####'        



                  #######################################################
                  #                        -***-                        #
                  #          Department of theory and spectroscopy      #
                  #    Directorship and core code : Frank Neese         #
                  #        Max Planck Institute fuer Kohlenforschung    #
                  #                Kaiser Wilhelm Platz 1               #
                  #                 D-45470 Muelheim/Ruhr               #
                  #                      Germany                        #
                  #                                                     #
                  #                  All rights reserved                #
                  #                        -***-                        #
                  #######################################################


                         Program Version 5.0.0 -  RELEASE  -
                                (SVN: $Rev: 19529$)
                ($Date: 2021-06-28 11:36:33 +0200 (Mo, 28 Jun 2021) $)


 With contributions from (in alphabetic order):
   Daniel Aravena         : Magnetic Suceptibility
   Michael Atanasov       : Ab Initio Ligand Field Theory (pilot matlab implementation)
   Alexander A. Auer      : GIAO ZORA, VPT2 properties, NMR spectrum
   Ute Becker             : Parallelization
   Giovanni Bistoni       : ED, misc. LED, open-shell LED, HFLD
   Martin Brehm           : Molecular dynamics
   Dmytro Bykov           : SCF Hessian
   Vijay G. Chilkuri      : MRCI spin determinant printing, contributions to CSF-ICE
   Dipayan Datta          : RHF DLPNO-CCSD density
   Achintya Kumar Dutta   : EOM-CC, STEOM-CC
   Dmitry Ganyushin       : Spin-Orbit,Spin-Spin,Magnetic field MRCI
   Miquel Garcia          : C-PCM Hessian, Gaussian charge scheme
   Yang Guo               : DLPNO-NEVPT2, F12-NEVPT2, CIM, IAO-localization
   Andreas Hansen         : Spin unrestricted coupled pair/coupled cluster methods
   Benjamin Helmich-Paris : MC-RPA, TRAH-SCF, COSX integrals
   Lee Huntington         : MR-EOM, pCC
   Robert Izsak           : Overlap fitted RIJCOSX, COSX-SCS-MP3, EOM
   Marcus Kettner         : VPT2
   Christian Kollmar      : KDIIS, OOCD, Brueckner-CCSD(T), CCSD density, CASPT2, CASPT2-K
   Simone Kossmann        : Meta GGA functionals, TD-DFT gradient, OOMP2, MP2 Hessian
   Martin Krupicka        : Initial AUTO-CI
   Lucas Lang             : DCDCAS
   Marvin Lechner         : AUTO-CI (C++ implementation), FIC-MRCC
   Dagmar Lenk            : GEPOL surface, SMD
   Dimitrios Liakos       : Extrapolation schemes; Compound Job, initial MDCI parallelization
   Dimitrios Manganas     : Further ROCIS development; embedding schemes
   Dimitrios Pantazis     : SARC Basis sets
   Anastasios Papadopoulos: AUTO-CI, single reference methods and gradients
   Taras Petrenko         : DFT Hessian,TD-DFT gradient, ASA, ECA, R-Raman, ABS, FL, XAS/XES, NRVS
   Peter Pinski           : DLPNO-MP2, DLPNO-MP2 Gradient
   Christoph Reimann      : Effective Core Potentials
   Marius Retegan         : Local ZFS, SOC
   Christoph Riplinger    : Optimizer, TS searches, QM/MM, DLPNO-CCSD(T), (RO)-DLPNO pert. Triples
   Tobias Risthaus        : Range-separated hybrids, TD-DFT gradient, RPA, STAB
   Michael Roemelt        : Original ROCIS implementation
   Masaaki Saitow         : Open-shell DLPNO-CCSD energy and density
   Barbara Sandhoefer     : DKH picture change effects
   Avijit Sen             : IP-ROCIS
   Kantharuban Sivalingam : CASSCF convergence, NEVPT2, FIC-MRCI
   Bernardo de Souza      : ESD, SOC TD-DFT
   Georgi Stoychev        : AutoAux, RI-MP2 NMR
   Willem Van den Heuvel  : Paramagnetic NMR
   Boris Wezisla          : Elementary symmetry handling
   Frank Wennmohs         : Technical directorship


 We gratefully acknowledge several colleagues who have allowed us to
 interface, adapt or use parts of their codes:
   Stefan Grimme, W. Hujo, H. Kruse, P. Pracht,  : VdW corrections, initial TS optimization,
                  C. Bannwarth, S. Ehlert          DFT functionals, gCP, sTDA/sTD-DF
   Ed Valeev, F. Pavosevic, A. Kumar             : LibInt (2-el integral package), F12 methods
   Garnet Chan, S. Sharma, J. Yang, R. Olivares  : DMRG
   Ulf Ekstrom                                   : XCFun DFT Library
   Mihaly Kallay                                 : mrcc  (arbitrary order and MRCC methods)
   Jiri Pittner, Ondrej Demel                    : Mk-CCSD
   Frank Weinhold                                : gennbo (NPA and NBO analysis)
   Christopher J. Cramer and Donald G. Truhlar   : smd solvation model
   Lars Goerigk                                  : TD-DFT with DH, B97 family of functionals
   V. Asgeirsson, H. Jonsson                     : NEB implementation
   FAccTs GmbH                                   : IRC, NEB, NEB-TS, DLPNO-Multilevel, CI-OPT
                                                   MM, QMMM, 2- and 3-layer-ONIOM, Crystal-QMMM,
                                                   LR-CPCM, SF, NACMEs, symmetry and pop. for TD-DFT,
                                                   nearIR, NL-DFT gradient (VV10), updates on ESD,
                                                   ML-optimized integration grids
   S Lehtola, MJT Oliveira, MAL Marques          : LibXC Library
   Liviu Ungur et al                             : ANISO software


 Your calculation uses the libint2 library for the computation of 2-el integrals
 For citations please refer to: http://libint.valeyev.net

 Your ORCA version has been built with support for libXC version: 5.1.0
 For citations please refer to: https://tddft.org/programs/libxc/

 This ORCA versions uses:
   CBLAS   interface :  Fast vector & matrix operations
   LAPACKE interface :  Fast linear algebra routines
   SCALAPACK package :  Parallel linear algebra routines
   Shared memory     :  Shared parallel matrices
   BLAS/LAPACK       :  OpenBLAS 0.3.15  USE64BITINT DYNAMIC_ARCH NO_AFFINITY Haswell SINGLE_THREADED
        Core in use  :  Haswell
   Copyright (c) 2011-2014, The OpenBLAS Project




***************************************
The coordinates will be read from file: D1.xyz
***************************************


Your calculation utilizes the atom-pairwise dispersion correction
with the Becke-Johnson damping scheme (D3BJ)
Cite in your paper:
S.Grimme, S.Ehrlich, L.Goerigk, J Comput Chem, (2011), 32, 1456–1465 
S.Grimme, J.Antony, S.Ehrlich and H.Krieg, J.Chem.Phys., 132, (2010), 154104 
   

================================================================================

----- Orbital basis set information -----
Your calculation utilizes the basis: def2-SVPD
   F. Weigend and R. Ahlrichs, Phys. Chem. Chem. Phys. 7, 3297 (2005).
   D. Rappoport and F. Furche, J. Chem. Phys. 133 134105 (2010).

----- AuxJ basis set information -----
Your calculation utilizes the auxiliary basis: def2/J
   F. Weigend, Phys. Chem. Chem. Phys. 8, 1057 (2006).

================================================================================
                                        WARNINGS
                       Please study these warnings very carefully!
================================================================================



WARNING: Found flag for RIJCOSX approximation but no HF exchange needed!
  ===> : RIJCOSX  will be disabled and Split-RI-J is turned on

INFO   : the flag for use of the SHARK integral package has been found!

================================================================================
                                       INPUT FILE
================================================================================
NAME = 28Oct_SVPD_TPSS_D1_wb97.com
|  1> !TPSS D3BJ RIJCOSX def2-SVPD def2/J TightSCF xyzfile                                                                                         
|  2> 
|  3> *xyzfile 0 1 D1.xyz
|  4> 
|  5> %MaxCore 64000
|  6> 
|  7> %pal nprocs 4                                                                                                                                                  
|  8> end  
|  9> 
| 10> %scf
| 11>   MaxIter 150
| 12> end
| 13> 
| 14> 
| 15>                          ****END OF INPUT****
================================================================================

                       ****************************
                       * Single Point Calculation *
                       ****************************

---------------------------------
CARTESIAN COORDINATES (ANGSTROEM)
---------------------------------
  C      3.380928    2.083045   -3.350127
  C      4.535924    1.182447   -3.428518
  C      2.495557    1.816150   -2.136364
  C      1.872181    0.427903   -2.077497
  H      2.614270   -0.365825   -2.198894
  H      1.389953    0.273087   -1.112360
  S      0.579024    0.140472   -3.297943
  C      4.671956    0.122273   -4.220598
  N      5.866023   -0.507849   -4.224284
  N      3.698881   -0.312844   -4.986988
  H      2.731405   -0.050091   -4.849000
  H      3.890046   -1.055172   -5.643730
  H      5.251933    1.303459   -2.721014
  H      6.695165   -0.062322   -3.851596
  H      5.975383   -1.396884   -4.691414
  F      0.228860   -1.246868   -3.127871
  O     -0.439269    1.118966   -3.014550
  O      1.247881    0.403474   -4.595647
  H      1.697003    2.561969   -2.141109
  H      3.080787    1.987436   -1.225838
  H      2.806463    1.986511   -4.268484
  H      3.778714    3.098282   -3.307383

----------------------------
CARTESIAN COORDINATES (A.U.)
----------------------------
  NO LB      ZA    FRAG     MASS         X           Y           Z
   0 C     6.0000    0    12.011    6.389028    3.936384   -6.330822
   1 C     6.0000    0    12.011    8.571653    2.234501   -6.478960
   2 C     6.0000    0    12.011    4.715920    3.432025   -4.037143
   3 C     6.0000    0    12.011    3.537909    0.808619   -3.925901
   4 H     1.0000    0     1.008    4.940255   -0.691309   -4.155307
   5 H     1.0000    0     1.008    2.626630    0.516060   -2.102056
   6 S    16.0000    0    32.060    1.094197    0.265454   -6.232209
   7 C     6.0000    0    12.011    8.828718    0.231062   -7.975775
   8 N     7.0000    0    14.007   11.085178   -0.959696   -7.982739
   9 N     7.0000    0    14.007    6.989872   -0.591189   -9.424042
  10 H     1.0000    0     1.008    5.161608   -0.094658   -9.163282
  11 H     1.0000    0     1.008    7.351122   -1.993986  -10.665104
  12 H     1.0000    0     1.008    9.924714    2.463181   -5.141971
  13 H     1.0000    0     1.008   12.652028   -0.117771   -7.278462
  14 H     1.0000    0     1.008   11.291838   -2.639728   -8.865488
  15 F     9.0000    0    18.998    0.432483   -2.356238   -5.910819
  16 O     8.0000    0    15.999   -0.830098    2.114540   -5.696673
  17 O     8.0000    0    15.999    2.358154    0.762455   -8.684514
  18 H     1.0000    0     1.008    3.206871    4.841420   -4.046109
  19 H     1.0000    0     1.008    5.821845    3.755709   -2.316498
  20 H     1.0000    0     1.008    5.303447    3.753961   -8.066266
  21 H     1.0000    0     1.008    7.140735    5.854904   -6.250048

--------------------------------
INTERNAL COORDINATES (ANGSTROEM)
--------------------------------
 C      0   0   0     0.000000000000     0.00000000     0.00000000
 C      1   0   0     1.466709159152     0.00000000     0.00000000
 C      1   2   0     1.525887598611   113.08106121     0.00000000
 C      3   1   2     1.522922426714   115.32150160   298.98779578
 H      4   3   1     1.093360976858   112.31147686    51.76616417
 H      4   3   1     1.089954594431   110.16986842   171.17309744
 S      4   3   1     1.801210303623   114.40266140   289.23510751
 C      2   1   3     1.330363150639   126.98915710   102.39030975
 N      8   2   1     1.350134350047   117.64436639   174.24681917
 N      8   2   1     1.312842464079   122.40463695   354.61440396
 H     10   8   2     1.011972738098   122.88487069   342.67118838
 H     10   8   2     1.009408202469   118.89300887   173.11229738
 H      2   1   3     1.013841643828   116.45871694   291.29563037
 H      9   8   2     1.012356698497   121.19473046   343.47581302
 H      9   8   2     1.010224236058   120.51235872   170.23230527
 F      7   4   3     1.440920179428   104.36732947   175.27794104
 O      7   4   3     1.440376003423   105.41678409   299.48536641
 O      7   4   3     1.483433803163   103.93008595    57.15043279
 H      3   1   2     1.092683852872   107.52997589   177.35677273
 H      3   1   2     1.095851861430   108.88782929    62.11677368
 H      1   2   3     1.087524204377   108.44120771   237.12593655
 H      1   2   3     1.091223184114   106.63672387   121.10258644

---------------------------
INTERNAL COORDINATES (A.U.)
---------------------------
 C      0   0   0     0.000000000000     0.00000000     0.00000000
 C      1   0   0     2.771678628911     0.00000000     0.00000000
 C      1   2   0     2.883509672521   113.08106121     0.00000000
 C      3   1   2     2.877906309695   115.32150160   298.98779578
 H      4   3   1     2.066152811778   112.31147686    51.76616417
 H      4   3   1     2.059715681884   110.16986842   171.17309744
 S      4   3   1     3.403794183444   114.40266140   289.23510751
 C      2   1   3     2.514022013368   126.98915710   102.39030975
 N      8   2   1     2.551384165588   117.64436639   174.24681917
 N      8   2   1     2.480912714091   122.40463695   354.61440396
 H     10   8   2     1.912351330000   122.88487069   342.67118838
 H     10   8   2     1.907505060000   118.89300887   173.11229738
 H      2   1   3     1.915883050000   116.45871694   291.29563037
 H      9   8   2     1.913076910000   121.19473046   343.47581302
 H      9   8   2     1.909047140000   120.51235872   170.23230527
 F      7   4   3     2.722944519960   104.36732947   175.27794104
 O      7   4   3     2.721916176342   105.41678409   299.48536641
 O      7   4   3     2.803283625779   103.93008595    57.15043279
 H      3   1   2     2.064873232886   107.52997589   177.35677273
 H      3   1   2     2.070859901451   108.88782929    62.11677368
 H      1   2   3     2.055122910283   108.44120771   237.12593655
 H      1   2   3     2.062112968961   106.63672387   121.10258644

---------------------
BASIS SET INFORMATION
---------------------
There are 6 groups of distinct atoms

 Group   1 Type C   : 8s4p2d contracted to 4s2p2d pattern {5111/31/11}
 Group   2 Type H   : 4s2p contracted to 2s2p pattern {31/11}
 Group   3 Type S   : 11s8p2d contracted to 5s4p2d pattern {53111/5111/11}
 Group   4 Type N   : 8s4p2d contracted to 4s2p2d pattern {5111/31/11}
 Group   5 Type F   : 8s5p2d contracted to 4s3p2d pattern {5111/311/11}
 Group   6 Type O   : 8s5p2d contracted to 4s3p2d pattern {5111/311/11}

Atom   0C    basis set group =>   1
Atom   1C    basis set group =>   1
Atom   2C    basis set group =>   1
Atom   3C    basis set group =>   1
Atom   4H    basis set group =>   2
Atom   5H    basis set group =>   2
Atom   6S    basis set group =>   3
Atom   7C    basis set group =>   1
Atom   8N    basis set group =>   4
Atom   9N    basis set group =>   4
Atom  10H    basis set group =>   2
Atom  11H    basis set group =>   2
Atom  12H    basis set group =>   2
Atom  13H    basis set group =>   2
Atom  14H    basis set group =>   2
Atom  15F    basis set group =>   5
Atom  16O    basis set group =>   6
Atom  17O    basis set group =>   6
Atom  18H    basis set group =>   2
Atom  19H    basis set group =>   2
Atom  20H    basis set group =>   2
Atom  21H    basis set group =>   2
---------------------------------
AUXILIARY/J BASIS SET INFORMATION
---------------------------------
There are 6 groups of distinct atoms

 Group   1 Type C   : 12s5p4d2f1g contracted to 6s4p3d1f1g pattern {711111/2111/211/2/1}
 Group   2 Type H   : 5s2p1d contracted to 3s1p1d pattern {311/2/1}
 Group   3 Type S   : 14s5p5d2f1g contracted to 8s4p3d1f1g pattern {71111111/2111/311/2/1}
 Group   4 Type N   : 12s5p4d2f1g contracted to 6s4p3d1f1g pattern {711111/2111/211/2/1}
 Group   5 Type F   : 12s5p4d2f1g contracted to 6s4p3d1f1g pattern {711111/2111/211/2/1}
 Group   6 Type O   : 12s5p4d2f1g contracted to 6s4p3d1f1g pattern {711111/2111/211/2/1}

Atom   0C    basis set group =>   1
Atom   1C    basis set group =>   1
Atom   2C    basis set group =>   1
Atom   3C    basis set group =>   1
Atom   4H    basis set group =>   2
Atom   5H    basis set group =>   2
Atom   6S    basis set group =>   3
Atom   7C    basis set group =>   1
Atom   8N    basis set group =>   4
Atom   9N    basis set group =>   4
Atom  10H    basis set group =>   2
Atom  11H    basis set group =>   2
Atom  12H    basis set group =>   2
Atom  13H    basis set group =>   2
Atom  14H    basis set group =>   2
Atom  15F    basis set group =>   5
Atom  16O    basis set group =>   6
Atom  17O    basis set group =>   6
Atom  18H    basis set group =>   2
Atom  19H    basis set group =>   2
Atom  20H    basis set group =>   2
Atom  21H    basis set group =>   2


           ************************************************************
           *        Program running with 4 parallel MPI-processes     *
           *              working on a common directory               *
           ************************************************************
------------------------------------------------------------------------------
                           ORCA GTO INTEGRAL CALCULATION
                           -- RI-GTO INTEGRALS CHOSEN --
------------------------------------------------------------------------------
------------------------------------------------------------------------------
                   ___                                                        
                  /   \      - P O W E R E D   B Y -                         
                 /     \                                                     
                 |  |  |   _    _      __       _____    __    __             
                 |  |  |  | |  | |    /  \     |  _  \  |  |  /  |          
                  \  \/   | |  | |   /    \    | | | |  |  | /  /          
                 / \  \   | |__| |  /  /\  \   | |_| |  |  |/  /          
                |  |  |   |  __  | /  /__\  \  |    /   |      \           
                |  |  |   | |  | | |   __   |  |    \   |  |\   \          
                \     /   | |  | | |  |  |  |  | |\  \  |  | \   \       
                 \___/    |_|  |_| |__|  |__|  |_| \__\ |__|  \__/        
                                                                              
                      - O R C A' S   B I G   F R I E N D -                    
                                      &                                       
                       - I N T E G R A L  F E E D E R -                       
                                                                              
 v1 FN, 2020, v2 2021                                                         
------------------------------------------------------------------------------


Reading SHARK input file 28Oct_SVPD_TPSS_D1_wb97.SHARKINP.tmp ... ok
----------------------
SHARK INTEGRAL PACKAGE
----------------------

Number of atoms                             ...     22
Number of basis functions                   ...    324
Number of shells                            ...    138
Maximum angular momentum                    ...      2
Integral batch strategy                     ... SHARK/LIBINT Hybrid
RI-J (if used) integral strategy            ... SPLIT-RIJ (Revised 2003 algorithm where possible)
Printlevel                                  ...      1
Contraction scheme used                     ... SEGMENTED contraction
Coulomb Range Separation                    ... NOT USED
Exchange Range Separation                   ... NOT USED
Finite Nucleus Model                        ... NOT USED
Auxiliary Coulomb fitting basis             ... AVAILABLE
   # of basis functions in Aux-J            ...    662
   # of shells in Aux-J                     ...    222
   Maximum angular momentum in Aux-J        ...      4
Auxiliary J/K fitting basis                 ... NOT available
Auxiliary Correlation fitting basis         ... NOT available
Auxiliary 'external' fitting basis          ... NOT available
Integral threshold                          ...     2.500000e-11
Primitive cut-off                           ...     2.500000e-12
Primitive pair pre-selection threshold      ...     2.500000e-12

Calculating pre-screening integrals         ... done (  0.1 sec) Dimension = 138
Organizing shell pair data                  ... done (  0.1 sec)
Shell pair information
Total number of shell pairs                 ...      9591
Shell pairs after pre-screening             ...      9034
Total number of primitive shell pairs       ...     26751
Primitive shell pairs kept                  ...     19635
          la=0 lb=0:   2120 shell pairs
          la=1 lb=0:   3089 shell pairs
          la=1 lb=1:   1168 shell pairs
          la=2 lb=0:   1392 shell pairs
          la=2 lb=1:   1025 shell pairs
          la=2 lb=2:    240 shell pairs

Calculating one electron integrals          ... done (  0.0 sec)
Calculating RI/J V-Matrix + Cholesky decomp.... done (  0.0 sec)
Calculating Nuclear repulsion               ... done (  0.0 sec) ENN=    831.153357828877 Eh

SHARK setup successfully completed in   0.3 seconds

Maximum memory used throughout the entire GTOINT-calculation: 15.7 MB


           ************************************************************
           *        Program running with 4 parallel MPI-processes     *
           *              working on a common directory               *
           ************************************************************
-------------------------------------------------------------------------------
                                 ORCA SCF
-------------------------------------------------------------------------------

------------
SCF SETTINGS
------------
Hamiltonian:
 Density Functional     Method          .... DFT(GTOs)
 Exchange Functional    Exchange        .... TPSS
 Correlation Functional Correlation     .... TPSS
 LDA part of GGA corr.  LDAOpt          .... PW91-LDA
 Gradients option       PostSCFGGA      .... off
   Density functional embedding theory  .... OFF
   NL short-range parameter             ....  5.000000
 RI-approximation to the Coulomb term is turned on
   Number of AuxJ basis functions       .... 662


General Settings:
 Integral files         IntName         .... 28Oct_SVPD_TPSS_D1_wb97
 Hartree-Fock type      HFTyp           .... RHF
 Total Charge           Charge          ....    0
 Multiplicity           Mult            ....    1
 Number of Electrons    NEL             ....   96
 Basis Dimension        Dim             ....  324
 Nuclear Repulsion      ENuc            ....    831.1533578289 Eh

Convergence Acceleration:
 DIIS                   CNVDIIS         .... on
   Start iteration      DIISMaxIt       ....    12
   Startup error        DIISStart       ....  0.200000
   # of expansion vecs  DIISMaxEq       ....     5
   Bias factor          DIISBfac        ....   1.050
   Max. coefficient     DIISMaxC        ....  10.000
 Trust-Rad. Augm. Hess. CNVTRAH         .... auto
   Auto Start mean grad. ratio tolernc. ....  1.125000
   Auto Start start iteration           ....    20
   Auto Start num. interpolation iter.  ....    10
   Max. Number of Micro iterations      ....    16
   Max. Number of Macro iterations      .... Maxiter - #DIIS iter
   Number of Davidson start vectors     ....     2
   Converg. threshold I  (grad. norm)   ....   1.000e-05
   Converg. threshold II (energy diff.) ....   1.000e-08
   Grad. Scal. Fac. for Micro threshold ....   0.100
   Minimum threshold for Micro iter.    ....   0.010
   NR start threshold (gradient norm)   ....   0.001
   Initial trust radius                 ....   0.400
   Minimum AH scaling param. (alpha)    ....   1.000
   Maximum AH scaling param. (alpha)    .... 1000.000
   Orbital update algorithm             .... Taylor
   White noise on init. David. guess    .... on
   Maximum white noise                  ....   0.010
   Quad. conv. algorithm                .... NR
 SOSCF                  CNVSOSCF        .... on
   Start iteration      SOSCFMaxIt      ....   150
   Startup grad/error   SOSCFStart      ....  0.003300
 Level Shifting         CNVShift        .... on
   Level shift para.    LevelShift      ....    0.2500
   Turn off err/grad.   ShiftErr        ....    0.0010
 Zerner damping         CNVZerner       .... off
 Static damping         CNVDamp         .... on
   Fraction old density DampFac         ....    0.7000
   Max. Damping (<1)    DampMax         ....    0.9800
   Min. Damping (>=0)   DampMin         ....    0.0000
   Turn off err/grad.   DampErr         ....    0.1000
 Fernandez-Rico         CNVRico         .... off

SCF Procedure:
 Maximum # iterations   MaxIter         ....   150
 SCF integral mode      SCFMode         .... Direct
   Integral package                     .... SHARK and LIBINT hybrid scheme
 Reset frequency        DirectResetFreq ....    20
 Integral Threshold     Thresh          ....  2.500e-11 Eh
 Primitive CutOff       TCut            ....  2.500e-12 Eh

Convergence Tolerance:
 Convergence Check Mode ConvCheckMode   .... Total+1el-Energy
 Convergence forced     ConvForced      .... 0
 Energy Change          TolE            ....  1.000e-08 Eh
 1-El. energy change                    ....  1.000e-05 Eh
 Orbital Gradient       TolG            ....  1.000e-05
 Orbital Rotation angle TolX            ....  1.000e-05
 DIIS Error             TolErr          ....  5.000e-07


Diagonalization of the overlap matrix:
Smallest eigenvalue                        ... 3.359e-05
Time for diagonalization                   ...    0.017 sec
Threshold for overlap eigenvalues          ... 1.000e-08
Number of eigenvalues below threshold      ... 0
Time for construction of square roots      ...    0.017 sec
Total time needed                          ...    0.035 sec

Time for model grid setup =    0.218 sec

------------------------------
INITIAL GUESS: MODEL POTENTIAL
------------------------------
Loading Hartree-Fock densities                     ... done
Calculating cut-offs                               ... done
Initializing the effective Hamiltonian             ... done
Setting up the integral package (SHARK)            ... done
Starting the Coulomb interaction                   ... done (   0.2 sec)
Reading the grid                                   ... done
Mapping shells                                     ... done
Starting the XC term evaluation                    ... done (   0.3 sec)
  promolecular density results
     # of electrons  =     95.994219660
     EX              =    -93.382895881
     EC              =     -3.360418620
     EX+EC           =    -96.743314500
Transforming the Hamiltonian                       ... done (   0.0 sec)
Diagonalizing the Hamiltonian                      ... done (   0.0 sec)
Back transforming the eigenvectors                 ... done (   0.0 sec)
Now organizing SCF variables                       ... done
                      ------------------
                      INITIAL GUESS DONE (   0.7 sec)
                      ------------------
-------------------
DFT GRID GENERATION
-------------------

General Integration Accuracy     IntAcc      ... 4.388
Radial Grid Type                 RadialGrid  ... OptM3 with GC (2021)
Angular Grid (max. ang.)         AngularGrid ... 4 (Lebedev-302)
Angular grid pruning method      GridPruning ... 4 (adaptive)
Weight generation scheme         WeightScheme... Becke
Basis function cutoff            BFCut       ... 1.0000e-11
Integration weight cutoff        WCut        ... 1.0000e-14
Angular grids for H and He will be reduced by one unit
Partially contracted basis set               ... off
Rotationally invariant grid construction     ... off

Total number of grid points                  ...   105555
Total number of batches                      ...     1663
Average number of points per batch           ...       63
Average number of grid points per atom       ...     4798
Time for grid setup =    0.816 sec

--------------
SCF ITERATIONS
--------------
ITER       Energy         Delta-E        Max-DP      RMS-DP      [F,P]     Damp
               ***  Starting incremental Fock matrix formation  ***
  0   -954.0751818620   0.000000000000 0.24838987  0.00355212  0.2732394 0.7000
  1   -954.3534847816  -0.278302919598 0.10786187  0.00221551  0.0952864 0.7000
                               ***Turning on DIIS***
  2   -954.4286640675  -0.075179285922 0.18590349  0.00355357  0.0311931 0.0000
  3   -954.5819021222  -0.153238054769 0.09941530  0.00159232  0.0591796 0.0000
  4   -954.6088561318  -0.026954009536 0.05208644  0.00074537  0.0318047 0.0000
                      *** Initiating the SOSCF procedure ***
                           *** Shutting down DIIS ***
                      *** Re-Reading the Fockian *** 
                      *** Removing any level shift *** 
ITER      Energy       Delta-E        Grad      Rot      Max-DP    RMS-DP
  5   -954.61395108  -0.0050949459  0.000907  0.000907  0.025543  0.000367
               *** Restarting incremental Fock matrix formation ***
  6   -954.61411107  -0.0001599943  0.000760  0.003224  0.020377  0.000330
  7   -954.61399344   0.0001176342  0.002121  0.001890  0.004326  0.000080
  8   -954.61415762  -0.0001641776  0.000088  0.000554  0.003173  0.000050
  9   -954.61415660   0.0000010151  0.000175  0.000220  0.000444  0.000012
 10   -954.61415841  -0.0000018083  0.000052  0.000164  0.001258  0.000020
 11   -954.61415812   0.0000002915  0.000062  0.000088  0.000574  0.000010
 12   -954.61415859  -0.0000004687  0.000008  0.000046  0.000293  0.000005
 13   -954.61415857   0.0000000156  0.000017  0.000035  0.000138  0.000002
 14   -954.61415860  -0.0000000287  0.000004  0.000020  0.000115  0.000002
 15   -954.61415859   0.0000000112  0.000005  0.000011  0.000059  0.000001
                  ***Gradient check signals convergence***
              ***Rediagonalizing the Fockian in SOSCF/NRSCF***

               *****************************************************
               *                     SUCCESS                       *
               *           SCF CONVERGED AFTER  16 CYCLES          *
               *****************************************************


----------------
TOTAL SCF ENERGY
----------------

Total Energy       :         -954.61415859 Eh          -25976.37187 eV

Components:
Nuclear Repulsion  :          831.15335783 Eh           22616.83268 eV
Electronic Energy  :        -1785.76751642 Eh          -48593.20455 eV
One Electron Energy:        -2959.62478786 Eh          -80535.48482 eV
Two Electron Energy:         1173.85727143 Eh           31942.28027 eV

Virial components:
Potential Energy   :        -1903.77668194 Eh          -51804.39720 eV
Kinetic Energy     :          949.16252334 Eh           25828.02533 eV
Virial Ratio       :            2.00574363


DFT components:
N(Alpha)           :       48.000105577811 electrons
N(Beta)            :       48.000105577811 electrons
N(Total)           :       96.000211155621 electrons
E(X)               :      -95.394975327714 Eh       
E(C)               :       -3.373488663719 Eh       
E(XC)              :      -98.768463991433 Eh       
DFET-embed. en.    :        0.000000000000 Eh       

---------------
SCF CONVERGENCE
---------------

  Last Energy change         ...   -6.7132e-09  Tolerance :   1.0000e-08
  Last MAX-Density change    ...    5.1672e-05  Tolerance :   1.0000e-07
  Last RMS-Density change    ...    9.6458e-07  Tolerance :   5.0000e-09
  Last Orbital Gradient      ...    1.0248e-06  Tolerance :   1.0000e-05
  Last Orbital Rotation      ...    2.1485e-06  Tolerance :   1.0000e-05

             **** THE GBW FILE WAS UPDATED (28Oct_SVPD_TPSS_D1_wb97.gbw) ****
             **** DENSITY 28Oct_SVPD_TPSS_D1_wb97.scfp WAS UPDATED ****
             **** ENERGY FILE WAS UPDATED (28Oct_SVPD_TPSS_D1_wb97.en.tmp) ****
             **** THE GBW FILE WAS UPDATED (28Oct_SVPD_TPSS_D1_wb97.gbw) ****
             **** DENSITY 28Oct_SVPD_TPSS_D1_wb97.scfp WAS UPDATED ****
----------------
ORBITAL ENERGIES
----------------

  NO   OCC          E(Eh)            E(eV) 
   0   2.0000     -88.631336     -2411.7813 
   1   2.0000     -24.549738      -668.0323 
   2   2.0000     -18.921000      -514.8666 
   3   2.0000     -18.916620      -514.7474 
   4   2.0000     -14.112948      -384.0328 
   5   2.0000     -14.095964      -383.5707 
   6   2.0000     -10.053171      -273.5607 
   7   2.0000     -10.033947      -273.0376 
   8   2.0000     -10.011568      -272.4286 
   9   2.0000      -9.979035      -271.5433 
  10   2.0000      -9.921180      -269.9690 
  11   2.0000      -7.991973      -217.4726 
  12   2.0000      -5.982347      -162.7879 
  13   2.0000      -5.976097      -162.6179 
  14   2.0000      -5.973478      -162.5466 
  15   2.0000      -1.301210       -35.4077 
  16   2.0000      -1.046553       -28.4782 
  17   2.0000      -0.951994       -25.9051 
  18   2.0000      -0.878108       -23.8945 
  19   2.0000      -0.791900       -21.5487 
  20   2.0000      -0.761640       -20.7253 
  21   2.0000      -0.703125       -19.1330 
  22   2.0000      -0.666495       -18.1362 
  23   2.0000      -0.624305       -16.9882 
  24   2.0000      -0.574025       -15.6200 
  25   2.0000      -0.544589       -14.8190 
  26   2.0000      -0.535361       -14.5679 
  27   2.0000      -0.525271       -14.2934 
  28   2.0000      -0.504979       -13.7412 
  29   2.0000      -0.489317       -13.3150 
  30   2.0000      -0.468607       -12.7514 
  31   2.0000      -0.447943       -12.1891 
  32   2.0000      -0.441690       -12.0190 
  33   2.0000      -0.424462       -11.5502 
  34   2.0000      -0.409679       -11.1479 
  35   2.0000      -0.395979       -10.7751 
  36   2.0000      -0.368946       -10.0395 
  37   2.0000      -0.360876        -9.8199 
  38   2.0000      -0.352029        -9.5792 
  39   2.0000      -0.340878        -9.2758 
  40   2.0000      -0.318735        -8.6732 
  41   2.0000      -0.312272        -8.4974 
  42   2.0000      -0.299172        -8.1409 
  43   2.0000      -0.297097        -8.0844 
  44   2.0000      -0.278131        -7.5683 
  45   2.0000      -0.275191        -7.4883 
  46   2.0000      -0.215417        -5.8618 
  47   2.0000      -0.129074        -3.5123 
  48   0.0000      -0.026173        -0.7122 
  49   0.0000       0.004344         0.1182 
  50   0.0000       0.012654         0.3443 
  51   0.0000       0.020054         0.5457 
  52   0.0000       0.028597         0.7782 
  53   0.0000       0.037192         1.0120 
  54   0.0000       0.042907         1.1676 
  55   0.0000       0.044850         1.2204 
  56   0.0000       0.048178         1.3110 
  57   0.0000       0.054452         1.4817 
  58   0.0000       0.056937         1.5493 
  59   0.0000       0.066583         1.8118 
  60   0.0000       0.082562         2.2466 
  61   0.0000       0.084726         2.3055 
  62   0.0000       0.095183         2.5901 
  63   0.0000       0.097263         2.6467 
  64   0.0000       0.107298         2.9197 
  65   0.0000       0.115372         3.1394 
  66   0.0000       0.124575         3.3898 
  67   0.0000       0.130731         3.5574 
  68   0.0000       0.138227         3.7613 
  69   0.0000       0.147074         4.0021 
  70   0.0000       0.150512         4.0957 
  71   0.0000       0.156806         4.2669 
  72   0.0000       0.157907         4.2969 
  73   0.0000       0.166815         4.5393 
  74   0.0000       0.174323         4.7436 
  75   0.0000       0.178512         4.8575 
  76   0.0000       0.188548         5.1307 
  77   0.0000       0.190731         5.1900 
  78   0.0000       0.198429         5.3995 
  79   0.0000       0.200452         5.4546 
  80   0.0000       0.214408         5.8343 
  81   0.0000       0.216926         5.9029 
  82   0.0000       0.222705         6.0601 
  83   0.0000       0.234055         6.3689 
  84   0.0000       0.237695         6.4680 
  85   0.0000       0.242330         6.5941 
  86   0.0000       0.246598         6.7103 
  87   0.0000       0.249269         6.7830 
  88   0.0000       0.261406         7.1132 
  89   0.0000       0.264978         7.2104 
  90   0.0000       0.271494         7.3877 
  91   0.0000       0.277923         7.5627 
  92   0.0000       0.283610         7.7174 
  93   0.0000       0.287183         7.8147 
  94   0.0000       0.292859         7.9691 
  95   0.0000       0.299337         8.1454 
  96   0.0000       0.300474         8.1763 
  97   0.0000       0.310230         8.4418 
  98   0.0000       0.314017         8.5448 
  99   0.0000       0.318361         8.6631 
 100   0.0000       0.319091         8.6829 
 101   0.0000       0.330275         8.9872 
 102   0.0000       0.335247         9.1225 
 103   0.0000       0.339379         9.2350 
 104   0.0000       0.343410         9.3447 
 105   0.0000       0.348797         9.4913 
 106   0.0000       0.352836         9.6011 
 107   0.0000       0.355618         9.6769 
 108   0.0000       0.362621         9.8674 
 109   0.0000       0.375085        10.2066 
 110   0.0000       0.381397        10.3783 
 111   0.0000       0.391296        10.6477 
 112   0.0000       0.395237        10.7549 
 113   0.0000       0.396153        10.7799 
 114   0.0000       0.409104        11.1323 
 115   0.0000       0.409527        11.1438 
 116   0.0000       0.421679        11.4745 
 117   0.0000       0.425846        11.5879 
 118   0.0000       0.432886        11.7794 
 119   0.0000       0.434115        11.8129 
 120   0.0000       0.441851        12.0234 
 121   0.0000       0.443490        12.0680 
 122   0.0000       0.456282        12.4161 
 123   0.0000       0.460640        12.5347 
 124   0.0000       0.463847        12.6219 
 125   0.0000       0.468622        12.7518 
 126   0.0000       0.475665        12.9435 
 127   0.0000       0.482116        13.1190 
 128   0.0000       0.486277        13.2323 
 129   0.0000       0.489386        13.3169 
 130   0.0000       0.496405        13.5079 
 131   0.0000       0.503764        13.7081 
 132   0.0000       0.505854        13.7650 
 133   0.0000       0.512385        13.9427 
 134   0.0000       0.513901        13.9840 
 135   0.0000       0.525924        14.3111 
 136   0.0000       0.530653        14.4398 
 137   0.0000       0.533727        14.5235 
 138   0.0000       0.542792        14.7701 
 139   0.0000       0.547096        14.8872 
 140   0.0000       0.553343        15.0572 
 141   0.0000       0.560802        15.2602 
 142   0.0000       0.568235        15.4625 
 143   0.0000       0.572747        15.5852 
 144   0.0000       0.576682        15.6923 
 145   0.0000       0.585534        15.9332 
 146   0.0000       0.591970        16.1083 
 147   0.0000       0.600683        16.3454 
 148   0.0000       0.605528        16.4773 
 149   0.0000       0.619459        16.8563 
 150   0.0000       0.634435        17.2638 
 151   0.0000       0.643589        17.5129 
 152   0.0000       0.646382        17.5890 
 153   0.0000       0.651798        17.7363 
 154   0.0000       0.660107        17.9624 
 155   0.0000       0.661405        17.9977 
 156   0.0000       0.670221        18.2376 
 157   0.0000       0.672816        18.3082 
 158   0.0000       0.682236        18.5646 
 159   0.0000       0.692531        18.8447 
 160   0.0000       0.702319        19.1111 
 161   0.0000       0.709326        19.3017 
 162   0.0000       0.719542        19.5797 
 163   0.0000       0.730397        19.8751 
 164   0.0000       0.733000        19.9460 
 165   0.0000       0.739027        20.1099 
 166   0.0000       0.741900        20.1881 
 167   0.0000       0.754189        20.5225 
 168   0.0000       0.769872        20.9493 
 169   0.0000       0.772329        21.0161 
 170   0.0000       0.783552        21.3215 
 171   0.0000       0.794644        21.6234 
 172   0.0000       0.809869        22.0377 
 173   0.0000       0.815425        22.1889 
 174   0.0000       0.820609        22.3299 
 175   0.0000       0.836771        22.7697 
 176   0.0000       0.850506        23.1435 
 177   0.0000       0.861560        23.4442 
 178   0.0000       0.866245        23.5717 
 179   0.0000       0.894148        24.3310 
 180   0.0000       0.902267        24.5519 
 181   0.0000       0.944040        25.6886 
 182   0.0000       0.946248        25.7487 
 183   0.0000       0.951687        25.8967 
 184   0.0000       0.959889        26.1199 
 185   0.0000       0.979201        26.6454 
 186   0.0000       0.989952        26.9380 
 187   0.0000       0.997124        27.1331 
 188   0.0000       1.006745        27.3949 
 189   0.0000       1.014687        27.6110 
 190   0.0000       1.032373        28.0923 
 191   0.0000       1.038462        28.2580 
 192   0.0000       1.042034        28.3552 
 193   0.0000       1.047486        28.5035 
 194   0.0000       1.056927        28.7604 
 195   0.0000       1.075417        29.2636 
 196   0.0000       1.084571        29.5127 
 197   0.0000       1.105512        30.0825 
 198   0.0000       1.116703        30.3870 
 199   0.0000       1.122851        30.5543 
 200   0.0000       1.137537        30.9540 
 201   0.0000       1.138186        30.9716 
 202   0.0000       1.148387        31.2492 
 203   0.0000       1.169858        31.8335 
 204   0.0000       1.179526        32.0965 
 205   0.0000       1.200439        32.6656 
 206   0.0000       1.201869        32.7045 
 207   0.0000       1.213765        33.0282 
 208   0.0000       1.234501        33.5925 
 209   0.0000       1.248134        33.9635 
 210   0.0000       1.255483        34.1634 
 211   0.0000       1.265803        34.4443 
 212   0.0000       1.286686        35.0125 
 213   0.0000       1.312783        35.7226 
 214   0.0000       1.322079        35.9756 
 215   0.0000       1.344107        36.5750 
 216   0.0000       1.352824        36.8122 
 217   0.0000       1.357776        36.9470 
 218   0.0000       1.412170        38.4271 
 219   0.0000       1.426170        38.8081 
 220   0.0000       1.446023        39.3483 
 221   0.0000       1.455275        39.6001 
 222   0.0000       1.493601        40.6430 
 223   0.0000       1.515730        41.2451 
 224   0.0000       1.540260        41.9126 
 225   0.0000       1.545540        42.0563 
 226   0.0000       1.577656        42.9302 
 227   0.0000       1.594366        43.3849 
 228   0.0000       1.602720        43.6122 
 229   0.0000       1.638634        44.5895 
 230   0.0000       1.648765        44.8652 
 231   0.0000       1.671976        45.4968 
 232   0.0000       1.678991        45.6877 
 233   0.0000       1.689577        45.9757 
 234   0.0000       1.701380        46.2969 
 235   0.0000       1.709191        46.5095 
 236   0.0000       1.715515        46.6815 
 237   0.0000       1.745686        47.5025 
 238   0.0000       1.762522        47.9607 
 239   0.0000       1.779632        48.4262 
 240   0.0000       1.791154        48.7398 
 241   0.0000       1.798905        48.9507 
 242   0.0000       1.832266        49.8585 
 243   0.0000       1.847088        50.2618 
 244   0.0000       1.862932        50.6930 
 245   0.0000       1.867871        50.8274 
 246   0.0000       1.898172        51.6519 
 247   0.0000       1.902475        51.7690 
 248   0.0000       1.917537        52.1788 
 249   0.0000       1.921358        52.2828 
 250   0.0000       1.930841        52.5409 
 251   0.0000       1.948325        53.0166 
 252   0.0000       1.973157        53.6923 
 253   0.0000       1.996133        54.3175 
 254   0.0000       2.005905        54.5834 
 255   0.0000       2.013833        54.7992 
 256   0.0000       2.029889        55.2361 
 257   0.0000       2.047934        55.7271 
 258   0.0000       2.060762        56.0762 
 259   0.0000       2.070297        56.3356 
 260   0.0000       2.094110        56.9836 
 261   0.0000       2.100535        57.1585 
 262   0.0000       2.118297        57.6418 
 263   0.0000       2.144986        58.3680 
 264   0.0000       2.155213        58.6463 
 265   0.0000       2.163896        58.8826 
 266   0.0000       2.174098        59.1602 
 267   0.0000       2.186714        59.5035 
 268   0.0000       2.205280        60.0087 
 269   0.0000       2.225613        60.5620 
 270   0.0000       2.244936        61.0878 
 271   0.0000       2.270075        61.7719 
 272   0.0000       2.329959        63.4014 
 273   0.0000       2.342669        63.7473 
 274   0.0000       2.365301        64.3631 
 275   0.0000       2.413988        65.6879 
 276   0.0000       2.429207        66.1021 
 277   0.0000       2.441299        66.4311 
 278   0.0000       2.476004        67.3755 
 279   0.0000       2.483147        67.5699 
 280   0.0000       2.513956        68.4082 
 281   0.0000       2.530717        68.8643 
 282   0.0000       2.533228        68.9326 
 283   0.0000       2.576605        70.1130 
 284   0.0000       2.580444        70.2174 
 285   0.0000       2.607355        70.9497 
 286   0.0000       2.616290        71.1929 
 287   0.0000       2.647564        72.0439 
 288   0.0000       2.656300        72.2816 
 289   0.0000       2.697874        73.4129 
 290   0.0000       2.734939        74.4215 
 291   0.0000       2.760036        75.1044 
 292   0.0000       2.810396        76.4748 
 293   0.0000       2.828174        76.9585 
 294   0.0000       2.836319        77.1802 
 295   0.0000       2.857684        77.7615 
 296   0.0000       2.879591        78.3577 
 297   0.0000       2.882323        78.4320 
 298   0.0000       2.898449        78.8708 
 299   0.0000       2.922124        79.5150 
 300   0.0000       2.942737        80.0759 
 301   0.0000       2.952481        80.3411 
 302   0.0000       3.018930        82.1493 
 303   0.0000       3.027169        82.3735 
 304   0.0000       3.055116        83.1339 
 305   0.0000       3.073058        83.6222 
 306   0.0000       3.112728        84.7016 
 307   0.0000       3.157530        85.9208 
 308   0.0000       3.211836        87.3985 
 309   0.0000       3.234296        88.0097 
 310   0.0000       3.242865        88.2428 
 311   0.0000       3.253700        88.5377 
 312   0.0000       3.267016        88.9000 
 313   0.0000       3.272755        89.0562 
 314   0.0000       3.282608        89.3243 
 315   0.0000       3.311137        90.1006 
 316   0.0000       3.336471        90.7900 
 317   0.0000       3.347744        91.0967 
 318   0.0000       3.384960        92.1095 
 319   0.0000       3.510526        95.5263 
 320   0.0000       3.562203        96.9325 
 321   0.0000       3.713342       101.0452 
 322   0.0000       3.727044       101.4180 
 323   0.0000       3.861907       105.0878 

                    ********************************
                    * MULLIKEN POPULATION ANALYSIS *
                    ********************************

-----------------------
MULLIKEN ATOMIC CHARGES
-----------------------
   0 C :    0.362439
   1 C :   -0.242571
   2 C :    0.124004
   3 C :    0.021281
   4 H :    0.122516
   5 H :   -0.049649
   6 S :    1.532722
   7 C :    1.004385
   8 N :   -0.083871
   9 N :    0.426324
  10 H :   -0.291590
  11 H :   -0.261912
  12 H :   -0.312935
  13 H :   -0.103813
  14 H :   -0.124457
  15 F :   -0.409462
  16 O :   -0.686876
  17 O :   -0.839221
  18 H :    0.026480
  19 H :    0.014970
  20 H :   -0.097603
  21 H :   -0.131161
Sum of atomic charges:   -0.0000000

--------------------------------
MULLIKEN REDUCED ORBITAL CHARGES
--------------------------------
  0 C s       :     2.557888  s :     2.557888
      pz      :     0.951798  p :     2.752500
      px      :     0.935084
      py      :     0.865618
      dz2     :     0.088026  d :     0.327173
      dxz     :     0.067797
      dyz     :     0.084642
      dx2y2   :     0.066194
      dxy     :     0.020515
  1 C s       :     3.096586  s :     3.096586
      pz      :     0.924808  p :     2.874627
      px      :     0.892446
      py      :     1.057373
      dz2     :     0.028845  d :     0.271358
      dxz     :     0.107344
      dyz     :     0.030143
      dx2y2   :     0.073067
      dxy     :     0.031960
  2 C s       :     2.745751  s :     2.745751
      pz      :     0.994918  p :     2.729023
      px      :     0.836363
      py      :     0.897742
      dz2     :     0.123008  d :     0.401222
      dxz     :     0.026662
      dyz     :     0.115225
      dx2y2   :     0.029138
      dxy     :     0.107188
  3 C s       :     2.795206  s :     2.795206
      pz      :     0.833891  p :     2.858054
      px      :     0.896718
      py      :     1.127446
      dz2     :    -0.031925  d :     0.325459
      dxz     :     0.044676
      dyz     :     0.114355
      dx2y2   :     0.114025
      dxy     :     0.084329
  4 H s       :     0.828338  s :     0.828338
      pz      :    -0.013326  p :     0.049146
      px      :     0.029201
      py      :     0.033270
  5 H s       :     1.030187  s :     1.030187
      pz      :     0.038511  p :     0.019462
      px      :    -0.012842
      py      :    -0.006207
  6 S s       :     4.986414  s :     4.986414
      pz      :     3.005378  p :     8.716849
      px      :     2.984850
      py      :     2.726620
      dz2     :     0.157992  d :     0.764015
      dxz     :     0.196603
      dyz     :     0.126006
      dx2y2   :     0.170730
      dxy     :     0.112685
  7 C s       :     2.827926  s :     2.827926
      pz      :     0.794300  p :     2.212439
      px      :     0.653929
      py      :     0.764210
      dz2     :     0.080389  d :    -0.044751
      dxz     :     0.004427
      dyz     :     0.025837
      dx2y2   :    -0.099636
      dxy     :    -0.055767
  8 N s       :     3.397429  s :     3.397429
      pz      :     1.516015  p :     3.665041
      px      :     1.022983
      py      :     1.126042
      dz2     :     0.009961  d :     0.021401
      dxz     :     0.008530
      dyz     :     0.009154
      dx2y2   :    -0.003975
      dxy     :    -0.002268
  9 N s       :     2.936371  s :     2.936371
      pz      :     1.274500  p :     3.627764
      px      :     1.039019
      py      :     1.314244
      dz2     :     0.003133  d :     0.009541
      dxz     :     0.013183
      dyz     :    -0.000961
      dx2y2   :    -0.019589
      dxy     :     0.013774
 10 H s       :     1.268529  s :     1.268529
      pz      :    -0.053834  p :     0.023061
      px      :     0.059599
      py      :     0.017296
 11 H s       :     1.223713  s :     1.223713
      pz      :     0.048757  p :     0.038199
      px      :    -0.024097
      py      :     0.013538
 12 H s       :     1.195769  s :     1.195769
      pz      :     0.069576  p :     0.117166
      px      :     0.031925
      py      :     0.015665
 13 H s       :     1.049360  s :     1.049360
      pz      :     0.060360  p :     0.054453
      px      :     0.012583
      py      :    -0.018489
 14 H s       :     1.066134  s :     1.066134
      pz      :     0.047724  p :     0.058322
      px      :    -0.009768
      py      :     0.020367
 15 F s       :     3.961229  s :     3.961229
      pz      :     1.939895  p :     5.421076
      px      :     1.926869
      py      :     1.554313
      dz2     :     0.002571  d :     0.027158
      dxz     :     0.002447
      dyz     :     0.009344
      dx2y2   :     0.006970
      dxy     :     0.005827
 16 O s       :     3.974104  s :     3.974104
      pz      :     1.735249  p :     4.683425
      px      :     1.520519
      py      :     1.427657
      dz2     :     0.000893  d :     0.029347
      dxz     :     0.001923
      dyz     :     0.010031
      dx2y2   :     0.014105
      dxy     :     0.002396
 17 O s       :     4.051699  s :     4.051699
      pz      :     1.394975  p :     4.781479
      px      :     1.636575
      py      :     1.749929
      dz2     :    -0.008596  d :     0.006043
      dxz     :     0.002306
      dyz     :     0.009391
      dx2y2   :    -0.003853
      dxy     :     0.006796
 18 H s       :     0.938378  s :     0.938378
      pz      :    -0.017328  p :     0.035142
      px      :     0.008167
      py      :     0.044302
 19 H s       :     0.995811  s :     0.995811
      pz      :     0.046291  p :    -0.010780
      px      :    -0.031123
      py      :    -0.025949
 20 H s       :     0.997481  s :     0.997481
      pz      :     0.057164  p :     0.100122
      px      :     0.017981
      py      :     0.024978
 21 H s       :     1.116083  s :     1.116083
      pz      :    -0.011814  p :     0.015077
      px      :     0.001502
      py      :     0.025389


                     *******************************
                     * LOEWDIN POPULATION ANALYSIS *
                     *******************************

----------------------
LOEWDIN ATOMIC CHARGES
----------------------
   0 C :   -0.028396
   1 C :   -0.023930
   2 C :   -0.011088
   3 C :   -0.038445
   4 H :    0.013786
   5 H :    0.013685
   6 S :    1.150532
   7 C :   -0.214066
   8 N :    0.180742
   9 N :    0.230199
  10 H :   -0.142328
  11 H :   -0.004127
  12 H :   -0.054539
  13 H :   -0.000746
  14 H :   -0.018880
  15 F :   -0.241398
  16 O :   -0.432410
  17 O :   -0.443654
  18 H :    0.021971
  19 H :    0.034087
  20 H :   -0.005931
  21 H :    0.014936

-------------------------------
LOEWDIN REDUCED ORBITAL CHARGES
-------------------------------
  0 C s       :     2.669249  s :     2.669249
      pz      :     0.881396  p :     2.678728
      px      :     0.897505
      py      :     0.899827
      dz2     :     0.142883  d :     0.680419
      dxz     :     0.175962
      dyz     :     0.075211
      dx2y2   :     0.159914
      dxy     :     0.126450
  1 C s       :     2.689856  s :     2.689856
      pz      :     0.922930  p :     2.731764
      px      :     0.893481
      py      :     0.915353
      dz2     :     0.088048  d :     0.602310
      dxz     :     0.133062
      dyz     :     0.094670
      dx2y2   :     0.154773
      dxy     :     0.131758
  2 C s       :     2.683138  s :     2.683138
      pz      :     0.914048  p :     2.672004
      px      :     0.895596
      py      :     0.862360
      dz2     :     0.148480  d :     0.655946
      dxz     :     0.122197
      dyz     :     0.109186
      dx2y2   :     0.109876
      dxy     :     0.166208
  3 C s       :     2.717992  s :     2.717992
      pz      :     0.874537  p :     2.698133
      px      :     0.871908
      py      :     0.951688
      dz2     :     0.111650  d :     0.622320
      dxz     :     0.121720
      dyz     :     0.099846
      dx2y2   :     0.127469
      dxy     :     0.161636
  4 H s       :     0.711689  s :     0.711689
      pz      :     0.071184  p :     0.274525
      px      :     0.111194
      py      :     0.092147
  5 H s       :     0.726761  s :     0.726761
      pz      :     0.115872  p :     0.259554
      px      :     0.078158
      py      :     0.065524
  6 S s       :     4.663185  s :     4.663185
      pz      :     2.828204  p :     8.379931
      px      :     2.824097
      py      :     2.727630
      dz2     :     0.370463  d :     1.806352
      dxz     :     0.402048
      dyz     :     0.291469
      dx2y2   :     0.389494
      dxy     :     0.352878
  7 C s       :     2.627362  s :     2.627362
      pz      :     0.825555  p :     2.515103
      px      :     0.826174
      py      :     0.863374
      dz2     :     0.215044  d :     1.071601
      dxz     :     0.231280
      dyz     :     0.150800
      dx2y2   :     0.228196
      dxy     :     0.246281
  8 N s       :     2.936156  s :     2.936156
      pz      :     1.329044  p :     3.530770
      px      :     1.070479
      py      :     1.131246
      dz2     :     0.028739  d :     0.352333
      dxz     :     0.074500
      dyz     :     0.040583
      dx2y2   :     0.116115
      dxy     :     0.092396
  9 N s       :     2.909874  s :     2.909874
      pz      :     1.206353  p :     3.487164
      px      :     1.076179
      py      :     1.204633
      dz2     :     0.079314  d :     0.372763
      dxz     :     0.067712
      dyz     :     0.064851
      dx2y2   :     0.095671
      dxy     :     0.065215
 10 H s       :     0.593161  s :     0.593161
      pz      :     0.112914  p :     0.549167
      px      :     0.297311
      py      :     0.138941
 11 H s       :     0.668852  s :     0.668852
      pz      :     0.126002  p :     0.335274
      px      :     0.072203
      py      :     0.137070
 12 H s       :     0.757044  s :     0.757044
      pz      :     0.108880  p :     0.297495
      px      :     0.107952
      py      :     0.080664
 13 H s       :     0.658307  s :     0.658307
      pz      :     0.124250  p :     0.342439
      px      :     0.119826
      py      :     0.098363
 14 H s       :     0.671043  s :     0.671043
      pz      :     0.134099  p :     0.347837
      px      :     0.072524
      py      :     0.141214
 15 F s       :     3.705271  s :     3.705271
      pz      :     1.834189  p :     5.296364
      px      :     1.828233
      py      :     1.633943
      dz2     :     0.029184  d :     0.239763
      dxz     :     0.014648
      dyz     :     0.060545
      dx2y2   :     0.064362
      dxy     :     0.071024
 16 O s       :     3.571798  s :     3.571798
      pz      :     1.624806  p :     4.617105
      px      :     1.547591
      py      :     1.444708
      dz2     :     0.031125  d :     0.243507
      dxz     :     0.050151
      dyz     :     0.030896
      dx2y2   :     0.061600
      dxy     :     0.069736
 17 O s       :     3.516423  s :     3.516423
      pz      :     1.465505  p :     4.611831
      px      :     1.543503
      py      :     1.602824
      dz2     :     0.093836  d :     0.315400
      dxz     :     0.080225
      dyz     :     0.047164
      dx2y2   :     0.045927
      dxy     :     0.048248
 18 H s       :     0.717832  s :     0.717832
      pz      :     0.065139  p :     0.260196
      px      :     0.107138
      py      :     0.087920
 19 H s       :     0.722525  s :     0.722525
      pz      :     0.100731  p :     0.243388
      px      :     0.083178
      py      :     0.059479
 20 H s       :     0.700561  s :     0.700561
      pz      :     0.107492  p :     0.305370
      px      :     0.102365
      py      :     0.095513
 21 H s       :     0.733933  s :     0.733933
      pz      :     0.061447  p :     0.251131
      px      :     0.072563
      py      :     0.117121


                      *****************************
                      * MAYER POPULATION ANALYSIS *
                      *****************************

  NA   - Mulliken gross atomic population
  ZA   - Total nuclear charge
  QA   - Mulliken gross atomic charge
  VA   - Mayer's total valence
  BVA  - Mayer's bonded valence
  FA   - Mayer's free valence

  ATOM       NA         ZA         QA         VA         BVA        FA
  0 C      5.6376     6.0000     0.3624     4.6078     4.6078     0.0000
  1 C      6.2426     6.0000    -0.2426     4.5493     4.5493    -0.0000
  2 C      5.8760     6.0000     0.1240     4.7577     4.7577     0.0000
  3 C      5.9787     6.0000     0.0213     4.5857     4.5857    -0.0000
  4 H      0.8775     1.0000     0.1225     1.0785     1.0785     0.0000
  5 H      1.0496     1.0000    -0.0496     1.0332     1.0332     0.0000
  6 S     14.4673    16.0000     1.5327     4.6034     4.6034    -0.0000
  7 C      4.9956     6.0000     1.0044     2.7828     2.7828    -0.0000
  8 N      7.0839     7.0000    -0.0839     3.8507     3.8507    -0.0000
  9 N      6.5737     7.0000     0.4263     3.7252     3.7252    -0.0000
 10 H      1.2916     1.0000    -0.2916     0.8224     0.8224    -0.0000
 11 H      1.2619     1.0000    -0.2619     0.8741     0.8741    -0.0000
 12 H      1.3129     1.0000    -0.3129     1.2370     1.2370    -0.0000
 13 H      1.1038     1.0000    -0.1038     0.9802     0.9802     0.0000
 14 H      1.1245     1.0000    -0.1245     0.9535     0.9535     0.0000
 15 F      9.4095     9.0000    -0.4095     0.7793     0.7793    -0.0000
 16 O      8.6869     8.0000    -0.6869     1.7695     1.7695    -0.0000
 17 O      8.8392     8.0000    -0.8392     1.8503     1.8503     0.0000
 18 H      0.9735     1.0000     0.0265     1.1244     1.1244    -0.0000
 19 H      0.9850     1.0000     0.0150     0.9666     0.9666    -0.0000
 20 H      1.0976     1.0000    -0.0976     1.2525     1.2525     0.0000
 21 H      1.1312     1.0000    -0.1312     0.9746     0.9746     0.0000

  Mayer bond orders larger than 0.100000
B(  0-C ,  1-C ) :   1.0752 B(  0-C ,  2-C ) :   1.1428 B(  0-C , 12-H ) :   0.2123 
B(  0-C , 18-H ) :   0.1669 B(  0-C , 19-H ) :   0.1690 B(  0-C , 20-H ) :   0.8211 
B(  0-C , 21-H ) :   0.7989 B(  1-C ,  2-C ) :   0.1209 B(  1-C ,  7-C ) :   1.5220 
B(  1-C ,  8-N ) :   0.4259 B(  1-C ,  9-N ) :   0.2186 B(  1-C , 10-H ) :  -0.1197 
B(  1-C , 12-H ) :   0.8691 B(  1-C , 20-H ) :   0.2768 B(  1-C , 21-H ) :   0.1120 
B(  2-C ,  3-C ) :   1.3177 B(  2-C ,  4-H ) :   0.1497 B(  2-C ,  5-H ) :   0.1729 
B(  2-C , 18-H ) :   0.8076 B(  2-C , 19-H ) :   0.7744 B(  2-C , 20-H ) :   0.1546 
B(  3-C ,  4-H ) :   0.9180 B(  3-C ,  5-H ) :   0.7884 B(  3-C ,  6-S ) :   0.9180 
B(  3-C , 17-O ) :   0.1641 B(  3-C , 18-H ) :   0.1483 B(  3-C , 19-H ) :   0.1206 
B(  6-S , 15-F ) :   0.6427 B(  6-S , 16-O ) :   1.5213 B(  6-S , 17-O ) :   1.3817 
B(  7-C ,  8-N ) :   0.6760 B(  7-C ,  9-N ) :   1.0138 B(  7-C , 10-H ) :  -0.1090 
B(  7-C , 11-H ) :  -0.2255 B(  7-C , 12-H ) :   0.1161 B(  7-C , 13-H ) :  -0.1865 
B(  7-C , 20-H ) :  -0.1355 B(  8-N ,  9-N ) :   0.1227 B(  8-N , 12-H ) :   0.1156 
B(  8-N , 13-H ) :   1.2547 B(  8-N , 14-H ) :   1.1835 B(  9-N , 10-H ) :   1.0836 
B(  9-N , 11-H ) :   1.2842 B( 10-H , 11-H ) :  -0.2063 B( 13-H , 14-H ) :  -0.1581 


-------
TIMINGS
-------

Total SCF time: 0 days 0 hours 0 min 38 sec 

Total time                  ....      38.202 sec
Sum of individual times     ....      37.369 sec  ( 97.8%)

Fock matrix formation       ....      35.302 sec  ( 92.4%)
  Split-RI-J                ....       5.884 sec  ( 16.7% of F)
  XC integration            ....      28.579 sec  ( 81.0% of F)
    Basis function eval.    ....       3.992 sec  ( 14.0% of XC)
    Density eval.           ....      10.763 sec  ( 37.7% of XC)
    XC-Functional eval.     ....       1.052 sec  (  3.7% of XC)
    XC-Potential eval.      ....      12.151 sec  ( 42.5% of XC)
Diagonalization             ....       0.174 sec  (  0.5%)
Density matrix formation    ....       0.019 sec  (  0.0%)
Population analysis         ....       0.024 sec  (  0.1%)
Initial guess               ....       0.478 sec  (  1.3%)
Orbital Transformation      ....       0.000 sec  (  0.0%)
Orbital Orthonormalization  ....       0.000 sec  (  0.0%)
DIIS solution               ....       0.087 sec  (  0.2%)
SOSCF solution              ....       0.251 sec  (  0.7%)
Grid generation             ....       1.034 sec  (  2.7%)

Maximum memory used throughout the entire SCF-calculation: 44.2 MB


-------------------------------------------------------------------------------
                          DFT DISPERSION CORRECTION                            
                                                                               
                              DFTD3 V3.1  Rev 1                                
                          USING Becke-Johnson damping                          
-------------------------------------------------------------------------------
The TPSS functional is recognized
Active option DFTDOPT                   ...         4   

molecular C6(AA) [au] = 4996.070706 


            DFT-D V3
 parameters
 s6 scaling factor         :     1.0000 
 a1 scaling factor         :     0.4535 
 s8 scaling factor         :     1.9435 
 a2 scaling factor         :     4.4752 
 ad hoc parameters k1-k3   :    16.0000     1.3333    -4.0000 

 Edisp/kcal,au: -19.962459015804  -0.031812199993 
 E6   /kcal   : -10.092299032 
 E8   /kcal   :  -9.870159983 
 % E8         :  49.443608002 

-------------------------   ----------------
Dispersion correction           -0.031812200
-------------------------   ----------------


-------------------------   --------------------
FINAL SINGLE POINT ENERGY      -954.645970794361
-------------------------   --------------------


                            ***************************************
                            *     ORCA property calculations      *
                            ***************************************

                                    ---------------------
                                    Active property flags
                                    ---------------------
   (+) Dipole Moment


------------------------------------------------------------------------------
                       ORCA ELECTRIC PROPERTIES CALCULATION
------------------------------------------------------------------------------

Dipole Moment Calculation                       ... on
Quadrupole Moment Calculation                   ... off
Polarizability Calculation                      ... off
GBWName                                         ... 28Oct_SVPD_TPSS_D1_wb97.gbw
Electron density file                           ... 28Oct_SVPD_TPSS_D1_wb97.scfp
The origin for moment calculation is the CENTER OF MASS  = ( 4.290674,  0.722526 -6.585119)

-------------
DIPOLE MOMENT
-------------
                                X             Y             Z
Electronic contribution:    -15.26644      -6.65303      -1.17565
Nuclear contribution   :     15.92508       5.34175       1.81950
                        -----------------------------------------
Total Dipole Moment    :      0.65864      -1.31127       0.64384
                        -----------------------------------------
Magnitude (a.u.)       :      1.60243
Magnitude (Debye)      :      4.07305



--------------------
Rotational spectrum 
--------------------
 
Rotational constants in cm-1:     0.058561     0.020662     0.017762 
Rotational constants in MHz :  1755.621534   619.433801   532.501507 

 Dipole components along the rotational axes: 
x,y,z [a.u.] :    -0.491945     0.693273    -1.358358 
x,y,z [Debye]:    -1.250424     1.762161    -3.452670 

 

Timings for individual modules:

Sum of individual times         ...       39.131 sec (=   0.652 min)
GTO integral calculation        ...        0.616 sec (=   0.010 min)   1.6 %
SCF iterations                  ...       38.515 sec (=   0.642 min)  98.4 %
                             ****ORCA TERMINATED NORMALLY****
TOTAL RUN TIME: 0 days 0 hours 0 minutes 39 seconds 668 msec
