
                                        *****************
                                        * O   R   C   A *
                                        *****************

                                            #,                                       
                                            ###                                      
                                            ####                                     
                                            #####                                    
                                            ######                                   
                                           ########,                                 
                                     ,,################,,,,,                         
                               ,,#################################,,                 
                          ,,##########################################,,             
                       ,#########################################, ''#####,          
                    ,#############################################,,   '####,        
                  ,##################################################,,,,####,       
                ,###########''''           ''''###############################       
              ,#####''   ,,,,##########,,,,          '''####'''          '####       
            ,##' ,,,,###########################,,,                        '##       
           ' ,,###''''                  '''############,,,                           
         ,,##''                                '''############,,,,        ,,,,,,###''
      ,#''                                            '''#######################'''  
     '                                                          ''''####''''         
             ,#######,   #######,   ,#######,      ##                                
            ,#'     '#,  ##    ##  ,#'     '#,    #''#        ######   ,####,        
            ##       ##  ##   ,#'  ##            #'  '#       #        #'  '#        
            ##       ##  #######   ##           ,######,      #####,   #    #        
            '#,     ,#'  ##    ##  '#,     ,#' ,#      #,         ##   #,  ,#        
             '#######'   ##     ##  '#######'  #'      '#     #####' # '####'        



                  #######################################################
                  #                        -***-                        #
                  #          Department of theory and spectroscopy      #
                  #    Directorship and core code : Frank Neese         #
                  #        Max Planck Institute fuer Kohlenforschung    #
                  #                Kaiser Wilhelm Platz 1               #
                  #                 D-45470 Muelheim/Ruhr               #
                  #                      Germany                        #
                  #                                                     #
                  #                  All rights reserved                #
                  #                        -***-                        #
                  #######################################################


                         Program Version 5.0.0 -  RELEASE  -
                                (SVN: $Rev: 19529$)
                ($Date: 2021-06-28 11:36:33 +0200 (Mo, 28 Jun 2021) $)


 With contributions from (in alphabetic order):
   Daniel Aravena         : Magnetic Suceptibility
   Michael Atanasov       : Ab Initio Ligand Field Theory (pilot matlab implementation)
   Alexander A. Auer      : GIAO ZORA, VPT2 properties, NMR spectrum
   Ute Becker             : Parallelization
   Giovanni Bistoni       : ED, misc. LED, open-shell LED, HFLD
   Martin Brehm           : Molecular dynamics
   Dmytro Bykov           : SCF Hessian
   Vijay G. Chilkuri      : MRCI spin determinant printing, contributions to CSF-ICE
   Dipayan Datta          : RHF DLPNO-CCSD density
   Achintya Kumar Dutta   : EOM-CC, STEOM-CC
   Dmitry Ganyushin       : Spin-Orbit,Spin-Spin,Magnetic field MRCI
   Miquel Garcia          : C-PCM Hessian, Gaussian charge scheme
   Yang Guo               : DLPNO-NEVPT2, F12-NEVPT2, CIM, IAO-localization
   Andreas Hansen         : Spin unrestricted coupled pair/coupled cluster methods
   Benjamin Helmich-Paris : MC-RPA, TRAH-SCF, COSX integrals
   Lee Huntington         : MR-EOM, pCC
   Robert Izsak           : Overlap fitted RIJCOSX, COSX-SCS-MP3, EOM
   Marcus Kettner         : VPT2
   Christian Kollmar      : KDIIS, OOCD, Brueckner-CCSD(T), CCSD density, CASPT2, CASPT2-K
   Simone Kossmann        : Meta GGA functionals, TD-DFT gradient, OOMP2, MP2 Hessian
   Martin Krupicka        : Initial AUTO-CI
   Lucas Lang             : DCDCAS
   Marvin Lechner         : AUTO-CI (C++ implementation), FIC-MRCC
   Dagmar Lenk            : GEPOL surface, SMD
   Dimitrios Liakos       : Extrapolation schemes; Compound Job, initial MDCI parallelization
   Dimitrios Manganas     : Further ROCIS development; embedding schemes
   Dimitrios Pantazis     : SARC Basis sets
   Anastasios Papadopoulos: AUTO-CI, single reference methods and gradients
   Taras Petrenko         : DFT Hessian,TD-DFT gradient, ASA, ECA, R-Raman, ABS, FL, XAS/XES, NRVS
   Peter Pinski           : DLPNO-MP2, DLPNO-MP2 Gradient
   Christoph Reimann      : Effective Core Potentials
   Marius Retegan         : Local ZFS, SOC
   Christoph Riplinger    : Optimizer, TS searches, QM/MM, DLPNO-CCSD(T), (RO)-DLPNO pert. Triples
   Tobias Risthaus        : Range-separated hybrids, TD-DFT gradient, RPA, STAB
   Michael Roemelt        : Original ROCIS implementation
   Masaaki Saitow         : Open-shell DLPNO-CCSD energy and density
   Barbara Sandhoefer     : DKH picture change effects
   Avijit Sen             : IP-ROCIS
   Kantharuban Sivalingam : CASSCF convergence, NEVPT2, FIC-MRCI
   Bernardo de Souza      : ESD, SOC TD-DFT
   Georgi Stoychev        : AutoAux, RI-MP2 NMR
   Willem Van den Heuvel  : Paramagnetic NMR
   Boris Wezisla          : Elementary symmetry handling
   Frank Wennmohs         : Technical directorship


 We gratefully acknowledge several colleagues who have allowed us to
 interface, adapt or use parts of their codes:
   Stefan Grimme, W. Hujo, H. Kruse, P. Pracht,  : VdW corrections, initial TS optimization,
                  C. Bannwarth, S. Ehlert          DFT functionals, gCP, sTDA/sTD-DF
   Ed Valeev, F. Pavosevic, A. Kumar             : LibInt (2-el integral package), F12 methods
   Garnet Chan, S. Sharma, J. Yang, R. Olivares  : DMRG
   Ulf Ekstrom                                   : XCFun DFT Library
   Mihaly Kallay                                 : mrcc  (arbitrary order and MRCC methods)
   Jiri Pittner, Ondrej Demel                    : Mk-CCSD
   Frank Weinhold                                : gennbo (NPA and NBO analysis)
   Christopher J. Cramer and Donald G. Truhlar   : smd solvation model
   Lars Goerigk                                  : TD-DFT with DH, B97 family of functionals
   V. Asgeirsson, H. Jonsson                     : NEB implementation
   FAccTs GmbH                                   : IRC, NEB, NEB-TS, DLPNO-Multilevel, CI-OPT
                                                   MM, QMMM, 2- and 3-layer-ONIOM, Crystal-QMMM,
                                                   LR-CPCM, SF, NACMEs, symmetry and pop. for TD-DFT,
                                                   nearIR, NL-DFT gradient (VV10), updates on ESD,
                                                   ML-optimized integration grids
   S Lehtola, MJT Oliveira, MAL Marques          : LibXC Library
   Liviu Ungur et al                             : ANISO software


 Your calculation uses the libint2 library for the computation of 2-el integrals
 For citations please refer to: http://libint.valeyev.net

 Your ORCA version has been built with support for libXC version: 5.1.0
 For citations please refer to: https://tddft.org/programs/libxc/

 This ORCA versions uses:
   CBLAS   interface :  Fast vector & matrix operations
   LAPACKE interface :  Fast linear algebra routines
   SCALAPACK package :  Parallel linear algebra routines
   Shared memory     :  Shared parallel matrices
   BLAS/LAPACK       :  OpenBLAS 0.3.15  USE64BITINT DYNAMIC_ARCH NO_AFFINITY Haswell SINGLE_THREADED
        Core in use  :  Haswell
   Copyright (c) 2011-2014, The OpenBLAS Project




***************************************
The coordinates will be read from file: D1.xyz
***************************************


Your calculation utilizes the atom-pairwise dispersion correction
with the zero-damping scheme (D30)
Cite in your paper:
S.Grimme, J.Antony, S.Ehrlich and H.Krieg, J.Chem.Phys., 132, (2010), 154104 
   

XCFun DFT library Copyright 2009-2010 Ulf Ekstrom and contributors.
See http://admol.org/xcfun for more information.
This is free software; see the source code for copying conditions.
There is ABSOLUTELY NO WARRANTY; not even for MERCHANTABILITY or FITNESS FOR A PARTICULAR PURPOSE.
For details see the documentation.
Scientific users of this library should cite U. Ekstrom, L. Visscher, R. Bast, A. J. Thorvaldsen and K. Ruud;
J.Chem.Theor.Comp. 2010, DOI: 10.1021/ct100117s
XCFun Version 0.99 

================================================================================

----- Orbital basis set information -----
Your calculation utilizes the basis: def2-TZVP
   F. Weigend and R. Ahlrichs, Phys. Chem. Chem. Phys. 7, 3297 (2005).

----- AuxJ basis set information -----
Your calculation utilizes the auxiliary basis: def2/J
   F. Weigend, Phys. Chem. Chem. Phys. 8, 1057 (2006).

================================================================================
                                        WARNINGS
                       Please study these warnings very carefully!
================================================================================


WARNING: Minnesota functionals are quite sensitive to the integration grid.
         see SE Wheeler, KN Houk, JCTC 2010, 6, 395,
             N Mardirossian, M Head-Gordon, JCTC 2016, 12, 4303.
         DEFGRID3 seems to be a minimum grid for reliable results with these functionals!
  ===> : Please increase the integration grid!


INFO   : the flag for use of the SHARK integral package has been found!

================================================================================
                                       INPUT FILE
================================================================================
NAME = M062X_D1_wb97.com
|  1> !M062X D3Zero RIJCOSX def2-TZVP def2/J TightSCF xyzfile                                                                                         
|  2> 
|  3> *xyzfile 0 1 D1.xyz
|  4> 
|  5> %MaxCore 64000
|  6> 
|  7> %pal nprocs 18                                                                                                                                                  
|  8> end  
|  9> 
| 10> %scf
| 11>   MaxIter 150
| 12> end
| 13> 
| 14> 
| 15>                          ****END OF INPUT****
================================================================================

                       ****************************
                       * Single Point Calculation *
                       ****************************

---------------------------------
CARTESIAN COORDINATES (ANGSTROEM)
---------------------------------
  C      1.963365   -1.749150   -1.896887
  C      2.738490   -2.015170   -3.097113
  C      0.611877    1.657634   -4.500288
  C      1.694991    1.541794   -5.570447
  H      2.697326    1.734659   -5.183996
  H      1.506656    2.272239   -6.358076
  S      1.780287   -0.033128   -6.428739
  C      4.049736   -2.154717   -3.152044
  N      4.658206   -1.986293   -4.318655
  N      4.764231   -2.454435   -2.050491
  H      4.287363   -2.776259   -1.217496
  H      5.750825   -2.658351   -2.125988
  H      2.345176   -1.690274   -3.971447
  H      4.109004   -1.592677   -5.071760
  H      5.649095   -2.156462   -4.427237
  F      2.569287    0.213657   -7.607360
  O      0.416880   -0.462969   -6.618595
  C      2.088520   -0.300912   -1.415204
  H      2.231272   -2.451616   -1.102643
  H      0.930249   -1.977801   -2.155438
  C      0.680356    0.655418   -3.348038
  H     -0.356865    1.549231   -4.991128
  H      0.650228    2.675438   -4.096000
  C      1.968993    0.733582   -2.535654
  H      3.051356   -0.168602   -0.911868
  H      1.316501   -0.136231   -0.657252
  O      2.505129   -0.933263   -5.482570
  H      2.824195    0.624726   -3.208464
  H      2.058919    1.730331   -2.093112
  H      0.542252   -0.344731   -3.766662
  H     -0.174219    0.829692   -2.685182

----------------------------
CARTESIAN COORDINATES (A.U.)
----------------------------
  NO LB      ZA    FRAG     MASS         X           Y           Z
   0 C     6.0000    0    12.011    3.710222   -3.305415   -3.584597
   1 C     6.0000    0    12.011    5.174997   -3.808120   -5.852696
   2 C     6.0000    0    12.011    1.156280    3.132474   -8.504312
   3 C     6.0000    0    12.011    3.203068    2.913568  -10.526619
   4 H     1.0000    0     1.008    5.097208    3.278030   -9.796333
   5 H     1.0000    0     1.008    2.847167    4.293910  -12.015023
   6 S    16.0000    0    32.060    3.364256   -0.062603  -12.148556
   7 C     6.0000    0    12.011    7.652892   -4.071825   -5.956500
   8 N     7.0000    0    14.007    8.802733   -3.753550   -8.161076
   9 N     7.0000    0    14.007    9.003091   -4.638210   -3.874866
  10 H     1.0000    0     1.008    8.101942   -5.246370   -2.300735
  11 H     1.0000    0     1.008   10.867484   -5.023556   -4.017536
  12 H     1.0000    0     1.008    4.431741   -3.194155   -7.504948
  13 H     1.0000    0     1.008    7.764891   -3.009723   -9.584237
  14 H     1.0000    0     1.008   10.675243   -4.075122   -8.366265
  15 F     9.0000    0    18.998    4.855249    0.403753  -14.375827
  16 O     8.0000    0    15.999    0.787789   -0.874885  -12.507332
  17 C     6.0000    0    12.011    3.946732   -0.568641   -2.674348
  18 H     1.0000    0     1.008    4.216494   -4.632882   -2.083694
  19 H     1.0000    0     1.008    1.757916   -3.737502   -4.073188
  20 C     6.0000    0    12.011    1.285686    1.238561   -6.326874
  21 H     1.0000    0     1.008   -0.674378    2.927622   -9.431864
  22 H     1.0000    0     1.008    1.228753    5.055845   -7.740318
  23 C     6.0000    0    12.011    3.720857    1.386269   -4.791692
  24 H     1.0000    0     1.008    5.766228   -0.318612   -1.723180
  25 H     1.0000    0     1.008    2.487826   -0.257439   -1.242026
  26 O     8.0000    0    15.999    4.734008   -1.763612  -10.360556
  27 H     1.0000    0     1.008    5.336955    1.180561   -6.063119
  28 H     1.0000    0     1.008    3.890793    3.269851   -3.955409
  29 H     1.0000    0     1.008    1.024707   -0.651447   -7.117959
  30 H     1.0000    0     1.008   -0.329227    1.567891   -5.074259

--------------------------------
INTERNAL COORDINATES (ANGSTROEM)
--------------------------------
 C      0   0   0     0.000000000000     0.00000000     0.00000000
 C      1   0   0     1.453316573840     0.00000000     0.00000000
 C      2   1   0     4.469997209231    81.66861305     0.00000000
 C      3   2   1     1.527021216669    79.64251634   166.12135406
 H      4   3   2     1.091429426821   112.94516578   291.55283625
 H      4   3   2     1.090587222827   109.44091494   172.19645502
 S      4   3   2     1.795638661190   115.79861088    54.44719017
 C      2   1   3     1.319793651653   125.70564975   125.09350255
 N      8   2   1     1.326492940223   118.61448699   200.38152835
 N      8   2   1     1.346756797244   121.10322660    20.01725842
 H     10   8   2     1.012350189617   119.59467170    13.56884806
 H     10   8   2     1.010272041928   120.12521212   173.22938336
 H      2   1   3     1.012281232535   116.57273408   332.44021856
 H      9   8   2     1.011792023943   117.06639684    10.99993176
 H      9   8   2     1.011241515739   121.50281050   185.08038097
 F      7   4   3     1.439642608659   105.48622831   163.81969223
 O      7   4   3     1.442112520958   106.22702210    38.41533571
 C      1   2   3     1.531364370737   112.91008412   309.77008032
 H      1   2   3     1.093643007341   110.58150833   184.66977938
 H      1   2   3     1.089246810669   105.74823995    70.75156459
 C      3   2   1     1.528661675104    37.19169818   353.30733645
 H      3   2   1     1.091392203112   118.80650564   270.92486636
 H      3   2   1     1.095830634114   129.10111041    61.64766166
 C     21   3   2     1.525339804606   113.93485678    68.35194369
 H     18   1   2     1.094489175769   109.32195284   283.03662940
 H     18   1   2     1.094360929868   107.60847921   167.76527056
 O      7   4   3     1.493611307442   104.40877094   280.72723475
 H     24  21   3     1.093569726740   109.14128749   305.09838428
 H     24  21   3     1.094275188126   109.35928518    60.61257975
 H     21   3   2     1.092985565182   107.79245554   304.75322685
 H     21   3   2     1.095466463975   108.47249356   190.17892582

---------------------------
INTERNAL COORDINATES (A.U.)
---------------------------
 C      0   0   0     0.000000000000     0.00000000     0.00000000
 C      1   0   0     2.746370310446     0.00000000     0.00000000
 C      2   1   0     8.447070544838    81.66861305     0.00000000
 C      3   2   1     2.885651900191    79.64251634   166.12135406
 H      4   3   2     2.062502711195   112.94516578   291.55283625
 H      4   3   2     2.060911176296   109.44091494   172.19645502
 S      4   3   2     3.393265305130   115.79861088    54.44719017
 C      2   1   3     2.494048554913   125.70564975   125.09350255
 N      8   2   1     2.506708375602   118.61448699   200.38152835
 N      8   2   1     2.545001515788   121.10322660    20.01725842
 H     10   8   2     1.913064609999   119.59467170    13.56884806
 H     10   8   2     1.909137480001   120.12521212   173.22938336
 H      2   1   3     1.912934300000   116.57273408   332.44021856
 H      9   8   2     1.912009829738   117.06639684    10.99993176
 H      9   8   2     1.910969519999   121.50281050   185.08038097
 F      7   4   3     2.720530261090   105.48622831   163.81969223
 O      7   4   3     2.725197718909   106.22702210    38.41533571
 C      1   2   3     2.893859271938   112.91008412   309.77008032
 H      1   2   3     2.066685772153   110.58150833   184.66977938
 H      1   2   3     2.058378164411   105.74823995    70.75156459
 C      3   2   1     2.888751917368    37.19169818   353.30733645
 H      3   2   1     2.062432368579   118.80650564   270.92486636
 H      3   2   1     2.070819787638   129.10111041    61.64766166
 C     21   3   2     2.882474491874   113.93485678    68.35194369
 H     18   1   2     2.068284798745   109.32195284   283.03662940
 H     18   1   2     2.068042449114   107.60847921   167.76527056
 O      7   4   3     2.822516321593   104.40877094   280.72723475
 H     24  21   3     2.066547291886   109.14128749   305.09838428
 H     24  21   3     2.067880420702   109.35928518    60.61257975
 H     21   3   2     2.065443386523   107.79245554   304.75322685
 H     21   3   2     2.070131605807   108.47249356   190.17892582

---------------------
BASIS SET INFORMATION
---------------------
There are 6 groups of distinct atoms

 Group   1 Type C   : 11s6p2d1f contracted to 5s3p2d1f pattern {62111/411/11/1}
 Group   2 Type H   : 5s1p contracted to 3s1p pattern {311/1}
 Group   3 Type S   : 14s9p3d1f contracted to 5s5p2d1f pattern {73211/51111/21/1}
 Group   4 Type N   : 11s6p2d1f contracted to 5s3p2d1f pattern {62111/411/11/1}
 Group   5 Type F   : 11s6p2d1f contracted to 5s3p2d1f pattern {62111/411/11/1}
 Group   6 Type O   : 11s6p2d1f contracted to 5s3p2d1f pattern {62111/411/11/1}

Atom   0C    basis set group =>   1
Atom   1C    basis set group =>   1
Atom   2C    basis set group =>   1
Atom   3C    basis set group =>   1
Atom   4H    basis set group =>   2
Atom   5H    basis set group =>   2
Atom   6S    basis set group =>   3
Atom   7C    basis set group =>   1
Atom   8N    basis set group =>   4
Atom   9N    basis set group =>   4
Atom  10H    basis set group =>   2
Atom  11H    basis set group =>   2
Atom  12H    basis set group =>   2
Atom  13H    basis set group =>   2
Atom  14H    basis set group =>   2
Atom  15F    basis set group =>   5
Atom  16O    basis set group =>   6
Atom  17C    basis set group =>   1
Atom  18H    basis set group =>   2
Atom  19H    basis set group =>   2
Atom  20C    basis set group =>   1
Atom  21H    basis set group =>   2
Atom  22H    basis set group =>   2
Atom  23C    basis set group =>   1
Atom  24H    basis set group =>   2
Atom  25H    basis set group =>   2
Atom  26O    basis set group =>   6
Atom  27H    basis set group =>   2
Atom  28H    basis set group =>   2
Atom  29H    basis set group =>   2
Atom  30H    basis set group =>   2
---------------------------------
AUXILIARY/J BASIS SET INFORMATION
---------------------------------
There are 6 groups of distinct atoms

 Group   1 Type C   : 12s5p4d2f1g contracted to 6s4p3d1f1g pattern {711111/2111/211/2/1}
 Group   2 Type H   : 5s2p1d contracted to 3s1p1d pattern {311/2/1}
 Group   3 Type S   : 14s5p5d2f1g contracted to 8s4p3d1f1g pattern {71111111/2111/311/2/1}
 Group   4 Type N   : 12s5p4d2f1g contracted to 6s4p3d1f1g pattern {711111/2111/211/2/1}
 Group   5 Type F   : 12s5p4d2f1g contracted to 6s4p3d1f1g pattern {711111/2111/211/2/1}
 Group   6 Type O   : 12s5p4d2f1g contracted to 6s4p3d1f1g pattern {711111/2111/211/2/1}

Atom   0C    basis set group =>   1
Atom   1C    basis set group =>   1
Atom   2C    basis set group =>   1
Atom   3C    basis set group =>   1
Atom   4H    basis set group =>   2
Atom   5H    basis set group =>   2
Atom   6S    basis set group =>   3
Atom   7C    basis set group =>   1
Atom   8N    basis set group =>   4
Atom   9N    basis set group =>   4
Atom  10H    basis set group =>   2
Atom  11H    basis set group =>   2
Atom  12H    basis set group =>   2
Atom  13H    basis set group =>   2
Atom  14H    basis set group =>   2
Atom  15F    basis set group =>   5
Atom  16O    basis set group =>   6
Atom  17C    basis set group =>   1
Atom  18H    basis set group =>   2
Atom  19H    basis set group =>   2
Atom  20C    basis set group =>   1
Atom  21H    basis set group =>   2
Atom  22H    basis set group =>   2
Atom  23C    basis set group =>   1
Atom  24H    basis set group =>   2
Atom  25H    basis set group =>   2
Atom  26O    basis set group =>   6
Atom  27H    basis set group =>   2
Atom  28H    basis set group =>   2
Atom  29H    basis set group =>   2
Atom  30H    basis set group =>   2


           ************************************************************
           *        Program running with 18 parallel MPI-processes    *
           *              working on a common directory               *
           ************************************************************
------------------------------------------------------------------------------
                           ORCA GTO INTEGRAL CALCULATION
                           -- RI-GTO INTEGRALS CHOSEN --
------------------------------------------------------------------------------
------------------------------------------------------------------------------
                   ___                                                        
                  /   \      - P O W E R E D   B Y -                         
                 /     \                                                     
                 |  |  |   _    _      __       _____    __    __             
                 |  |  |  | |  | |    /  \     |  _  \  |  |  /  |          
                  \  \/   | |  | |   /    \    | | | |  |  | /  /          
                 / \  \   | |__| |  /  /\  \   | |_| |  |  |/  /          
                |  |  |   |  __  | /  /__\  \  |    /   |      \           
                |  |  |   | |  | | |   __   |  |    \   |  |\   \          
                \     /   | |  | | |  |  |  |  | |\  \  |  | \   \       
                 \___/    |_|  |_| |__|  |__|  |_| \__\ |__|  \__/        
                                                                              
                      - O R C A' S   B I G   F R I E N D -                    
                                      &                                       
                       - I N T E G R A L  F E E D E R -                       
                                                                              
 v1 FN, 2020, v2 2021                                                         
------------------------------------------------------------------------------


Reading SHARK input file M062X_D1_wb97.SHARKINP.tmp ... ok
----------------------
SHARK INTEGRAL PACKAGE
----------------------

Number of atoms                             ...     31
Number of basis functions                   ...    542
Number of shells                            ...    224
Maximum angular momentum                    ...      3
Integral batch strategy                     ... SHARK/LIBINT Hybrid
RI-J (if used) integral strategy            ... SPLIT-RIJ (Revised 2003 algorithm where possible)
Printlevel                                  ...      1
Contraction scheme used                     ... SEGMENTED contraction
Coulomb Range Separation                    ... NOT USED
Exchange Range Separation                   ... NOT USED
Finite Nucleus Model                        ... NOT USED
Auxiliary Coulomb fitting basis             ... AVAILABLE
   # of basis functions in Aux-J            ...    875
   # of shells in Aux-J                     ...    297
   Maximum angular momentum in Aux-J        ...      4
Auxiliary J/K fitting basis                 ... NOT available
Auxiliary Correlation fitting basis         ... NOT available
Auxiliary 'external' fitting basis          ... NOT available
Integral threshold                          ...     2.500000e-11
Primitive cut-off                           ...     2.500000e-12
Primitive pair pre-selection threshold      ...     2.500000e-12

Calculating pre-screening integrals         ... done (  0.2 sec) Dimension = 224
Organizing shell pair data                  ... done (  0.2 sec)
Shell pair information
Total number of shell pairs                 ...     25200
Shell pairs after pre-screening             ...     20452
Total number of primitive shell pairs       ...     76228
Primitive shell pairs kept                  ...     42909
          la=0 lb=0:   5868 shell pairs
          la=1 lb=0:   6083 shell pairs
          la=1 lb=1:   1618 shell pairs
          la=2 lb=0:   2711 shell pairs
          la=2 lb=1:   1432 shell pairs
          la=2 lb=2:    340 shell pairs
          la=3 lb=0:   1305 shell pairs
          la=3 lb=1:    697 shell pairs
          la=3 lb=2:    317 shell pairs
          la=3 lb=3:     81 shell pairs

Calculating one electron integrals          ... done (  0.0 sec)
Calculating RI/J V-Matrix + Cholesky decomp.... done (  0.1 sec)
Calculating Nuclear repulsion               ... done (  0.0 sec) ENN=   1184.694111883508 Eh

SHARK setup successfully completed in   0.8 seconds

Maximum memory used throughout the entire GTOINT-calculation: 31.9 MB


           ************************************************************
           *        Program running with 18 parallel MPI-processes    *
           *              working on a common directory               *
           ************************************************************
-------------------------------------------------------------------------------
                                 ORCA SCF
-------------------------------------------------------------------------------

------------
SCF SETTINGS
------------
Hamiltonian:
 Density Functional     Method          .... DFT(GTOs)
 Exchange Functional    Exchange        .... M062X
 Correlation Functional Correlation     .... M062X
 Gradients option       PostSCFGGA      .... off
 Hybrid DFT is turned on
   Fraction HF Exchange ScalHFX         ....  0.540000
   Scaling of DF-GGA-X  ScalDFX         ....  0.460000
   Scaling of DF-GGA-C  ScalDFC         ....  1.000000
   Scaling of DF-LDA-C  ScalLDAC        ....  1.000000
   Perturbative correction              ....  0.000000
   Density functional embedding theory  .... OFF
 RI-approximation to the Coulomb term is turned on
   Number of AuxJ basis functions       .... 875
   RIJ-COSX (HFX calculated with COS-X)).... on


General Settings:
 Integral files         IntName         .... M062X_D1_wb97
 Hartree-Fock type      HFTyp           .... RHF
 Total Charge           Charge          ....    0
 Multiplicity           Mult            ....    1
 Number of Electrons    NEL             ....  120
 Basis Dimension        Dim             ....  542
 Nuclear Repulsion      ENuc            ....   1184.6941118835 Eh

Convergence Acceleration:
 DIIS                   CNVDIIS         .... on
   Start iteration      DIISMaxIt       ....    12
   Startup error        DIISStart       ....  0.200000
   # of expansion vecs  DIISMaxEq       ....     5
   Bias factor          DIISBfac        ....   1.050
   Max. coefficient     DIISMaxC        ....  10.000
 Trust-Rad. Augm. Hess. CNVTRAH         .... auto
   Auto Start mean grad. ratio tolernc. ....  1.125000
   Auto Start start iteration           ....    20
   Auto Start num. interpolation iter.  ....    10
   Max. Number of Micro iterations      ....    16
   Max. Number of Macro iterations      .... Maxiter - #DIIS iter
   Number of Davidson start vectors     ....     2
   Converg. threshold I  (grad. norm)   ....   1.000e-05
   Converg. threshold II (energy diff.) ....   1.000e-08
   Grad. Scal. Fac. for Micro threshold ....   0.100
   Minimum threshold for Micro iter.    ....   0.010
   NR start threshold (gradient norm)   ....   0.001
   Initial trust radius                 ....   0.400
   Minimum AH scaling param. (alpha)    ....   1.000
   Maximum AH scaling param. (alpha)    .... 1000.000
   Orbital update algorithm             .... Taylor
   White noise on init. David. guess    .... on
   Maximum white noise                  ....   0.010
   Quad. conv. algorithm                .... NR
 SOSCF                  CNVSOSCF        .... on
   Start iteration      SOSCFMaxIt      ....   150
   Startup grad/error   SOSCFStart      ....  0.003300
 Level Shifting         CNVShift        .... on
   Level shift para.    LevelShift      ....    0.2500
   Turn off err/grad.   ShiftErr        ....    0.0010
 Zerner damping         CNVZerner       .... off
 Static damping         CNVDamp         .... on
   Fraction old density DampFac         ....    0.7000
   Max. Damping (<1)    DampMax         ....    0.9800
   Min. Damping (>=0)   DampMin         ....    0.0000
   Turn off err/grad.   DampErr         ....    0.1000
 Fernandez-Rico         CNVRico         .... off

SCF Procedure:
 Maximum # iterations   MaxIter         ....   150
 SCF integral mode      SCFMode         .... Direct
   Integral package                     .... SHARK and LIBINT hybrid scheme
 Reset frequency        DirectResetFreq ....    20
 Integral Threshold     Thresh          ....  2.500e-11 Eh
 Primitive CutOff       TCut            ....  2.500e-12 Eh

Convergence Tolerance:
 Convergence Check Mode ConvCheckMode   .... Total+1el-Energy
 Convergence forced     ConvForced      .... 0
 Energy Change          TolE            ....  1.000e-08 Eh
 1-El. energy change                    ....  1.000e-05 Eh
 Orbital Gradient       TolG            ....  1.000e-05
 Orbital Rotation angle TolX            ....  1.000e-05
 DIIS Error             TolErr          ....  5.000e-07


Diagonalization of the overlap matrix:
Smallest eigenvalue                        ... 5.707e-05
Time for diagonalization                   ...    0.075 sec
Threshold for overlap eigenvalues          ... 1.000e-08
Number of eigenvalues below threshold      ... 0
Time for construction of square roots      ...    0.242 sec
Total time needed                          ...    0.320 sec

Time for model grid setup =    0.197 sec

------------------------------
INITIAL GUESS: MODEL POTENTIAL
------------------------------
Loading Hartree-Fock densities                     ... done
Calculating cut-offs                               ... done
Initializing the effective Hamiltonian             ... done
Setting up the integral package (SHARK)            ... done
Starting the Coulomb interaction                   ... done (   0.2 sec)
Reading the grid                                   ... done
Mapping shells                                     ... done
Starting the XC term evaluation                    ... done (   0.2 sec)
  promolecular density results
     # of electrons  =    119.989546025
     EX              =   -110.523457557
     EC              =     -4.160097073
     EX+EC           =   -114.683554630
Transforming the Hamiltonian                       ... done (   0.1 sec)
Diagonalizing the Hamiltonian                      ... done (   0.1 sec)
Back transforming the eigenvectors                 ... done (   0.0 sec)
Now organizing SCF variables                       ... done
                      ------------------
                      INITIAL GUESS DONE (   0.8 sec)
                      ------------------
-------------------
DFT GRID GENERATION
-------------------

General Integration Accuracy     IntAcc      ... 4.388
Radial Grid Type                 RadialGrid  ... OptM3 with GC (2021)
Angular Grid (max. ang.)         AngularGrid ... 4 (Lebedev-302)
Angular grid pruning method      GridPruning ... 4 (adaptive)
Weight generation scheme         WeightScheme... Becke
Basis function cutoff            BFCut       ... 1.0000e-11
Integration weight cutoff        WCut        ... 1.0000e-14
Angular grids for H and He will be reduced by one unit
Partially contracted basis set               ... off
Rotationally invariant grid construction     ... off

Total number of grid points                  ...   138819
Total number of batches                      ...     2184
Average number of points per batch           ...       63
Average number of grid points per atom       ...     4478
Time for grid setup =    1.090 sec

--------------------
COSX GRID GENERATION
--------------------

GRIDX 1
-------
General Integration Accuracy     IntAcc      ... 3.816
Radial Grid Type                 RadialGrid  ... OptM3 with GC (2021)
Angular Grid (max. ang.)         AngularGrid ... 1 (Lebedev-50)
Angular grid pruning method      GridPruning ... 4 (adaptive)
Weight generation scheme         WeightScheme... Becke
Basis function cutoff            BFCut       ... 1.0000e-11
Integration weight cutoff        WCut        ... 1.0000e-14
Angular grids for H and He will be reduced by one unit
Partially contracted basis set               ... on
Rotationally invariant grid construction     ... off

Total number of grid points                  ...    17608
Total number of batches                      ...      297
Average number of points per batch           ...       59
Average number of grid points per atom       ...      568
UseSFitting                                  ... on

GRIDX 2
-------
General Integration Accuracy     IntAcc      ... 4.020
Radial Grid Type                 RadialGrid  ... OptM3 with GC (2021)
Angular Grid (max. ang.)         AngularGrid ... 2 (Lebedev-110)
Angular grid pruning method      GridPruning ... 4 (adaptive)
Weight generation scheme         WeightScheme... Becke
Basis function cutoff            BFCut       ... 1.0000e-11
Integration weight cutoff        WCut        ... 1.0000e-14
Angular grids for H and He will be reduced by one unit
Partially contracted basis set               ... on
Rotationally invariant grid construction     ... off

Total number of grid points                  ...    37349
Total number of batches                      ...      602
Average number of points per batch           ...       62
Average number of grid points per atom       ...     1205
UseSFitting                                  ... on

GRIDX 3
-------
General Integration Accuracy     IntAcc      ... 4.338
Radial Grid Type                 RadialGrid  ... OptM3 with GC (2021)
Angular Grid (max. ang.)         AngularGrid ... 3 (Lebedev-194)
Angular grid pruning method      GridPruning ... 4 (adaptive)
Weight generation scheme         WeightScheme... Becke
Basis function cutoff            BFCut       ... 1.0000e-11
Integration weight cutoff        WCut        ... 1.0000e-14
Angular grids for H and He will be reduced by one unit
Partially contracted basis set               ... on
Rotationally invariant grid construction     ... off

Total number of grid points                  ...    81914
Total number of batches                      ...     1297
Average number of points per batch           ...       63
Average number of grid points per atom       ...     2642
UseSFitting                                  ... on

Time for X-Grid setup             =    1.180 sec

--------------
SCF ITERATIONS
--------------
ITER       Energy         Delta-E        Max-DP      RMS-DP      [F,P]     Damp
               ***  Starting incremental Fock matrix formation  ***
  0  -1072.2304162924   0.000000000000 0.26715889  0.00143128  0.2891747 0.7000
  1  -1072.5633554524  -0.332939159986 0.21318810  0.00112756  0.1376308 0.7000
                               ***Turning on DIIS***
  2  -1072.7001910423  -0.136835589920 0.28165068  0.00189348  0.0610079 0.0000
  3  -1072.9188826403  -0.218691597974 0.20312538  0.00090291  0.0661233 0.0000
  4  -1072.9638637723  -0.044981131975 0.06912209  0.00029699  0.0112473 0.0000
  5  -1072.9653933803  -0.001529608071 0.01365955  0.00009615  0.0083744 0.0000
                      *** Initiating the SOSCF procedure ***
                           *** Shutting down DIIS ***
                      *** Re-Reading the Fockian *** 
                      *** Removing any level shift *** 
ITER      Energy       Delta-E        Grad      Rot      Max-DP    RMS-DP
  6  -1072.96561228  -0.0002189045  0.000348  0.000348  0.006924  0.000046
               *** Restarting incremental Fock matrix formation ***
  7  -1072.96563017  -0.0000178846  0.000218  0.000765  0.007257  0.000044
  8  -1072.96563486  -0.0000046948  0.000070  0.000353  0.003454  0.000023
  9  -1072.96563517  -0.0000003093  0.000083  0.000118  0.001685  0.000010
 10  -1072.96563567  -0.0000004956  0.000010  0.000023  0.000217  0.000002
 11  -1072.96563566   0.0000000041  0.000009  0.000011  0.000120  0.000001
 12  -1072.96563568  -0.0000000131  0.000003  0.000010  0.000046  0.000000
                  ***Gradient check signals convergence***
              ***Rediagonalizing the Fockian in SOSCF/NRSCF***

               *****************************************************
               *                     SUCCESS                       *
               *           SCF CONVERGED AFTER  13 CYCLES          *
               *****************************************************

Old exchange energy                            =    -60.857431924 Eh
New exchange energy                            =    -60.857377641 Eh
Exchange energy change after final integration =      0.000054283 Eh
Total energy after final integration           =  -1072.965581379 Eh
Final COS-X integration done in                =     6.281 sec

----------------
TOTAL SCF ENERGY
----------------

Total Energy       :        -1072.96558138 Eh          -29196.87781 eV

Components:
Nuclear Repulsion  :         1184.69411188 Eh           32237.16569 eV
Electronic Energy  :        -2257.65969326 Eh          -61434.04350 eV
One Electron Energy:        -3824.48100035 Eh         -104069.41881 eV
Two Electron Energy:         1566.82130708 Eh           42635.37531 eV
Max COSX asymmetry :            0.00002280 Eh               0.00062 eV

Virial components:
Potential Energy   :        -2143.01971347 Eh          -58314.53106 eV
Kinetic Energy     :         1070.05413209 Eh           29117.65325 eV
Virial Ratio       :            2.00272084


DFT components:
N(Alpha)           :       59.999968649998 electrons
N(Beta)            :       59.999968649998 electrons
N(Total)           :      119.999937299996 electrons
E(XC)              :      -56.287498570477 Eh       
DFET-embed. en.    :        0.000000000000 Eh       

---------------
SCF CONVERGENCE
---------------

  Last Energy change         ...    1.5248e-08  Tolerance :   1.0000e-08
  Last MAX-Density change    ...    1.7764e-15  Tolerance :   1.0000e-07
  Last RMS-Density change    ...    1.5125e-17  Tolerance :   5.0000e-09
  Last Orbital Gradient      ...    2.3872e-06  Tolerance :   1.0000e-05
  Last Orbital Rotation      ...    3.2163e-06  Tolerance :   1.0000e-05

             **** THE GBW FILE WAS UPDATED (M062X_D1_wb97.gbw) ****
             **** DENSITY M062X_D1_wb97.scfp WAS UPDATED ****
             **** ENERGY FILE WAS UPDATED (M062X_D1_wb97.en.tmp) ****
             **** THE GBW FILE WAS UPDATED (M062X_D1_wb97.gbw) ****
             **** DENSITY M062X_D1_wb97.scfp WAS UPDATED ****
----------------
ORBITAL ENERGIES
----------------

  NO   OCC          E(Eh)            E(eV) 
   0   2.0000     -90.162002     -2453.4328 
   1   2.0000     -25.378724      -690.5902 
   2   2.0000     -19.651118      -534.7341 
   3   2.0000     -19.637650      -534.3676 
   4   2.0000     -14.728771      -400.7902 
   5   2.0000     -14.713260      -400.3682 
   6   2.0000     -10.599747      -288.4338 
   7   2.0000     -10.559921      -287.3500 
   8   2.0000     -10.557030      -287.2714 
   9   2.0000     -10.527920      -286.4793 
  10   2.0000     -10.515782      -286.1490 
  11   2.0000     -10.505323      -285.8644 
  12   2.0000     -10.493169      -285.5337 
  13   2.0000     -10.421026      -283.5705 
  14   2.0000      -8.487654      -230.9608 
  15   2.0000      -6.412350      -174.4889 
  16   2.0000      -6.407283      -174.3510 
  17   2.0000      -6.407053      -174.3448 
  18   2.0000      -1.542936       -41.9854 
  19   2.0000      -1.238912       -33.7125 
  20   2.0000      -1.138387       -30.9771 
  21   2.0000      -1.047560       -28.5055 
  22   2.0000      -0.952237       -25.9117 
  23   2.0000      -0.936465       -25.4825 
  24   2.0000      -0.890468       -24.2309 
  25   2.0000      -0.854295       -23.2466 
  26   2.0000      -0.822229       -22.3740 
  27   2.0000      -0.783890       -21.3307 
  28   2.0000      -0.742333       -20.1999 
  29   2.0000      -0.709655       -19.3107 
  30   2.0000      -0.703800       -19.1514 
  31   2.0000      -0.679993       -18.5035 
  32   2.0000      -0.672533       -18.3005 
  33   2.0000      -0.632815       -17.2198 
  34   2.0000      -0.627806       -17.0835 
  35   2.0000      -0.598660       -16.2904 
  36   2.0000      -0.573919       -15.6171 
  37   2.0000      -0.566953       -15.4276 
  38   2.0000      -0.560160       -15.2427 
  39   2.0000      -0.541148       -14.7254 
  40   2.0000      -0.534565       -14.5462 
  41   2.0000      -0.514372       -13.9968 
  42   2.0000      -0.501773       -13.6539 
  43   2.0000      -0.492992       -13.4150 
  44   2.0000      -0.481242       -13.0953 
  45   2.0000      -0.472638       -12.8611 
  46   2.0000      -0.448271       -12.1981 
  47   2.0000      -0.443790       -12.0761 
  48   2.0000      -0.435997       -11.8641 
  49   2.0000      -0.428431       -11.6582 
  50   2.0000      -0.420221       -11.4348 
  51   2.0000      -0.396671       -10.7940 
  52   2.0000      -0.395186       -10.7536 
  53   2.0000      -0.392977       -10.6934 
  54   2.0000      -0.385232       -10.4827 
  55   2.0000      -0.370453       -10.0805 
  56   2.0000      -0.356625        -9.7043 
  57   2.0000      -0.344035        -9.3617 
  58   2.0000      -0.309091        -8.4108 
  59   2.0000      -0.187768        -5.1094 
  60   0.0000       0.050503         1.3742 
  61   0.0000       0.061744         1.6801 
  62   0.0000       0.065508         1.7826 
  63   0.0000       0.084086         2.2881 
  64   0.0000       0.087778         2.3885 
  65   0.0000       0.096448         2.6245 
  66   0.0000       0.097482         2.6526 
  67   0.0000       0.105340         2.8664 
  68   0.0000       0.114414         3.1134 
  69   0.0000       0.120682         3.2839 
  70   0.0000       0.128858         3.5064 
  71   0.0000       0.137859         3.7513 
  72   0.0000       0.140933         3.8350 
  73   0.0000       0.145107         3.9486 
  74   0.0000       0.157497         4.2857 
  75   0.0000       0.163647         4.4531 
  76   0.0000       0.167534         4.5588 
  77   0.0000       0.172446         4.6925 
  78   0.0000       0.177115         4.8195 
  79   0.0000       0.193343         5.2611 
  80   0.0000       0.200623         5.4592 
  81   0.0000       0.203898         5.5484 
  82   0.0000       0.222650         6.0586 
  83   0.0000       0.225536         6.1372 
  84   0.0000       0.242650         6.6029 
  85   0.0000       0.248161         6.7528 
  86   0.0000       0.250652         6.8206 
  87   0.0000       0.255107         6.9418 
  88   0.0000       0.264316         7.1924 
  89   0.0000       0.265737         7.2311 
  90   0.0000       0.282431         7.6853 
  91   0.0000       0.290839         7.9141 
  92   0.0000       0.300751         8.1839 
  93   0.0000       0.303417         8.2564 
  94   0.0000       0.312556         8.5051 
  95   0.0000       0.315672         8.5899 
  96   0.0000       0.320823         8.7300 
  97   0.0000       0.332022         9.0348 
  98   0.0000       0.339656         9.2425 
  99   0.0000       0.344121         9.3640 
 100   0.0000       0.359756         9.7895 
 101   0.0000       0.365298         9.9403 
 102   0.0000       0.372011        10.1229 
 103   0.0000       0.382778        10.4159 
 104   0.0000       0.392858        10.6902 
 105   0.0000       0.400901        10.9091 
 106   0.0000       0.406700        11.0669 
 107   0.0000       0.416393        11.3306 
 108   0.0000       0.418856        11.3976 
 109   0.0000       0.422925        11.5084 
 110   0.0000       0.427431        11.6310 
 111   0.0000       0.440018        11.9735 
 112   0.0000       0.444545        12.0967 
 113   0.0000       0.450291        12.2530 
 114   0.0000       0.456715        12.4279 
 115   0.0000       0.464139        12.6299 
 116   0.0000       0.465290        12.6612 
 117   0.0000       0.473055        12.8725 
 118   0.0000       0.474433        12.9100 
 119   0.0000       0.476515        12.9666 
 120   0.0000       0.482043        13.1171 
 121   0.0000       0.490075        13.3356 
 122   0.0000       0.498584        13.5672 
 123   0.0000       0.500118        13.6089 
 124   0.0000       0.503272        13.6947 
 125   0.0000       0.510885        13.9019 
 126   0.0000       0.517206        14.0739 
 127   0.0000       0.520304        14.1582 
 128   0.0000       0.523108        14.2345 
 129   0.0000       0.526045        14.3144 
 130   0.0000       0.544403        14.8139 
 131   0.0000       0.547686        14.9033 
 132   0.0000       0.556965        15.1558 
 133   0.0000       0.559740        15.2313 
 134   0.0000       0.568942        15.4817 
 135   0.0000       0.571944        15.5634 
 136   0.0000       0.579713        15.7748 
 137   0.0000       0.585309        15.9271 
 138   0.0000       0.600764        16.3476 
 139   0.0000       0.608310        16.5530 
 140   0.0000       0.621263        16.9054 
 141   0.0000       0.626760        17.0550 
 142   0.0000       0.639215        17.3939 
 143   0.0000       0.643934        17.5223 
 144   0.0000       0.653652        17.7868 
 145   0.0000       0.654808        17.8182 
 146   0.0000       0.669695        18.2233 
 147   0.0000       0.674753        18.3610 
 148   0.0000       0.690571        18.7914 
 149   0.0000       0.697739        18.9865 
 150   0.0000       0.704388        19.1674 
 151   0.0000       0.712089        19.3769 
 152   0.0000       0.742613        20.2075 
 153   0.0000       0.749798        20.4031 
 154   0.0000       0.756985        20.5986 
 155   0.0000       0.763729        20.7821 
 156   0.0000       0.773713        21.0538 
 157   0.0000       0.802549        21.8385 
 158   0.0000       0.804633        21.8952 
 159   0.0000       0.812425        22.1072 
 160   0.0000       0.833046        22.6683 
 161   0.0000       0.838252        22.8100 
 162   0.0000       0.844075        22.9685 
 163   0.0000       0.860358        23.4115 
 164   0.0000       0.868251        23.6263 
 165   0.0000       0.873029        23.7563 
 166   0.0000       0.882460        24.0130 
 167   0.0000       0.890169        24.2227 
 168   0.0000       0.899665        24.4811 
 169   0.0000       0.911658        24.8075 
 170   0.0000       0.918240        24.9866 
 171   0.0000       0.927798        25.2467 
 172   0.0000       0.941741        25.6261 
 173   0.0000       0.956780        26.0353 
 174   0.0000       0.970610        26.4116 
 175   0.0000       0.988398        26.8957 
 176   0.0000       0.993314        27.0294 
 177   0.0000       1.008475        27.4420 
 178   0.0000       1.027846        27.9691 
 179   0.0000       1.035483        28.1769 
 180   0.0000       1.057032        28.7633 
 181   0.0000       1.059697        28.8358 
 182   0.0000       1.082506        29.4565 
 183   0.0000       1.085985        29.5512 
 184   0.0000       1.094820        29.7916 
 185   0.0000       1.118713        30.4417 
 186   0.0000       1.123309        30.5668 
 187   0.0000       1.133494        30.8439 
 188   0.0000       1.139028        30.9945 
 189   0.0000       1.163663        31.6649 
 190   0.0000       1.168068        31.7847 
 191   0.0000       1.174102        31.9489 
 192   0.0000       1.191538        32.4234 
 193   0.0000       1.195519        32.5317 
 194   0.0000       1.213306        33.0157 
 195   0.0000       1.227274        33.3958 
 196   0.0000       1.246775        33.9265 
 197   0.0000       1.247917        33.9575 
 198   0.0000       1.258618        34.2487 
 199   0.0000       1.266674        34.4680 
 200   0.0000       1.278386        34.7867 
 201   0.0000       1.293726        35.2041 
 202   0.0000       1.310782        35.6682 
 203   0.0000       1.329505        36.1777 
 204   0.0000       1.352474        36.8027 
 205   0.0000       1.357934        36.9512 
 206   0.0000       1.368288        37.2330 
 207   0.0000       1.376010        37.4431 
 208   0.0000       1.392398        37.8891 
 209   0.0000       1.410264        38.3752 
 210   0.0000       1.416946        38.5571 
 211   0.0000       1.423327        38.7307 
 212   0.0000       1.443973        39.2925 
 213   0.0000       1.455209        39.5983 
 214   0.0000       1.467189        39.9243 
 215   0.0000       1.472417        40.0665 
 216   0.0000       1.495291        40.6889 
 217   0.0000       1.508670        41.0530 
 218   0.0000       1.517033        41.2806 
 219   0.0000       1.538310        41.8595 
 220   0.0000       1.560018        42.4503 
 221   0.0000       1.565337        42.5950 
 222   0.0000       1.578438        42.9515 
 223   0.0000       1.586259        43.1643 
 224   0.0000       1.597907        43.4813 
 225   0.0000       1.604339        43.6563 
 226   0.0000       1.610185        43.8154 
 227   0.0000       1.615982        43.9731 
 228   0.0000       1.630057        44.3561 
 229   0.0000       1.634659        44.4813 
 230   0.0000       1.640262        44.6338 
 231   0.0000       1.646861        44.8134 
 232   0.0000       1.658105        45.1193 
 233   0.0000       1.663548        45.2675 
 234   0.0000       1.670861        45.4664 
 235   0.0000       1.682927        45.7948 
 236   0.0000       1.696480        46.1636 
 237   0.0000       1.699708        46.2514 
 238   0.0000       1.707277        46.4574 
 239   0.0000       1.710424        46.5430 
 240   0.0000       1.728759        47.0419 
 241   0.0000       1.737187        47.2713 
 242   0.0000       1.740887        47.3720 
 243   0.0000       1.758934        47.8630 
 244   0.0000       1.772539        48.2333 
 245   0.0000       1.776747        48.3477 
 246   0.0000       1.782654        48.5085 
 247   0.0000       1.800970        49.0069 
 248   0.0000       1.808134        49.2018 
 249   0.0000       1.817741        49.4632 
 250   0.0000       1.832131        49.8548 
 251   0.0000       1.843933        50.1760 
 252   0.0000       1.863950        50.7207 
 253   0.0000       1.875441        51.0333 
 254   0.0000       1.885359        51.3032 
 255   0.0000       1.887857        51.3712 
 256   0.0000       1.902672        51.7743 
 257   0.0000       1.918004        52.1915 
 258   0.0000       1.928350        52.4731 
 259   0.0000       1.931712        52.5646 
 260   0.0000       1.939037        52.7639 
 261   0.0000       1.950141        53.0660 
 262   0.0000       1.959267        53.3144 
 263   0.0000       1.976634        53.7869 
 264   0.0000       1.987511        54.0829 
 265   0.0000       2.005541        54.5736 
 266   0.0000       2.011300        54.7302 
 267   0.0000       2.020214        54.9728 
 268   0.0000       2.040073        55.5132 
 269   0.0000       2.045137        55.6510 
 270   0.0000       2.071029        56.3556 
 271   0.0000       2.078248        56.5520 
 272   0.0000       2.086378        56.7732 
 273   0.0000       2.105000        57.2800 
 274   0.0000       2.121645        57.7329 
 275   0.0000       2.126017        57.8519 
 276   0.0000       2.127294        57.8866 
 277   0.0000       2.147703        58.4420 
 278   0.0000       2.152930        58.5842 
 279   0.0000       2.186922        59.5092 
 280   0.0000       2.198704        59.8298 
 281   0.0000       2.208295        60.0908 
 282   0.0000       2.227414        60.6110 
 283   0.0000       2.239305        60.9346 
 284   0.0000       2.248798        61.1929 
 285   0.0000       2.255489        61.3750 
 286   0.0000       2.267191        61.6934 
 287   0.0000       2.270603        61.7863 
 288   0.0000       2.311695        62.9044 
 289   0.0000       2.328856        63.3714 
 290   0.0000       2.331528        63.4441 
 291   0.0000       2.338769        63.6411 
 292   0.0000       2.352736        64.0212 
 293   0.0000       2.363596        64.3167 
 294   0.0000       2.368173        64.4413 
 295   0.0000       2.380058        64.7647 
 296   0.0000       2.384663        64.8900 
 297   0.0000       2.402015        65.3622 
 298   0.0000       2.412955        65.6598 
 299   0.0000       2.431829        66.1734 
 300   0.0000       2.449226        66.6468 
 301   0.0000       2.453258        66.7565 
 302   0.0000       2.460341        66.9493 
 303   0.0000       2.474149        67.3250 
 304   0.0000       2.490235        67.7627 
 305   0.0000       2.497894        67.9711 
 306   0.0000       2.500702        68.0476 
 307   0.0000       2.513233        68.3886 
 308   0.0000       2.515091        68.4391 
 309   0.0000       2.542173        69.1761 
 310   0.0000       2.551263        69.4234 
 311   0.0000       2.558389        69.6173 
 312   0.0000       2.579923        70.2033 
 313   0.0000       2.588758        70.4437 
 314   0.0000       2.599698        70.7414 
 315   0.0000       2.607682        70.9586 
 316   0.0000       2.615670        71.1760 
 317   0.0000       2.626285        71.4648 
 318   0.0000       2.628520        71.5257 
 319   0.0000       2.647603        72.0449 
 320   0.0000       2.651193        72.1426 
 321   0.0000       2.656904        72.2980 
 322   0.0000       2.660332        72.3913 
 323   0.0000       2.669543        72.6420 
 324   0.0000       2.676684        72.8363 
 325   0.0000       2.692661        73.2710 
 326   0.0000       2.693864        73.3038 
 327   0.0000       2.700006        73.4709 
 328   0.0000       2.710153        73.7470 
 329   0.0000       2.713308        73.8329 
 330   0.0000       2.723346        74.1060 
 331   0.0000       2.731347        74.3237 
 332   0.0000       2.751610        74.8751 
 333   0.0000       2.752648        74.9034 
 334   0.0000       2.765148        75.2435 
 335   0.0000       2.770635        75.3928 
 336   0.0000       2.784762        75.7772 
 337   0.0000       2.794438        76.0405 
 338   0.0000       2.809959        76.4629 
 339   0.0000       2.814017        76.5733 
 340   0.0000       2.828984        76.9806 
 341   0.0000       2.833432        77.1016 
 342   0.0000       2.848236        77.5045 
 343   0.0000       2.850043        77.5536 
 344   0.0000       2.865264        77.9678 
 345   0.0000       2.887464        78.5719 
 346   0.0000       2.916203        79.3539 
 347   0.0000       2.923895        79.5632 
 348   0.0000       2.942959        80.0820 
 349   0.0000       2.950001        80.2736 
 350   0.0000       2.972654        80.8900 
 351   0.0000       2.996030        81.5261 
 352   0.0000       2.998621        81.5966 
 353   0.0000       3.008148        81.8559 
 354   0.0000       3.027851        82.3920 
 355   0.0000       3.051681        83.0405 
 356   0.0000       3.059144        83.2435 
 357   0.0000       3.072109        83.5963 
 358   0.0000       3.085445        83.9592 
 359   0.0000       3.090020        84.0837 
 360   0.0000       3.097148        84.2777 
 361   0.0000       3.111494        84.6681 
 362   0.0000       3.129294        85.1524 
 363   0.0000       3.140144        85.4476 
 364   0.0000       3.147532        85.6487 
 365   0.0000       3.165787        86.1454 
 366   0.0000       3.172823        86.3369 
 367   0.0000       3.181794        86.5810 
 368   0.0000       3.190110        86.8073 
 369   0.0000       3.211189        87.3809 
 370   0.0000       3.222349        87.6846 
 371   0.0000       3.233459        87.9869 
 372   0.0000       3.239590        88.1537 
 373   0.0000       3.253862        88.5421 
 374   0.0000       3.257146        88.6315 
 375   0.0000       3.270544        88.9960 
 376   0.0000       3.276380        89.1548 
 377   0.0000       3.279058        89.2277 
 378   0.0000       3.297497        89.7295 
 379   0.0000       3.318481        90.3005 
 380   0.0000       3.327975        90.5588 
 381   0.0000       3.330604        90.6304 
 382   0.0000       3.343443        90.9797 
 383   0.0000       3.351537        91.2000 
 384   0.0000       3.357447        91.3608 
 385   0.0000       3.375766        91.8593 
 386   0.0000       3.378227        91.9262 
 387   0.0000       3.396942        92.4355 
 388   0.0000       3.404948        92.6534 
 389   0.0000       3.414494        92.9131 
 390   0.0000       3.416558        92.9693 
 391   0.0000       3.424818        93.1940 
 392   0.0000       3.436223        93.5044 
 393   0.0000       3.449207        93.8577 
 394   0.0000       3.463795        94.2546 
 395   0.0000       3.475072        94.5615 
 396   0.0000       3.486118        94.8621 
 397   0.0000       3.498467        95.1981 
 398   0.0000       3.507238        95.4368 
 399   0.0000       3.516090        95.6777 
 400   0.0000       3.525688        95.9388 
 401   0.0000       3.538367        96.2839 
 402   0.0000       3.547873        96.5425 
 403   0.0000       3.566891        97.0600 
 404   0.0000       3.576356        97.3176 
 405   0.0000       3.592321        97.7520 
 406   0.0000       3.597659        97.8973 
 407   0.0000       3.617517        98.4376 
 408   0.0000       3.624743        98.6343 
 409   0.0000       3.644856        99.1816 
 410   0.0000       3.681006       100.1653 
 411   0.0000       3.711500       100.9950 
 412   0.0000       3.722987       101.3076 
 413   0.0000       3.743159       101.8565 
 414   0.0000       3.765657       102.4687 
 415   0.0000       3.787868       103.0731 
 416   0.0000       3.803537       103.4995 
 417   0.0000       3.823461       104.0417 
 418   0.0000       3.836185       104.3879 
 419   0.0000       3.839647       104.4821 
 420   0.0000       3.869254       105.2878 
 421   0.0000       3.900549       106.1393 
 422   0.0000       3.908291       106.3500 
 423   0.0000       3.916136       106.5635 
 424   0.0000       3.926799       106.8536 
 425   0.0000       3.949456       107.4701 
 426   0.0000       3.964622       107.8828 
 427   0.0000       3.974347       108.1475 
 428   0.0000       3.988182       108.5240 
 429   0.0000       4.011240       109.1514 
 430   0.0000       4.018794       109.3569 
 431   0.0000       4.045627       110.0871 
 432   0.0000       4.070190       110.7555 
 433   0.0000       4.103877       111.6722 
 434   0.0000       4.112990       111.9202 
 435   0.0000       4.158834       113.1676 
 436   0.0000       4.163884       113.3050 
 437   0.0000       4.166159       113.3669 
 438   0.0000       4.212385       114.6248 
 439   0.0000       4.232711       115.1779 
 440   0.0000       4.258077       115.8682 
 441   0.0000       4.277374       116.3933 
 442   0.0000       4.302603       117.0798 
 443   0.0000       4.335970       117.9877 
 444   0.0000       4.345677       118.2519 
 445   0.0000       4.374384       119.0330 
 446   0.0000       4.392184       119.5174 
 447   0.0000       4.426867       120.4612 
 448   0.0000       4.441600       120.8621 
 449   0.0000       4.449497       121.0770 
 450   0.0000       4.489382       122.1623 
 451   0.0000       4.515543       122.8742 
 452   0.0000       4.577979       124.5731 
 453   0.0000       4.581135       124.6590 
 454   0.0000       4.590605       124.9167 
 455   0.0000       4.628211       125.9400 
 456   0.0000       4.631866       126.0395 
 457   0.0000       4.661829       126.8548 
 458   0.0000       4.681492       127.3899 
 459   0.0000       4.699631       127.8835 
 460   0.0000       4.706976       128.0833 
 461   0.0000       4.726413       128.6122 
 462   0.0000       4.753532       129.3502 
 463   0.0000       4.766705       129.7086 
 464   0.0000       4.781481       130.1107 
 465   0.0000       4.792176       130.4017 
 466   0.0000       4.852730       132.0495 
 467   0.0000       4.871652       132.5644 
 468   0.0000       4.885115       132.9307 
 469   0.0000       4.903071       133.4193 
 470   0.0000       4.943072       134.5078 
 471   0.0000       4.949530       134.6836 
 472   0.0000       4.980727       135.5325 
 473   0.0000       5.042937       137.2253 
 474   0.0000       5.059146       137.6664 
 475   0.0000       5.072895       138.0405 
 476   0.0000       5.134520       139.7174 
 477   0.0000       5.150780       140.1598 
 478   0.0000       5.162366       140.4751 
 479   0.0000       5.167992       140.6282 
 480   0.0000       5.180795       140.9766 
 481   0.0000       5.187615       141.1622 
 482   0.0000       5.200760       141.5199 
 483   0.0000       5.215203       141.9129 
 484   0.0000       5.219909       142.0409 
 485   0.0000       5.257052       143.0517 
 486   0.0000       5.268372       143.3597 
 487   0.0000       5.301119       144.2508 
 488   0.0000       5.335215       145.1786 
 489   0.0000       5.339869       145.3052 
 490   0.0000       5.381741       146.4446 
 491   0.0000       5.421915       147.5378 
 492   0.0000       5.436454       147.9334 
 493   0.0000       5.477496       149.0502 
 494   0.0000       5.481198       149.1510 
 495   0.0000       5.492460       149.4574 
 496   0.0000       5.576440       151.7426 
 497   0.0000       5.590152       152.1158 
 498   0.0000       5.627723       153.1381 
 499   0.0000       5.719097       155.6245 
 500   0.0000       5.965193       162.3212 
 501   0.0000       6.071391       165.2110 
 502   0.0000       6.090974       165.7438 
 503   0.0000       6.291983       171.2136 
 504   0.0000       6.350321       172.8010 
 505   0.0000       6.396807       174.0660 
 506   0.0000       6.453697       175.6140 
 507   0.0000       6.609782       179.8613 
 508   0.0000       6.673277       181.5891 
 509   0.0000       6.704679       182.4436 
 510   0.0000       6.782310       184.5560 
 511   0.0000       6.793151       184.8510 
 512   0.0000       6.828988       185.8262 
 513   0.0000       6.847337       186.3255 
 514   0.0000       6.860864       186.6936 
 515   0.0000       6.876834       187.1282 
 516   0.0000       6.913835       188.1350 
 517   0.0000       7.002980       190.5608 
 518   0.0000       7.012793       190.8278 
 519   0.0000       7.080088       192.6590 
 520   0.0000       8.249164       224.4712 
 521   0.0000       8.258918       224.7366 
 522   0.0000       8.606494       234.1946 
 523   0.0000       8.639289       235.0870 
 524   0.0000       8.714622       237.1369 
 525   0.0000       9.426091       256.4970 
 526   0.0000       9.617885       261.7160 
 527   0.0000       9.793110       266.4841 
 528   0.0000      22.234706       605.0371 
 529   0.0000      22.584572       614.5574 
 530   0.0000      22.611190       615.2818 
 531   0.0000      22.665330       616.7550 
 532   0.0000      22.668249       616.8344 
 533   0.0000      22.681680       617.1999 
 534   0.0000      22.775407       619.7503 
 535   0.0000      23.064703       627.6225 
 536   0.0000      23.557541       641.0333 
 537   0.0000      32.192693       876.0077 
 538   0.0000      32.377033       881.0238 
 539   0.0000      43.715469      1189.5584 
 540   0.0000      43.935373      1195.5423 
 541   0.0000      57.282665      1558.7406 

                    ********************************
                    * MULLIKEN POPULATION ANALYSIS *
                    ********************************

-----------------------
MULLIKEN ATOMIC CHARGES
-----------------------
   0 C :   -0.465879
   1 C :   -0.272153
   2 C :   -0.272241
   3 C :   -0.379231
   4 H :    0.201726
   5 H :    0.186325
   6 S :    0.947425
   7 C :    0.431141
   8 N :   -0.585410
   9 N :   -0.578274
  10 H :    0.254528
  11 H :    0.226175
  12 H :    0.162163
  13 H :    0.277281
  14 H :    0.219285
  15 F :   -0.106814
  16 O :   -0.424596
  17 C :   -0.246936
  18 H :    0.128523
  19 H :    0.160695
  20 C :   -0.379521
  21 H :    0.179672
  22 H :    0.164032
  23 C :   -0.224720
  24 H :    0.139619
  25 H :    0.129798
  26 O :   -0.513453
  27 H :    0.152239
  28 H :    0.140301
  29 H :    0.197344
  30 H :    0.150955
Sum of atomic charges:    0.0000000

--------------------------------
MULLIKEN REDUCED ORBITAL CHARGES
--------------------------------
  0 C s       :     3.356087  s :     3.356087
      pz      :     1.011361  p :     3.007882
      px      :     1.091553
      py      :     0.904969
      dz2     :     0.013990  d :     0.096726
      dxz     :     0.011226
      dyz     :     0.033912
      dx2y2   :     0.019480
      dxy     :     0.018118
      f0      :     0.000758  f :     0.005183
      f+1     :     0.000450
      f-1     :     0.000857
      f+2     :     0.001042
      f-2     :     0.000776
      f+3     :     0.000746
      f-3     :     0.000553
  1 C s       :     3.158221  s :     3.158221
      pz      :     0.960490  p :     3.052451
      px      :     0.767891
      py      :     1.324070
      dz2     :     0.008657  d :     0.054377
      dxz     :     0.006651
      dyz     :     0.008994
      dx2y2   :     0.013027
      dxy     :     0.017048
      f0      :     0.001159  f :     0.007103
      f+1     :     0.000588
      f-1     :     0.000477
      f+2     :     0.001604
      f-2     :     0.000575
      f+3     :     0.000851
      f-3     :     0.001850
  2 C s       :     3.269150  s :     3.269150
      pz      :     0.912604  p :     2.904646
      px      :     0.969788
      py      :     1.022255
      dz2     :     0.022366  d :     0.093315
      dxz     :     0.024792
      dyz     :     0.014313
      dx2y2   :     0.025067
      dxy     :     0.006778
      f0      :     0.000882  f :     0.005129
      f+1     :     0.000830
      f-1     :     0.000616
      f+2     :     0.001094
      f-2     :     0.000956
      f+3     :     0.000362
      f-3     :     0.000389
  3 C s       :     3.280064  s :     3.280064
      pz      :     1.028291  p :     3.013185
      px      :     1.068142
      py      :     0.916752
      dz2     :     0.017207  d :     0.081675
      dxz     :     0.003781
      dyz     :     0.028795
      dx2y2   :     0.023590
      dxy     :     0.008302
      f0      :     0.000580  f :     0.004307
      f+1     :     0.000664
      f-1     :     0.000344
      f+2     :     0.001077
      f-2     :     0.000747
      f+3     :     0.000362
      f-3     :     0.000533
  4 H s       :     0.777630  s :     0.777630
      pz      :     0.005190  p :     0.020644
      px      :     0.011589
      py      :     0.003865
  5 H s       :     0.793262  s :     0.793262
      pz      :     0.008102  p :     0.020413
      px      :     0.004047
      py      :     0.008265
  6 S s       :     5.365471  s :     5.365471
      pz      :     2.775936  p :     8.457005
      px      :     2.741359
      py      :     2.939711
      dz2     :     0.198023  d :     1.103773
      dxz     :     0.260106
      dyz     :     0.182510
      dx2y2   :     0.254150
      dxy     :     0.208984
      f0      :     0.022253  f :     0.126325
      f+1     :     0.019095
      f-1     :     0.014707
      f+2     :     0.022622
      f-2     :     0.015476
      f+3     :     0.016480
      f-3     :     0.015693
  7 C s       :     2.991645  s :     2.991645
      pz      :     0.619414  p :     2.392225
      px      :     0.897254
      py      :     0.875557
      dz2     :     0.027757  d :     0.169172
      dxz     :     0.038908
      dyz     :     0.036703
      dx2y2   :     0.010768
      dxy     :     0.055036
      f0      :     0.003865  f :     0.015818
      f+1     :     0.001409
      f-1     :     0.002510
      f+2     :     0.002933
      f-2     :     0.002398
      f+3     :     0.000831
      f-3     :     0.001872
  8 N s       :     3.503077  s :     3.503077
      pz      :     1.204434  p :     4.050911
      px      :     1.145704
      py      :     1.700773
      dz2     :     0.007012  d :     0.027757
      dxz     :     0.005588
      dyz     :     0.007150
      dx2y2   :     0.004231
      dxy     :     0.003777
      f0      :     0.000586  f :     0.003665
      f+1     :     0.000500
      f-1     :     0.000637
      f+2     :     0.000463
      f-2     :     0.000490
      f+3     :     0.000563
      f-3     :     0.000426
  9 N s       :     3.508131  s :     3.508131
      pz      :     1.200465  p :     4.038539
      px      :     1.129998
      py      :     1.708075
      dz2     :     0.007563  d :     0.028098
      dxz     :     0.005344
      dyz     :     0.005916
      dx2y2   :     0.004726
      dxy     :     0.004549
      f0      :     0.000506  f :     0.003506
      f+1     :     0.000525
      f-1     :     0.000627
      f+2     :     0.000512
      f-2     :     0.000358
      f+3     :     0.000555
      f-3     :     0.000423
 10 H s       :     0.708793  s :     0.708793
      pz      :     0.015769  p :     0.036679
      px      :     0.008031
      py      :     0.012878
 11 H s       :     0.737324  s :     0.737324
      pz      :     0.005295  p :     0.036501
      px      :     0.018521
      py      :     0.012685
 12 H s       :     0.806829  s :     0.806829
      pz      :     0.016254  p :     0.031008
      px      :     0.005717
      py      :     0.009037
 13 H s       :     0.679710  s :     0.679710
      pz      :     0.014857  p :     0.043009
      px      :     0.013471
      py      :     0.014681
 14 H s       :     0.744162  s :     0.744162
      pz      :     0.005435  p :     0.036554
      px      :     0.018447
      py      :     0.012672
 15 F s       :     3.908942  s :     3.908942
      pz      :     1.609165  p :     5.176006
      px      :     1.731934
      py      :     1.834907
      dz2     :     0.006013  d :     0.020877
      dxz     :     0.006711
      dyz     :     0.004139
      dx2y2   :     0.002040
      dxy     :     0.001974
      f0      :     0.000179  f :     0.000989
      f+1     :     0.000307
      f-1     :     0.000116
      f+2     :     0.000170
      f-2     :     0.000156
      f+3     :     0.000030
      f-3     :     0.000030
 16 O s       :     3.862824  s :     3.862824
      pz      :     1.618753  p :     4.523549
      px      :     1.277740
      py      :     1.627056
      dz2     :     0.003891  d :     0.035978
      dxz     :     0.009587
      dyz     :     0.001439
      dx2y2   :     0.010800
      dxy     :     0.010261
      f0      :     0.000222  f :     0.002245
      f+1     :     0.000327
      f-1     :     0.000062
      f+2     :     0.000289
      f-2     :     0.000165
      f+3     :     0.000602
      f-3     :     0.000578
 17 C s       :     3.267175  s :     3.267175
      pz      :     0.938909  p :     2.885478
      px      :     1.065623
      py      :     0.880946
      dz2     :     0.013330  d :     0.089239
      dxz     :     0.024520
      dyz     :     0.016687
      dx2y2   :     0.021336
      dxy     :     0.013366
      f0      :     0.000551  f :     0.005045
      f+1     :     0.000318
      f-1     :     0.001023
      f+2     :     0.001152
      f-2     :     0.000662
      f+3     :     0.000835
      f-3     :     0.000503
 18 H s       :     0.852466  s :     0.852466
      pz      :     0.007641  p :     0.019010
      px      :     0.004106
      py      :     0.007263
 19 H s       :     0.820022  s :     0.820022
      pz      :     0.004329  p :     0.019284
      px      :     0.010929
      py      :     0.004025
 20 C s       :     3.312769  s :     3.312769
      pz      :     0.975092  p :     2.975742
      px      :     0.978968
      py      :     1.021681
      dz2     :     0.014771  d :     0.086079
      dxz     :     0.023380
      dyz     :     0.014631
      dx2y2   :     0.022076
      dxy     :     0.011220
      f0      :     0.000556  f :     0.004931
      f+1     :     0.000891
      f-1     :     0.000540
      f+2     :     0.001094
      f-2     :     0.000868
      f+3     :     0.000413
      f-3     :     0.000570
 21 H s       :     0.800643  s :     0.800643
      pz      :     0.005274  p :     0.019685
      px      :     0.010677
      py      :     0.003734
 22 H s       :     0.816756  s :     0.816756
      pz      :     0.004779  p :     0.019212
      px      :     0.003430
      py      :     0.011003
 23 C s       :     3.221111  s :     3.221111
      pz      :     0.973170  p :     2.909795
      px      :     0.931348
      py      :     1.005277
      dz2     :     0.014594  d :     0.088754
      dxz     :     0.026554
      dyz     :     0.015048
      dx2y2   :     0.022344
      dxy     :     0.010214
      f0      :     0.000612  f :     0.005060
      f+1     :     0.000884
      f-1     :     0.000497
      f+2     :     0.001170
      f-2     :     0.000859
      f+3     :     0.000423
      f-3     :     0.000614
 24 H s       :     0.841313  s :     0.841313
      pz      :     0.005463  p :     0.019068
      px      :     0.009812
      py      :     0.003793
 25 H s       :     0.851318  s :     0.851318
      pz      :     0.007667  p :     0.018884
      px      :     0.007200
      py      :     0.004017
 26 O s       :     3.851293  s :     3.851293
      pz      :     1.453700  p :     4.629603
      px      :     1.623219
      py      :     1.552684
      dz2     :     0.007149  d :     0.030471
      dxz     :     0.005490
      dyz     :     0.008086
      dx2y2   :     0.004701
      dxy     :     0.005045
      f0      :     0.000222  f :     0.002085
      f+1     :     0.000236
      f-1     :     0.000410
      f+2     :     0.000341
      f-2     :     0.000486
      f+3     :     0.000192
      f-3     :     0.000200
 27 H s       :     0.827985  s :     0.827985
      pz      :     0.006749  p :     0.019776
      px      :     0.008987
      py      :     0.004040
 28 H s       :     0.840776  s :     0.840776
      pz      :     0.004958  p :     0.018923
      px      :     0.003685
      py      :     0.010280
 29 H s       :     0.782580  s :     0.782580
      pz      :     0.004696  p :     0.020076
      px      :     0.003668
      py      :     0.011712
 30 H s       :     0.829971  s :     0.829971
      pz      :     0.006715  p :     0.019074
      px      :     0.008718
      py      :     0.003641


                     *******************************
                     * LOEWDIN POPULATION ANALYSIS *
                     *******************************

----------------------
LOEWDIN ATOMIC CHARGES
----------------------
   0 C :   -0.298528
   1 C :   -0.287302
   2 C :   -0.279431
   3 C :   -0.371694
   4 H :    0.144894
   5 H :    0.141007
   6 S :    0.578595
   7 C :   -0.462950
   8 N :   -0.029289
   9 N :   -0.034569
  10 H :    0.173874
  11 H :    0.158752
  12 H :    0.120774
  13 H :    0.166337
  14 H :    0.155768
  15 F :    0.096775
  16 O :   -0.257015
  17 C :   -0.265178
  18 H :    0.129030
  19 H :    0.141871
  20 C :   -0.268824
  21 H :    0.148592
  22 H :    0.149626
  23 C :   -0.273730
  24 H :    0.136470
  25 H :    0.130348
  26 O :   -0.307379
  27 H :    0.139712
  28 H :    0.133970
  29 H :    0.146709
  30 H :    0.142784

-------------------------------
LOEWDIN REDUCED ORBITAL CHARGES
-------------------------------
  0 C s       :     2.752159  s :     2.752159
      pz      :     1.039106  p :     3.058389
      px      :     1.025593
      py      :     0.993689
      dz2     :     0.085134  d :     0.443781
      dxz     :     0.053388
      dyz     :     0.142570
      dx2y2   :     0.099896
      dxy     :     0.062792
      f0      :     0.007802  f :     0.044199
      f+1     :     0.004482
      f-1     :     0.007863
      f+2     :     0.005891
      f-2     :     0.007491
      f+3     :     0.006233
      f-3     :     0.004437
  1 C s       :     2.736458  s :     2.736458
      pz      :     1.002976  p :     3.119548
      px      :     1.039302
      py      :     1.077271
      dz2     :     0.086556  d :     0.384276
      dxz     :     0.124198
      dyz     :     0.050814
      dx2y2   :     0.067826
      dxy     :     0.054881
      f0      :     0.009085  f :     0.047019
      f+1     :     0.006977
      f-1     :     0.004757
      f+2     :     0.008894
      f-2     :     0.004713
      f+3     :     0.006230
      f-3     :     0.006363
  2 C s       :     2.779552  s :     2.779552
      pz      :     1.014154  p :     3.062629
      px      :     1.013642
      py      :     1.034833
      dz2     :     0.083695  d :     0.398833
      dxz     :     0.107550
      dyz     :     0.075125
      dx2y2   :     0.100672
      dxy     :     0.031790
      f0      :     0.008419  f :     0.038417
      f+1     :     0.005569
      f-1     :     0.004357
      f+2     :     0.005434
      f-2     :     0.007032
      f+3     :     0.003634
      f-3     :     0.003972
  3 C s       :     2.845121  s :     2.845121
      pz      :     1.051581  p :     3.134258
      px      :     1.084359
      py      :     0.998318
      dz2     :     0.058583  d :     0.361108
      dxz     :     0.052212
      dyz     :     0.114948
      dx2y2   :     0.093990
      dxy     :     0.041375
      f0      :     0.005399  f :     0.031207
      f+1     :     0.004288
      f-1     :     0.003560
      f+2     :     0.004850
      f-2     :     0.004974
      f+3     :     0.003585
      f-3     :     0.004551
  4 H s       :     0.791515  s :     0.791515
      pz      :     0.017106  p :     0.063591
      px      :     0.033498
      py      :     0.012987
  5 H s       :     0.796090  s :     0.796090
      pz      :     0.023870  p :     0.062903
      px      :     0.014598
      py      :     0.024434
  6 S s       :     4.750927  s :     4.750927
      pz      :     2.790339  p :     8.545514
      px      :     2.837661
      py      :     2.917514
      dz2     :     0.311485  d :     1.741871
      dxz     :     0.414351
      dyz     :     0.305295
      dx2y2   :     0.394812
      dxy     :     0.315929
      f0      :     0.059192  f :     0.383093
      f+1     :     0.066928
      f-1     :     0.045404
      f+2     :     0.065387
      f-2     :     0.049071
      f+3     :     0.049949
      f-3     :     0.047161
  7 C s       :     2.692244  s :     2.692244
      pz      :     0.899375  p :     2.790404
      px      :     1.051312
      py      :     0.839718
      dz2     :     0.183864  d :     0.862369
      dxz     :     0.243389
      dyz     :     0.159970
      dx2y2   :     0.084751
      dxy     :     0.190394
      f0      :     0.029170  f :     0.117934
      f+1     :     0.017317
      f-1     :     0.018339
      f+2     :     0.020417
      f-2     :     0.019038
      f+3     :     0.006861
      f-3     :     0.006792
  8 N s       :     2.960765  s :     2.960765
      pz      :     1.221296  p :     3.907587
      px      :     1.148356
      py      :     1.537934
      dz2     :     0.042478  d :     0.149253
      dxz     :     0.043265
      dyz     :     0.028154
      dx2y2   :     0.021988
      dxy     :     0.013368
      f0      :     0.002575  f :     0.011684
      f+1     :     0.001927
      f-1     :     0.001916
      f+2     :     0.001567
      f-2     :     0.001932
      f+3     :     0.000984
      f-3     :     0.000783
  9 N s       :     2.970336  s :     2.970336
      pz      :     1.214111  p :     3.907782
      px      :     1.140553
      py      :     1.553117
      dz2     :     0.045696  d :     0.145413
      dxz     :     0.037559
      dyz     :     0.022784
      dx2y2   :     0.021988
      dxy     :     0.017387
      f0      :     0.002311  f :     0.011038
      f+1     :     0.001664
      f-1     :     0.001633
      f+2     :     0.001875
      f-2     :     0.001686
      f+3     :     0.001120
      f-3     :     0.000748
 10 H s       :     0.716616  s :     0.716616
      pz      :     0.043512  p :     0.109510
      px      :     0.027344
      py      :     0.038654
 11 H s       :     0.731689  s :     0.731689
      pz      :     0.018835  p :     0.109558
      px      :     0.053172
      py      :     0.037551
 12 H s       :     0.778514  s :     0.778514
      pz      :     0.050037  p :     0.100712
      px      :     0.019042
      py      :     0.031633
 13 H s       :     0.702043  s :     0.702043
      pz      :     0.043135  p :     0.131621
      px      :     0.044696
      py      :     0.043789
 14 H s       :     0.734641  s :     0.734641
      pz      :     0.018682  p :     0.109591
      px      :     0.053513
      py      :     0.037396
 15 F s       :     3.652677  s :     3.652677
      pz      :     1.684805  p :     5.209051
      px      :     1.739778
      py      :     1.784468
      dz2     :     0.011078  d :     0.039709
      dxz     :     0.015361
      dyz     :     0.006796
      dx2y2   :     0.003505
      dxy     :     0.002969
      f0      :     0.000283  f :     0.001788
      f+1     :     0.000627
      f-1     :     0.000223
      f+2     :     0.000304
      f-2     :     0.000250
      f+3     :     0.000048
      f-3     :     0.000053
 16 O s       :     3.561755  s :     3.561755
      pz      :     1.568018  p :     4.621783
      px      :     1.465919
      py      :     1.587846
      dz2     :     0.010298  d :     0.068754
      dxz     :     0.012462
      dyz     :     0.001962
      dx2y2   :     0.024448
      dxy     :     0.019584
      f0      :     0.000372  f :     0.004722
      f+1     :     0.000902
      f-1     :     0.000138
      f+2     :     0.000475
      f-2     :     0.000306
      f+3     :     0.001192
      f-3     :     0.001337
 17 C s       :     2.777767  s :     2.777767
      pz      :     1.006841  p :     3.051444
      px      :     1.025195
      py      :     1.019407
      dz2     :     0.055346  d :     0.397873
      dxz     :     0.098134
      dyz     :     0.093112
      dx2y2   :     0.093612
      dxy     :     0.057670
      f0      :     0.005624  f :     0.038094
      f+1     :     0.002371
      f-1     :     0.008018
      f+2     :     0.005722
      f-2     :     0.005059
      f+3     :     0.007389
      f-3     :     0.003910
 18 H s       :     0.814185  s :     0.814185
      pz      :     0.021918  p :     0.056786
      px      :     0.014808
      py      :     0.020060
 19 H s       :     0.800758  s :     0.800758
      pz      :     0.014745  p :     0.057371
      px      :     0.029260
      py      :     0.013366
 20 C s       :     2.771472  s :     2.771472
      pz      :     1.008359  p :     3.064116
      px      :     1.031394
      py      :     1.024363
      dz2     :     0.064575  d :     0.394654
      dxz     :     0.108222
      dyz     :     0.078615
      dx2y2   :     0.095775
      dxy     :     0.047466
      f0      :     0.006406  f :     0.038583
      f+1     :     0.006706
      f-1     :     0.004226
      f+2     :     0.005199
      f-2     :     0.006557
      f+3     :     0.003979
      f-3     :     0.005509
 21 H s       :     0.792074  s :     0.792074
      pz      :     0.016627  p :     0.059335
      px      :     0.029374
      py      :     0.013334
 22 H s       :     0.792164  s :     0.792164
      pz      :     0.015384  p :     0.058210
      px      :     0.012352
      py      :     0.030474
 23 C s       :     2.771487  s :     2.771487
      pz      :     1.021699  p :     3.061547
      px      :     1.020983
      py      :     1.018866
      dz2     :     0.064168  d :     0.402115
      dxz     :     0.114660
      dyz     :     0.077177
      dx2y2   :     0.099717
      dxy     :     0.046394
      f0      :     0.006604  f :     0.038580
      f+1     :     0.006584
      f-1     :     0.004081
      f+2     :     0.005320
      f-2     :     0.006318
      f+3     :     0.004210
      f-3     :     0.005463
 24 H s       :     0.805587  s :     0.805587
      pz      :     0.016161  p :     0.057943
      px      :     0.028691
      py      :     0.013091
 25 H s       :     0.811769  s :     0.811769
      pz      :     0.021692  p :     0.057883
      px      :     0.022809
      py      :     0.013381
 26 O s       :     3.563368  s :     3.563368
      pz      :     1.493427  p :     4.670742
      px      :     1.607259
      py      :     1.570056
      dz2     :     0.012085  d :     0.069043
      dxz     :     0.013526
      dyz     :     0.022680
      dx2y2   :     0.008116
      dxy     :     0.012638
      f0      :     0.000436  f :     0.004225
      f+1     :     0.000491
      f-1     :     0.000712
      f+2     :     0.000550
      f-2     :     0.001247
      f+3     :     0.000459
      f-3     :     0.000330
 27 H s       :     0.800104  s :     0.800104
      pz      :     0.020766  p :     0.060184
      px      :     0.025354
      py      :     0.014064
 28 H s       :     0.808201  s :     0.808201
      pz      :     0.016492  p :     0.057828
      px      :     0.013009
      py      :     0.028328
 29 H s       :     0.793089  s :     0.793089
      pz      :     0.015774  p :     0.060202
      px      :     0.013008
      py      :     0.031420
 30 H s       :     0.799391  s :     0.799391
      pz      :     0.019812  p :     0.057825
      px      :     0.024574
      py      :     0.013438


                      *****************************
                      * MAYER POPULATION ANALYSIS *
                      *****************************

  NA   - Mulliken gross atomic population
  ZA   - Total nuclear charge
  QA   - Mulliken gross atomic charge
  VA   - Mayer's total valence
  BVA  - Mayer's bonded valence
  FA   - Mayer's free valence

  ATOM       NA         ZA         QA         VA         BVA        FA
  0 C      6.4659     6.0000    -0.4659     3.8785     3.8785    -0.0000
  1 C      6.2722     6.0000    -0.2722     3.4878     3.4878    -0.0000
  2 C      6.2722     6.0000    -0.2722     3.7429     3.7429    -0.0000
  3 C      6.3792     6.0000    -0.3792     3.8034     3.8034     0.0000
  4 H      0.7983     1.0000     0.2017     0.9416     0.9416     0.0000
  5 H      0.8137     1.0000     0.1863     0.9483     0.9483     0.0000
  6 S     15.0526    16.0000     0.9474     5.7835     5.7835    -0.0000
  7 C      5.5689     6.0000     0.4311     3.8407     3.8407     0.0000
  8 N      7.5854     7.0000    -0.5854     2.9530     2.9530     0.0000
  9 N      7.5783     7.0000    -0.5783     2.9768     2.9768     0.0000
 10 H      0.7455     1.0000     0.2545     0.9422     0.9422    -0.0000
 11 H      0.7738     1.0000     0.2262     0.9573     0.9573     0.0000
 12 H      0.8378     1.0000     0.1622     0.9966     0.9966    -0.0000
 13 H      0.7227     1.0000     0.2773     0.9569     0.9569     0.0000
 14 H      0.7807     1.0000     0.2193     0.9608     0.9608     0.0000
 15 F      9.1068     9.0000    -0.1068     1.1878     1.1878     0.0000
 16 O      8.4246     8.0000    -0.4246     2.0214     2.0214    -0.0000
 17 C      6.2469     6.0000    -0.2469     3.7008     3.7008    -0.0000
 18 H      0.8715     1.0000     0.1285     0.9532     0.9532     0.0000
 19 H      0.8393     1.0000     0.1607     0.9459     0.9459    -0.0000
 20 C      6.3795     6.0000    -0.3795     3.7252     3.7252     0.0000
 21 H      0.8203     1.0000     0.1797     0.9545     0.9545     0.0000
 22 H      0.8360     1.0000     0.1640     0.9496     0.9496     0.0000
 23 C      6.2247     6.0000    -0.2247     3.5833     3.5833     0.0000
 24 H      0.8604     1.0000     0.1396     0.9662     0.9662    -0.0000
 25 H      0.8702     1.0000     0.1298     0.9591     0.9591    -0.0000
 26 O      8.5135     8.0000    -0.5135     1.8122     1.8122    -0.0000
 27 H      0.8478     1.0000     0.1522     0.9584     0.9584     0.0000
 28 H      0.8597     1.0000     0.1403     0.9531     0.9531     0.0000
 29 H      0.8027     1.0000     0.1973     0.9454     0.9454     0.0000
 30 H      0.8490     1.0000     0.1510     0.9643     0.9643     0.0000

  Mayer bond orders larger than 0.100000
B(  0-C ,  1-C ) :   0.9328 B(  0-C , 17-C ) :   0.8744 B(  0-C , 18-H ) :   1.0049 
B(  0-C , 19-H ) :   1.0076 B(  1-C ,  7-C ) :   1.6632 B(  1-C , 12-H ) :   1.0321 
B(  2-C ,  3-C ) :   0.9083 B(  2-C , 20-C ) :   0.9283 B(  2-C , 21-H ) :   0.9789 
B(  2-C , 22-H ) :   0.9678 B(  3-C ,  4-H ) :   0.9382 B(  3-C ,  5-H ) :   0.9453 
B(  3-C ,  6-S ) :   0.9301 B(  6-S , 15-F ) :   1.1269 B(  6-S , 16-O ) :   1.9244 
B(  6-S , 26-O ) :   1.7244 B(  7-C ,  8-N ) :   1.0923 B(  7-C ,  9-N ) :   1.0648 
B(  8-N , 13-H ) :   0.8848 B(  8-N , 14-H ) :   0.9409 B(  9-N , 10-H ) :   0.9203 
B(  9-N , 11-H ) :   0.9362 B( 17-C , 23-C ) :   0.9335 B( 17-C , 24-H ) :   0.9853 
B( 17-C , 25-H ) :   0.9934 B( 20-C , 23-C ) :   0.8563 B( 20-C , 29-H ) :   0.9796 
B( 20-C , 30-H ) :   0.9800 B( 23-C , 27-H ) :   0.9753 B( 23-C , 28-H ) :   0.9833 


-------
TIMINGS
-------

Total SCF time: 0 days 0 hours 1 min 11 sec 

Total time                  ....      71.111 sec
Sum of individual times     ....      69.855 sec  ( 98.2%)

Fock matrix formation       ....      64.312 sec  ( 90.4%)
  Split-RI-J                ....       6.422 sec  ( 10.0% of F)
  Chain of spheres X        ....      43.278 sec  ( 67.3% of F)
  XC integration            ....      12.310 sec  ( 19.1% of F)
    Basis function eval.    ....       1.582 sec  ( 12.8% of XC)
    Density eval.           ....       4.696 sec  ( 38.2% of XC)
    XC-Functional eval.     ....       0.303 sec  (  2.5% of XC)
    XC-Potential eval.      ....       4.631 sec  ( 37.6% of XC)
Diagonalization             ....       1.119 sec  (  1.6%)
Density matrix formation    ....       0.064 sec  (  0.1%)
Population analysis         ....       0.094 sec  (  0.1%)
Initial guess               ....       0.570 sec  (  0.8%)
Orbital Transformation      ....       0.000 sec  (  0.0%)
Orbital Orthonormalization  ....       0.000 sec  (  0.0%)
DIIS solution               ....       0.580 sec  (  0.8%)
SOSCF solution              ....       0.649 sec  (  0.9%)
Grid generation             ....       2.467 sec  (  3.5%)

Maximum memory used throughout the entire SCF-calculation: 113.1 MB


-------------------------------------------------------------------------------
                          DFT DISPERSION CORRECTION                            
                                                                               
                              DFTD3 V3.1  Rev 1                                
                              USING zero damping                               
-------------------------------------------------------------------------------
The M062X functional is recognized
Active option DFTDOPT                   ...         3   

molecular C6(AA) [au] = 8834.184502 


            DFT-D V3
 parameters
 s6 scaling factor         :     1.0000 
 rs6 scaling factor        :     1.6190 
 s8 scaling factor         :     0.0000 
 rs8 scaling factor        :     1.0000 
 Damping factor alpha6     :    14.0000 
 Damping factor alpha8     :    16.0000 
 ad hoc parameters k1-k3   :    16.0000     1.3333    -4.0000 

 Edisp/kcal,au: -1.188012547105  -0.001893218301 
 E6   /kcal   :  -1.188012547 
 E8   /kcal   :  -0.000000000 
 % E8         :   0.000000000 

-------------------------   ----------------
Dispersion correction           -0.001893218
-------------------------   ----------------


-------------------------   --------------------
FINAL SINGLE POINT ENERGY     -1072.967474597785
-------------------------   --------------------


                            ***************************************
                            *     ORCA property calculations      *
                            ***************************************

                                    ---------------------
                                    Active property flags
                                    ---------------------
   (+) Dipole Moment


------------------------------------------------------------------------------
                       ORCA ELECTRIC PROPERTIES CALCULATION
------------------------------------------------------------------------------

Dipole Moment Calculation                       ... on
Quadrupole Moment Calculation                   ... off
Polarizability Calculation                      ... off
GBWName                                         ... M062X_D1_wb97.gbw
Electron density file                           ... M062X_D1_wb97.scfp
The origin for moment calculation is the CENTER OF MASS  = ( 4.331245, -0.890645 -8.377818)

-------------
DIPOLE MOMENT
-------------
                                X             Y             Z
Electronic contribution:      0.79446      -0.97854     -23.54997
Nuclear contribution   :      0.18720       2.58739      22.98820
                        -----------------------------------------
Total Dipole Moment    :      0.98166       1.60885      -0.56177
                        -----------------------------------------
Magnitude (a.u.)       :      1.96664
Magnitude (Debye)      :      4.99879



--------------------
Rotational spectrum 
--------------------
 
Rotational constants in cm-1:     0.028798     0.014448     0.010940 
Rotational constants in MHz :   863.355869   433.126694   327.985023 

 Dipole components along the rotational axes: 
x,y,z [a.u.] :    -0.762371    -0.091734    -1.810533 
x,y,z [Debye]:    -1.937793    -0.233170    -4.602008 

 

Timings for individual modules:

Sum of individual times         ...       73.151 sec (=   1.219 min)
GTO integral calculation        ...        1.536 sec (=   0.026 min)   2.1 %
SCF iterations                  ...       71.615 sec (=   1.194 min)  97.9 %
                             ****ORCA TERMINATED NORMALLY****
TOTAL RUN TIME: 0 days 0 hours 1 minutes 13 seconds 893 msec
