
                                        *****************
                                        * O   R   C   A *
                                        *****************

                                            #,                                       
                                            ###                                      
                                            ####                                     
                                            #####                                    
                                            ######                                   
                                           ########,                                 
                                     ,,################,,,,,                         
                               ,,#################################,,                 
                          ,,##########################################,,             
                       ,#########################################, ''#####,          
                    ,#############################################,,   '####,        
                  ,##################################################,,,,####,       
                ,###########''''           ''''###############################       
              ,#####''   ,,,,##########,,,,          '''####'''          '####       
            ,##' ,,,,###########################,,,                        '##       
           ' ,,###''''                  '''############,,,                           
         ,,##''                                '''############,,,,        ,,,,,,###''
      ,#''                                            '''#######################'''  
     '                                                          ''''####''''         
             ,#######,   #######,   ,#######,      ##                                
            ,#'     '#,  ##    ##  ,#'     '#,    #''#        ######   ,####,        
            ##       ##  ##   ,#'  ##            #'  '#       #        #'  '#        
            ##       ##  #######   ##           ,######,      #####,   #    #        
            '#,     ,#'  ##    ##  '#,     ,#' ,#      #,         ##   #,  ,#        
             '#######'   ##     ##  '#######'  #'      '#     #####' # '####'        



                  #######################################################
                  #                        -***-                        #
                  #          Department of theory and spectroscopy      #
                  #    Directorship and core code : Frank Neese         #
                  #        Max Planck Institute fuer Kohlenforschung    #
                  #                Kaiser Wilhelm Platz 1               #
                  #                 D-45470 Muelheim/Ruhr               #
                  #                      Germany                        #
                  #                                                     #
                  #                  All rights reserved                #
                  #                        -***-                        #
                  #######################################################


                         Program Version 5.0.0 -  RELEASE  -
                                (SVN: $Rev: 19529$)
                ($Date: 2021-06-28 11:36:33 +0200 (Mo, 28 Jun 2021) $)


 With contributions from (in alphabetic order):
   Daniel Aravena         : Magnetic Suceptibility
   Michael Atanasov       : Ab Initio Ligand Field Theory (pilot matlab implementation)
   Alexander A. Auer      : GIAO ZORA, VPT2 properties, NMR spectrum
   Ute Becker             : Parallelization
   Giovanni Bistoni       : ED, misc. LED, open-shell LED, HFLD
   Martin Brehm           : Molecular dynamics
   Dmytro Bykov           : SCF Hessian
   Vijay G. Chilkuri      : MRCI spin determinant printing, contributions to CSF-ICE
   Dipayan Datta          : RHF DLPNO-CCSD density
   Achintya Kumar Dutta   : EOM-CC, STEOM-CC
   Dmitry Ganyushin       : Spin-Orbit,Spin-Spin,Magnetic field MRCI
   Miquel Garcia          : C-PCM Hessian, Gaussian charge scheme
   Yang Guo               : DLPNO-NEVPT2, F12-NEVPT2, CIM, IAO-localization
   Andreas Hansen         : Spin unrestricted coupled pair/coupled cluster methods
   Benjamin Helmich-Paris : MC-RPA, TRAH-SCF, COSX integrals
   Lee Huntington         : MR-EOM, pCC
   Robert Izsak           : Overlap fitted RIJCOSX, COSX-SCS-MP3, EOM
   Marcus Kettner         : VPT2
   Christian Kollmar      : KDIIS, OOCD, Brueckner-CCSD(T), CCSD density, CASPT2, CASPT2-K
   Simone Kossmann        : Meta GGA functionals, TD-DFT gradient, OOMP2, MP2 Hessian
   Martin Krupicka        : Initial AUTO-CI
   Lucas Lang             : DCDCAS
   Marvin Lechner         : AUTO-CI (C++ implementation), FIC-MRCC
   Dagmar Lenk            : GEPOL surface, SMD
   Dimitrios Liakos       : Extrapolation schemes; Compound Job, initial MDCI parallelization
   Dimitrios Manganas     : Further ROCIS development; embedding schemes
   Dimitrios Pantazis     : SARC Basis sets
   Anastasios Papadopoulos: AUTO-CI, single reference methods and gradients
   Taras Petrenko         : DFT Hessian,TD-DFT gradient, ASA, ECA, R-Raman, ABS, FL, XAS/XES, NRVS
   Peter Pinski           : DLPNO-MP2, DLPNO-MP2 Gradient
   Christoph Reimann      : Effective Core Potentials
   Marius Retegan         : Local ZFS, SOC
   Christoph Riplinger    : Optimizer, TS searches, QM/MM, DLPNO-CCSD(T), (RO)-DLPNO pert. Triples
   Tobias Risthaus        : Range-separated hybrids, TD-DFT gradient, RPA, STAB
   Michael Roemelt        : Original ROCIS implementation
   Masaaki Saitow         : Open-shell DLPNO-CCSD energy and density
   Barbara Sandhoefer     : DKH picture change effects
   Avijit Sen             : IP-ROCIS
   Kantharuban Sivalingam : CASSCF convergence, NEVPT2, FIC-MRCI
   Bernardo de Souza      : ESD, SOC TD-DFT
   Georgi Stoychev        : AutoAux, RI-MP2 NMR
   Willem Van den Heuvel  : Paramagnetic NMR
   Boris Wezisla          : Elementary symmetry handling
   Frank Wennmohs         : Technical directorship


 We gratefully acknowledge several colleagues who have allowed us to
 interface, adapt or use parts of their codes:
   Stefan Grimme, W. Hujo, H. Kruse, P. Pracht,  : VdW corrections, initial TS optimization,
                  C. Bannwarth, S. Ehlert          DFT functionals, gCP, sTDA/sTD-DF
   Ed Valeev, F. Pavosevic, A. Kumar             : LibInt (2-el integral package), F12 methods
   Garnet Chan, S. Sharma, J. Yang, R. Olivares  : DMRG
   Ulf Ekstrom                                   : XCFun DFT Library
   Mihaly Kallay                                 : mrcc  (arbitrary order and MRCC methods)
   Jiri Pittner, Ondrej Demel                    : Mk-CCSD
   Frank Weinhold                                : gennbo (NPA and NBO analysis)
   Christopher J. Cramer and Donald G. Truhlar   : smd solvation model
   Lars Goerigk                                  : TD-DFT with DH, B97 family of functionals
   V. Asgeirsson, H. Jonsson                     : NEB implementation
   FAccTs GmbH                                   : IRC, NEB, NEB-TS, DLPNO-Multilevel, CI-OPT
                                                   MM, QMMM, 2- and 3-layer-ONIOM, Crystal-QMMM,
                                                   LR-CPCM, SF, NACMEs, symmetry and pop. for TD-DFT,
                                                   nearIR, NL-DFT gradient (VV10), updates on ESD,
                                                   ML-optimized integration grids
   S Lehtola, MJT Oliveira, MAL Marques          : LibXC Library
   Liviu Ungur et al                             : ANISO software


 Your calculation uses the libint2 library for the computation of 2-el integrals
 For citations please refer to: http://libint.valeyev.net

 Your ORCA version has been built with support for libXC version: 5.1.0
 For citations please refer to: https://tddft.org/programs/libxc/

 This ORCA versions uses:
   CBLAS   interface :  Fast vector & matrix operations
   LAPACKE interface :  Fast linear algebra routines
   SCALAPACK package :  Parallel linear algebra routines
   Shared memory     :  Shared parallel matrices
   BLAS/LAPACK       :  OpenBLAS 0.3.15  USE64BITINT DYNAMIC_ARCH NO_AFFINITY Haswell SINGLE_THREADED
        Core in use  :  Haswell
   Copyright (c) 2011-2014, The OpenBLAS Project


Your calculation utilizes the atom-pairwise dispersion correction
with the Becke-Johnson damping scheme (D3BJ)
Cite in your paper:
S.Grimme, S.Ehrlich, L.Goerigk, J Comput Chem, (2011), 32, 1456–1465 
S.Grimme, J.Antony, S.Ehrlich and H.Krieg, J.Chem.Phys., 132, (2010), 154104 
   

================================================================================

----- Orbital basis set information -----
Your calculation utilizes the basis: def2-SVP
   F. Weigend and R. Ahlrichs, Phys. Chem. Chem. Phys. 7, 3297 (2005).

----- AuxJ basis set information -----
Your calculation utilizes the auxiliary basis: def2/J
   F. Weigend, Phys. Chem. Chem. Phys. 8, 1057 (2006).

================================================================================
                                        WARNINGS
                       Please study these warnings very carefully!
================================================================================



WARNING: Found flag for RIJCOSX approximation but no HF exchange needed!
  ===> : RIJCOSX  will be disabled and Split-RI-J is turned on

INFO   : the flag for use of the SHARK integral package has been found!

================================================================================
                                       INPUT FILE
================================================================================
NAME = SVP_TPSS_C2_dlpno_new_neg.com
|  1> !TPSS D3BJ RIJCOSX def2-SVP def2/J TightSCF 
|  2> *xyz 0 1 
|  3> C          4.08422        1.74208       -2.11472
|  4> C          4.26524        2.50052       -0.79589
|  5> H          4.86853        3.39267       -0.98113
|  6> H          3.30764        2.82457       -0.38781
|  7> C          4.98224        1.65026        0.24742
|  8> O          4.36806        1.38927        1.31371
|  9> F          6.12892        1.23351       -0.04562
| 10> H          3.57911        2.36849       -2.81997
| 11> H          3.50424        0.85965       -1.94198
| 12> H          5.04288        1.46841       -2.50327
| 13> *
| 14> %MaxCore 64000
| 15> %pal nprocs 8
| 16> end  
| 17> %scf
| 18>   MaxIter 150
| 19> end
| 20> 
| 21> 
| 22>                          ****END OF INPUT****
================================================================================

                       ****************************
                       * Single Point Calculation *
                       ****************************

---------------------------------
CARTESIAN COORDINATES (ANGSTROEM)
---------------------------------
  C      4.084220    1.742080   -2.114720
  C      4.265240    2.500520   -0.795890
  H      4.868530    3.392670   -0.981130
  H      3.307640    2.824570   -0.387810
  C      4.982240    1.650260    0.247420
  O      4.368060    1.389270    1.313710
  F      6.128920    1.233510   -0.045620
  H      3.579110    2.368490   -2.819970
  H      3.504240    0.859650   -1.941980
  H      5.042880    1.468410   -2.503270

----------------------------
CARTESIAN COORDINATES (A.U.)
----------------------------
  NO LB      ZA    FRAG     MASS         X           Y           Z
   0 C     6.0000    0    12.011    7.718057    3.292054   -3.996242
   1 C     6.0000    0    12.011    8.060135    4.725298   -1.504014
   2 H     1.0000    0     1.008    9.200188    6.411217   -1.854067
   3 H     1.0000    0     1.008    6.250534    5.337664   -0.732855
   4 C     6.0000    0    12.011    9.415069    3.118539    0.467556
   5 O     8.0000    0    15.999    8.254437    2.625340    2.482552
   6 F     9.0000    0    18.998   11.581980    2.330996   -0.086209
   7 H     1.0000    0     1.008    6.763538    4.475797   -5.328971
   8 H     1.0000    0     1.008    6.622054    1.624503   -3.669810
   9 H     1.0000    0     1.008    9.529662    2.774893   -4.730495

--------------------------------
INTERNAL COORDINATES (ANGSTROEM)
--------------------------------
 C      0   0   0     0.000000000000     0.00000000     0.00000000
 C      1   0   0     1.532094005895     0.00000000     0.00000000
 H      2   1   0     1.092796552063   108.87198648     0.00000000
 H      2   1   3     1.090199728903   111.44297969   118.77367229
 C      2   1   3     1.524967810709   111.62069719   240.67919178
 O      5   2   1     1.257897935685   117.77857234   241.09553575
 F      5   2   1     1.254762139411   117.07011776    59.09626179
 H      1   2   3     1.070001477896   109.47114102   299.32086871
 H      1   2   3     1.069999351822   109.47110807   179.32095167
 H      1   2   3     1.069997835045   109.47163885    59.32110217

---------------------------
INTERNAL COORDINATES (A.U.)
---------------------------
 C      0   0   0     0.000000000000     0.00000000     0.00000000
 C      1   0   0     2.895238082564     0.00000000     0.00000000
 H      2   1   0     2.065086203492   108.87198648     0.00000000
 H      2   1   3     2.060178918902   111.44297969   118.77367229
 C      2   1   3     2.881771525286   111.62069719   240.67919178
 O      5   2   1     2.377082602869   117.77857234   241.09553575
 F      5   2   1     2.371156806700   117.07011776    59.09626179
 H      1   2   3     2.022009756115   109.47114102   299.32086871
 H      1   2   3     2.022005738417   109.47110807   179.32095167
 H      1   2   3     2.022002872123   109.47163885    59.32110217

---------------------
BASIS SET INFORMATION
---------------------
There are 4 groups of distinct atoms

 Group   1 Type C   : 7s4p1d contracted to 3s2p1d pattern {511/31/1}
 Group   2 Type H   : 4s1p contracted to 2s1p pattern {31/1}
 Group   3 Type O   : 7s4p1d contracted to 3s2p1d pattern {511/31/1}
 Group   4 Type F   : 7s4p1d contracted to 3s2p1d pattern {511/31/1}

Atom   0C    basis set group =>   1
Atom   1C    basis set group =>   1
Atom   2H    basis set group =>   2
Atom   3H    basis set group =>   2
Atom   4C    basis set group =>   1
Atom   5O    basis set group =>   3
Atom   6F    basis set group =>   4
Atom   7H    basis set group =>   2
Atom   8H    basis set group =>   2
Atom   9H    basis set group =>   2
---------------------------------
AUXILIARY/J BASIS SET INFORMATION
---------------------------------
There are 4 groups of distinct atoms

 Group   1 Type C   : 12s5p4d2f1g contracted to 6s4p3d1f1g pattern {711111/2111/211/2/1}
 Group   2 Type H   : 5s2p1d contracted to 3s1p1d pattern {311/2/1}
 Group   3 Type O   : 12s5p4d2f1g contracted to 6s4p3d1f1g pattern {711111/2111/211/2/1}
 Group   4 Type F   : 12s5p4d2f1g contracted to 6s4p3d1f1g pattern {711111/2111/211/2/1}

Atom   0C    basis set group =>   1
Atom   1C    basis set group =>   1
Atom   2H    basis set group =>   2
Atom   3H    basis set group =>   2
Atom   4C    basis set group =>   1
Atom   5O    basis set group =>   3
Atom   6F    basis set group =>   4
Atom   7H    basis set group =>   2
Atom   8H    basis set group =>   2
Atom   9H    basis set group =>   2


           ************************************************************
           *        Program running with 8 parallel MPI-processes     *
           *              working on a common directory               *
           ************************************************************
------------------------------------------------------------------------------
                           ORCA GTO INTEGRAL CALCULATION
                           -- RI-GTO INTEGRALS CHOSEN --
------------------------------------------------------------------------------
------------------------------------------------------------------------------
                   ___                                                        
                  /   \      - P O W E R E D   B Y -                         
                 /     \                                                     
                 |  |  |   _    _      __       _____    __    __             
                 |  |  |  | |  | |    /  \     |  _  \  |  |  /  |          
                  \  \/   | |  | |   /    \    | | | |  |  | /  /          
                 / \  \   | |__| |  /  /\  \   | |_| |  |  |/  /          
                |  |  |   |  __  | /  /__\  \  |    /   |      \           
                |  |  |   | |  | | |   __   |  |    \   |  |\   \          
                \     /   | |  | | |  |  |  |  | |\  \  |  | \   \       
                 \___/    |_|  |_| |__|  |__|  |_| \__\ |__|  \__/        
                                                                              
                      - O R C A' S   B I G   F R I E N D -                    
                                      &                                       
                       - I N T E G R A L  F E E D E R -                       
                                                                              
 v1 FN, 2020, v2 2021                                                         
------------------------------------------------------------------------------


Reading SHARK input file SVP_TPSS_C2_dlpno_new_neg.SHARKINP.tmp ... ok
----------------------
SHARK INTEGRAL PACKAGE
----------------------

Number of atoms                             ...     10
Number of basis functions                   ...     95
Number of shells                            ...     45
Maximum angular momentum                    ...      2
Integral batch strategy                     ... SHARK/LIBINT Hybrid
RI-J (if used) integral strategy            ... SPLIT-RIJ (Revised 2003 algorithm where possible)
Printlevel                                  ...      1
Contraction scheme used                     ... SEGMENTED contraction
Coulomb Range Separation                    ... NOT USED
Exchange Range Separation                   ... NOT USED
Finite Nucleus Model                        ... NOT USED
Auxiliary Coulomb fitting basis             ... AVAILABLE
   # of basis functions in Aux-J            ...    300
   # of shells in Aux-J                     ...    100
   Maximum angular momentum in Aux-J        ...      4
Auxiliary J/K fitting basis                 ... NOT available
Auxiliary Correlation fitting basis         ... NOT available
Auxiliary 'external' fitting basis          ... NOT available
Integral threshold                          ...     2.500000e-11
Primitive cut-off                           ...     2.500000e-12
Primitive pair pre-selection threshold      ...     2.500000e-12

Calculating pre-screening integrals         ... done (  0.0 sec) Dimension = 45
Organizing shell pair data                  ... done (  0.0 sec)
Shell pair information
Total number of shell pairs                 ...      1035
Shell pairs after pre-screening             ...      1017
Total number of primitive shell pairs       ...      3735
Primitive shell pairs kept                  ...      2916
          la=0 lb=0:    317 shell pairs
          la=1 lb=0:    368 shell pairs
          la=1 lb=1:    120 shell pairs
          la=2 lb=0:    122 shell pairs
          la=2 lb=1:     75 shell pairs
          la=2 lb=2:     15 shell pairs

Calculating one electron integrals          ... done (  0.0 sec)
Calculating RI/J V-Matrix + Cholesky decomp.... done (  0.0 sec)
Calculating Nuclear repulsion               ... done (  0.0 sec) ENN=    176.995579197389 Eh

SHARK setup successfully completed in   0.1 seconds

Maximum memory used throughout the entire GTOINT-calculation: 8.8 MB


           ************************************************************
           *        Program running with 8 parallel MPI-processes     *
           *              working on a common directory               *
           ************************************************************
-------------------------------------------------------------------------------
                                 ORCA SCF
-------------------------------------------------------------------------------

------------
SCF SETTINGS
------------
Hamiltonian:
 Density Functional     Method          .... DFT(GTOs)
 Exchange Functional    Exchange        .... TPSS
 Correlation Functional Correlation     .... TPSS
 LDA part of GGA corr.  LDAOpt          .... PW91-LDA
 Gradients option       PostSCFGGA      .... off
   Density functional embedding theory  .... OFF
   NL short-range parameter             ....  5.000000
 RI-approximation to the Coulomb term is turned on
   Number of AuxJ basis functions       .... 300


General Settings:
 Integral files         IntName         .... SVP_TPSS_C2_dlpno_new_neg
 Hartree-Fock type      HFTyp           .... RHF
 Total Charge           Charge          ....    0
 Multiplicity           Mult            ....    1
 Number of Electrons    NEL             ....   40
 Basis Dimension        Dim             ....   95
 Nuclear Repulsion      ENuc            ....    176.9955791974 Eh

Convergence Acceleration:
 DIIS                   CNVDIIS         .... on
   Start iteration      DIISMaxIt       ....    12
   Startup error        DIISStart       ....  0.200000
   # of expansion vecs  DIISMaxEq       ....     5
   Bias factor          DIISBfac        ....   1.050
   Max. coefficient     DIISMaxC        ....  10.000
 Trust-Rad. Augm. Hess. CNVTRAH         .... auto
   Auto Start mean grad. ratio tolernc. ....  1.125000
   Auto Start start iteration           ....    20
   Auto Start num. interpolation iter.  ....    10
   Max. Number of Micro iterations      ....    16
   Max. Number of Macro iterations      .... Maxiter - #DIIS iter
   Number of Davidson start vectors     ....     2
   Converg. threshold I  (grad. norm)   ....   1.000e-05
   Converg. threshold II (energy diff.) ....   1.000e-08
   Grad. Scal. Fac. for Micro threshold ....   0.100
   Minimum threshold for Micro iter.    ....   0.010
   NR start threshold (gradient norm)   ....   0.001
   Initial trust radius                 ....   0.400
   Minimum AH scaling param. (alpha)    ....   1.000
   Maximum AH scaling param. (alpha)    .... 1000.000
   Orbital update algorithm             .... Taylor
   White noise on init. David. guess    .... on
   Maximum white noise                  ....   0.010
   Quad. conv. algorithm                .... NR
 SOSCF                  CNVSOSCF        .... on
   Start iteration      SOSCFMaxIt      ....   150
   Startup grad/error   SOSCFStart      ....  0.003300
 Level Shifting         CNVShift        .... on
   Level shift para.    LevelShift      ....    0.2500
   Turn off err/grad.   ShiftErr        ....    0.0010
 Zerner damping         CNVZerner       .... off
 Static damping         CNVDamp         .... on
   Fraction old density DampFac         ....    0.7000
   Max. Damping (<1)    DampMax         ....    0.9800
   Min. Damping (>=0)   DampMin         ....    0.0000
   Turn off err/grad.   DampErr         ....    0.1000
 Fernandez-Rico         CNVRico         .... off

SCF Procedure:
 Maximum # iterations   MaxIter         ....   150
 SCF integral mode      SCFMode         .... Direct
   Integral package                     .... SHARK and LIBINT hybrid scheme
 Reset frequency        DirectResetFreq ....    20
 Integral Threshold     Thresh          ....  2.500e-11 Eh
 Primitive CutOff       TCut            ....  2.500e-12 Eh

Convergence Tolerance:
 Convergence Check Mode ConvCheckMode   .... Total+1el-Energy
 Convergence forced     ConvForced      .... 0
 Energy Change          TolE            ....  1.000e-08 Eh
 1-El. energy change                    ....  1.000e-05 Eh
 Orbital Gradient       TolG            ....  1.000e-05
 Orbital Rotation angle TolX            ....  1.000e-05
 DIIS Error             TolErr          ....  5.000e-07


Diagonalization of the overlap matrix:
Smallest eigenvalue                        ... 2.904e-03
Time for diagonalization                   ...    0.003 sec
Threshold for overlap eigenvalues          ... 1.000e-08
Number of eigenvalues below threshold      ... 0
Time for construction of square roots      ...    0.004 sec
Total time needed                          ...    0.008 sec

Time for model grid setup =    0.062 sec

------------------------------
INITIAL GUESS: MODEL POTENTIAL
------------------------------
Loading Hartree-Fock densities                     ... done
Calculating cut-offs                               ... done
Initializing the effective Hamiltonian             ... done
Setting up the integral package (SHARK)            ... done
Starting the Coulomb interaction                   ... done (   0.0 sec)
Reading the grid                                   ... done
Mapping shells                                     ... done
Starting the XC term evaluation                    ... done (   0.0 sec)
  promolecular density results
     # of electrons  =     39.996654899
     EX              =    -34.958574127
     EC              =     -1.330032372
     EX+EC           =    -36.288606498
Transforming the Hamiltonian                       ... done (   0.0 sec)
Diagonalizing the Hamiltonian                      ... done (   0.0 sec)
Back transforming the eigenvectors                 ... done (   0.0 sec)
Now organizing SCF variables                       ... done
                      ------------------
                      INITIAL GUESS DONE (   0.1 sec)
                      ------------------
-------------------
DFT GRID GENERATION
-------------------

General Integration Accuracy     IntAcc      ... 4.388
Radial Grid Type                 RadialGrid  ... OptM3 with GC (2021)
Angular Grid (max. ang.)         AngularGrid ... 4 (Lebedev-302)
Angular grid pruning method      GridPruning ... 4 (adaptive)
Weight generation scheme         WeightScheme... Becke
Basis function cutoff            BFCut       ... 1.0000e-11
Integration weight cutoff        WCut        ... 1.0000e-14
Angular grids for H and He will be reduced by one unit
Partially contracted basis set               ... off
Rotationally invariant grid construction     ... off

Total number of grid points                  ...    46586
Total number of batches                      ...      733
Average number of points per batch           ...       63
Average number of grid points per atom       ...     4659
Time for grid setup =    0.315 sec

--------------
SCF ITERATIONS
--------------
ITER       Energy         Delta-E        Max-DP      RMS-DP      [F,P]     Damp
               ***  Starting incremental Fock matrix formation  ***
  0   -292.0207228119   0.000000000000 0.11568161  0.00444194  0.2619834 0.7000
  1   -292.1199080753  -0.099185263422 0.05316921  0.00229141  0.0806943 0.7000
                               ***Turning on DIIS***
  2   -292.1434776977  -0.023569622389 0.05300635  0.00294458  0.0302781 0.0000
  3   -292.2013048880  -0.057827190288 0.03629311  0.00164976  0.0493949 0.0000
  4   -292.2077106552  -0.006405767208 0.01705000  0.00066989  0.0358807 0.0000
  5   -292.2102700692  -0.002559414001 0.00492788  0.00022217  0.0074828 0.0000
                      *** Initiating the SOSCF procedure ***
                           *** Shutting down DIIS ***
                      *** Re-Reading the Fockian *** 
                      *** Removing any level shift *** 
ITER      Energy       Delta-E        Grad      Rot      Max-DP    RMS-DP
  6   -292.21040500  -0.0001349303  0.000858  0.000858  0.001972  0.000081
               *** Restarting incremental Fock matrix formation ***
  7   -292.21042099  -0.0000159891  0.000210  0.000828  0.000898  0.000040
  8   -292.21042023   0.0000007588  0.000380  0.000498  0.000550  0.000022
  9   -292.21042169  -0.0000014610  0.000186  0.000342  0.000550  0.000021
 10   -292.21042122   0.0000004706  0.000250  0.000238  0.000334  0.000014
 11   -292.21042191  -0.0000006881  0.000028  0.000051  0.000173  0.000005
 12   -292.21042190   0.0000000094  0.000033  0.000028  0.000105  0.000003
                  ***Gradient check signals convergence***
              ***Rediagonalizing the Fockian in SOSCF/NRSCF***

               *****************************************************
               *                     SUCCESS                       *
               *           SCF CONVERGED AFTER  13 CYCLES          *
               *****************************************************


----------------
TOTAL SCF ENERGY
----------------

Total Energy       :         -292.21042193 Eh           -7951.44982 eV

Components:
Nuclear Repulsion  :          176.99557920 Eh            4816.29457 eV
Electronic Energy  :         -469.20600112 Eh          -12767.74439 eV
One Electron Energy:         -750.07904358 Eh          -20410.68844 eV
Two Electron Energy:          280.87304246 Eh            7642.94405 eV

Virial components:
Potential Energy   :         -582.19680494 Eh          -15842.38047 eV
Kinetic Energy     :          289.98638301 Eh            7890.93065 eV
Virial Ratio       :            2.00766946


DFT components:
N(Alpha)           :       20.000002086602 electrons
N(Beta)            :       20.000002086602 electrons
N(Total)           :       40.000004173205 electrons
E(X)               :      -35.886539954269 Eh       
E(C)               :       -1.346010481982 Eh       
E(XC)              :      -37.232550436251 Eh       
DFET-embed. en.    :        0.000000000000 Eh       

---------------
SCF CONVERGENCE
---------------

  Last Energy change         ...   -2.6359e-08  Tolerance :   1.0000e-08
  Last MAX-Density change    ...    9.8721e-06  Tolerance :   1.0000e-07
  Last RMS-Density change    ...    5.0632e-07  Tolerance :   5.0000e-09
  Last Orbital Gradient      ...    2.3167e-06  Tolerance :   1.0000e-05
  Last Orbital Rotation      ...    5.1485e-06  Tolerance :   1.0000e-05

             **** THE GBW FILE WAS UPDATED (SVP_TPSS_C2_dlpno_new_neg.gbw) ****
             **** DENSITY SVP_TPSS_C2_dlpno_new_neg.scfp WAS UPDATED ****
             **** ENERGY FILE WAS UPDATED (SVP_TPSS_C2_dlpno_new_neg.en.tmp) ****
             **** THE GBW FILE WAS UPDATED (SVP_TPSS_C2_dlpno_new_neg.gbw) ****
             **** DENSITY SVP_TPSS_C2_dlpno_new_neg.scfp WAS UPDATED ****
----------------
ORBITAL ENERGIES
----------------

  NO   OCC          E(Eh)            E(eV) 
   0   2.0000     -24.478958      -666.1063 
   1   2.0000     -18.887746      -513.9617 
   2   2.0000     -10.155300      -276.3398 
   3   2.0000     -10.025934      -272.8195 
   4   2.0000     -10.010769      -272.4069 
   5   2.0000      -1.213453       -33.0197 
   6   2.0000      -0.939225       -25.5576 
   7   2.0000      -0.736382       -20.0380 
   8   2.0000      -0.620491       -16.8844 
   9   2.0000      -0.576771       -15.6947 
  10   2.0000      -0.488549       -13.2941 
  11   2.0000      -0.475217       -12.9313 
  12   2.0000      -0.441970       -12.0266 
  13   2.0000      -0.415454       -11.3051 
  14   2.0000      -0.385946       -10.5021 
  15   2.0000      -0.356385        -9.6977 
  16   2.0000      -0.338951        -9.2233 
  17   2.0000      -0.330631        -8.9969 
  18   2.0000      -0.302629        -8.2350 
  19   2.0000      -0.232152        -6.3172 
  20   0.0000      -0.048605        -1.3226 
  21   0.0000       0.047259         1.2860 
  22   0.0000       0.090366         2.4590 
  23   0.0000       0.097045         2.6407 
  24   0.0000       0.117606         3.2002 
  25   0.0000       0.130761         3.5582 
  26   0.0000       0.144134         3.9221 
  27   0.0000       0.187742         5.1087 
  28   0.0000       0.232970         6.3394 
  29   0.0000       0.295879         8.0513 
  30   0.0000       0.384173        10.4539 
  31   0.0000       0.400685        10.9032 
  32   0.0000       0.424111        11.5407 
  33   0.0000       0.437811        11.9134 
  34   0.0000       0.502608        13.6767 
  35   0.0000       0.526183        14.3182 
  36   0.0000       0.549596        14.9553 
  37   0.0000       0.595429        16.2025 
  38   0.0000       0.611210        16.6319 
  39   0.0000       0.630730        17.1630 
  40   0.0000       0.650778        17.7086 
  41   0.0000       0.653697        17.7880 
  42   0.0000       0.662513        18.0279 
  43   0.0000       0.672536        18.3006 
  44   0.0000       0.692505        18.8440 
  45   0.0000       0.834602        22.7107 
  46   0.0000       0.886244        24.1159 
  47   0.0000       0.898325        24.4447 
  48   0.0000       0.991533        26.9810 
  49   0.0000       1.037139        28.2220 
  50   0.0000       1.092705        29.7340 
  51   0.0000       1.120735        30.4967 
  52   0.0000       1.222440        33.2643 
  53   0.0000       1.230149        33.4740 
  54   0.0000       1.290957        35.1287 
  55   0.0000       1.331541        36.2331 
  56   0.0000       1.402607        38.1669 
  57   0.0000       1.482725        40.3470 
  58   0.0000       1.529049        41.6075 
  59   0.0000       1.549189        42.1556 
  60   0.0000       1.656354        45.0717 
  61   0.0000       1.672717        45.5169 
  62   0.0000       1.714727        46.6601 
  63   0.0000       1.773726        48.2655 
  64   0.0000       1.790172        48.7131 
  65   0.0000       1.807474        49.1839 
  66   0.0000       1.825857        49.6841 
  67   0.0000       1.835617        49.9497 
  68   0.0000       1.858536        50.5733 
  69   0.0000       1.909487        51.9598 
  70   0.0000       1.967332        53.5338 
  71   0.0000       1.990435        54.1625 
  72   0.0000       2.076304        56.4991 
  73   0.0000       2.171760        59.0966 
  74   0.0000       2.273116        61.8546 
  75   0.0000       2.315053        62.9958 
  76   0.0000       2.373133        64.5762 
  77   0.0000       2.456865        66.8547 
  78   0.0000       2.523947        68.6801 
  79   0.0000       2.575901        70.0938 
  80   0.0000       2.620964        71.3200 
  81   0.0000       2.654724        72.2387 
  82   0.0000       2.782479        75.7151 
  83   0.0000       2.855631        77.7057 
  84   0.0000       2.881095        78.3986 
  85   0.0000       2.923883        79.5629 
  86   0.0000       2.971603        80.8614 
  87   0.0000       2.989960        81.3610 
  88   0.0000       2.996013        81.5257 
  89   0.0000       3.065639        83.4203 
  90   0.0000       3.160523        86.0022 
  91   0.0000       3.360774        91.4513 
  92   0.0000       3.390159        92.2509 
  93   0.0000       3.647789        99.2614 
  94   0.0000       3.876468       105.4841 

                    ********************************
                    * MULLIKEN POPULATION ANALYSIS *
                    ********************************

-----------------------
MULLIKEN ATOMIC CHARGES
-----------------------
   0 C :   -0.013087
   1 C :   -0.060248
   2 H :    0.040500
   3 H :    0.047590
   4 C :    0.218620
   5 O :   -0.254951
   6 F :   -0.067643
   7 H :    0.029104
   8 H :    0.032955
   9 H :    0.027161
Sum of atomic charges:   -0.0000000

--------------------------------
MULLIKEN REDUCED ORBITAL CHARGES
--------------------------------
  0 C s       :     2.999821  s :     2.999821
      pz      :     0.961428  p :     2.982737
      px      :     1.019847
      py      :     1.001462
      dz2     :     0.005773  d :     0.030530
      dxz     :     0.006097
      dyz     :     0.007039
      dx2y2   :     0.004282
      dxy     :     0.007339
  1 C s       :     3.050857  s :     3.050857
      pz      :     0.969070  p :     2.975001
      px      :     1.006475
      py      :     0.999457
      dz2     :     0.006641  d :     0.034389
      dxz     :     0.007849
      dyz     :     0.007612
      dx2y2   :     0.004009
      dxy     :     0.008279
  2 H s       :     0.936788  s :     0.936788
      pz      :     0.004976  p :     0.022712
      px      :     0.007276
      py      :     0.010461
  3 H s       :     0.931065  s :     0.931065
      pz      :     0.005188  p :     0.021344
      px      :     0.011543
      py      :     0.004613
  4 C s       :     3.080550  s :     3.080550
      pz      :     0.905718  p :     2.556521
      px      :     0.780725
      py      :     0.870078
      dz2     :     0.031110  d :     0.144310
      dxz     :     0.039113
      dyz     :     0.021417
      dx2y2   :     0.027965
      dxy     :     0.024705
  5 O s       :     3.800766  s :     3.800766
      pz      :     1.372454  p :     4.438254
      px      :     1.584950
      py      :     1.480850
      dz2     :     0.005063  d :     0.015931
      dxz     :     0.004887
      dyz     :     0.003407
      dx2y2   :     0.001084
      dxy     :     0.001490
  6 F s       :     3.870449  s :     3.870449
      pz      :     1.859382  p :     5.186921
      px      :     1.530226
      py      :     1.797314
      dz2     :     0.001288  d :     0.010273
      dxz     :     0.002365
      dyz     :     0.000516
      dx2y2   :     0.003151
      dxy     :     0.002953
  7 H s       :     0.947169  s :     0.947169
      pz      :     0.008592  p :     0.023727
      px      :     0.007224
      py      :     0.007910
  8 H s       :     0.943375  s :     0.943375
      pz      :     0.004734  p :     0.023671
      px      :     0.007905
      py      :     0.011032
  9 H s       :     0.949061  s :     0.949061
      pz      :     0.005899  p :     0.023779
      px      :     0.012173
      py      :     0.005708


                     *******************************
                     * LOEWDIN POPULATION ANALYSIS *
                     *******************************

----------------------
LOEWDIN ATOMIC CHARGES
----------------------
   0 C :   -0.033404
   1 C :   -0.060360
   2 H :    0.035561
   3 H :    0.039208
   4 C :    0.081668
   5 O :   -0.186361
   6 F :    0.052808
   7 H :    0.026020
   8 H :    0.024153
   9 H :    0.020706

-------------------------------
LOEWDIN REDUCED ORBITAL CHARGES
-------------------------------
  0 C s       :     2.821393  s :     2.821393
      pz      :     1.012008  p :     3.135667
      px      :     1.068087
      py      :     1.055572
      dz2     :     0.015017  d :     0.076345
      dxz     :     0.014439
      dyz     :     0.018609
      dx2y2   :     0.010359
      dxy     :     0.017920
  1 C s       :     2.853588  s :     2.853588
      pz      :     1.023934  p :     3.120531
      px      :     1.058082
      py      :     1.038515
      dz2     :     0.016364  d :     0.086241
      dxz     :     0.018537
      dyz     :     0.021043
      dx2y2   :     0.009841
      dxy     :     0.020456
  2 H s       :     0.896323  s :     0.896323
      pz      :     0.015362  p :     0.068116
      px      :     0.020663
      py      :     0.032092
  3 H s       :     0.894204  s :     0.894204
      pz      :     0.016345  p :     0.066587
      px      :     0.035523
      py      :     0.014720
  4 C s       :     2.873185  s :     2.873185
      pz      :     0.987741  p :     2.726438
      px      :     0.866639
      py      :     0.872058
      dz2     :     0.064994  d :     0.318708
      dxz     :     0.095854
      dyz     :     0.043902
      dx2y2   :     0.061451
      dxy     :     0.052507
  5 O s       :     3.597861  s :     3.597861
      pz      :     1.464089  p :     4.561325
      px      :     1.614908
      py      :     1.482328
      dz2     :     0.008760  d :     0.027175
      dxz     :     0.009712
      dyz     :     0.005009
      dx2y2   :     0.001660
      dxy     :     0.002035
  6 F s       :     3.689182  s :     3.689182
      pz      :     1.852562  p :     5.240325
      px      :     1.593866
      py      :     1.793897
      dz2     :     0.002454  d :     0.017685
      dxz     :     0.003875
      dyz     :     0.000750
      dx2y2   :     0.005473
      dxy     :     0.005133
  7 H s       :     0.905229  s :     0.905229
      pz      :     0.026204  p :     0.068750
      px      :     0.019650
      py      :     0.022897
  8 H s       :     0.907134  s :     0.907134
      pz      :     0.014456  p :     0.068713
      px      :     0.021758
      py      :     0.032499
  9 H s       :     0.910321  s :     0.910321
      pz      :     0.017783  p :     0.068974
      px      :     0.035545
      py      :     0.015645


                      *****************************
                      * MAYER POPULATION ANALYSIS *
                      *****************************

  NA   - Mulliken gross atomic population
  ZA   - Total nuclear charge
  QA   - Mulliken gross atomic charge
  VA   - Mayer's total valence
  BVA  - Mayer's bonded valence
  FA   - Mayer's free valence

  ATOM       NA         ZA         QA         VA         BVA        FA
  0 C      6.0131     6.0000    -0.0131     4.0189     4.0189     0.0000
  1 C      6.0602     6.0000    -0.0602     3.9609     3.9609     0.0000
  2 H      0.9595     1.0000     0.0405     0.9764     0.9764     0.0000
  3 H      0.9524     1.0000     0.0476     0.9986     0.9986     0.0000
  4 C      5.7814     6.0000     0.2186     4.3091     4.3091    -0.0000
  5 O      8.2550     8.0000    -0.2550     2.2006     2.2006    -0.0000
  6 F      9.0676     9.0000    -0.0676     1.2985     1.2985     0.0000
  7 H      0.9709     1.0000     0.0291     0.9852     0.9852    -0.0000
  8 H      0.9670     1.0000     0.0330     0.9834     0.9834    -0.0000
  9 H      0.9728     1.0000     0.0272     0.9920     0.9920     0.0000

  Mayer bond orders larger than 0.100000
B(  0-C ,  1-C ) :   1.0757 B(  0-C ,  7-H ) :   0.9666 B(  0-C ,  8-H ) :   0.9752 
B(  0-C ,  9-H ) :   0.9716 B(  1-C ,  2-H ) :   0.9253 B(  1-C ,  3-H ) :   0.9476 
B(  1-C ,  4-C ) :   1.0061 B(  4-C ,  5-O ) :   2.0636 B(  4-C ,  6-F ) :   1.1915 


-------
TIMINGS
-------

Total SCF time: 0 days 0 hours 0 min 2 sec 

Total time                  ....       2.922 sec
Sum of individual times     ....       2.787 sec  ( 95.4%)

Fock matrix formation       ....       2.274 sec  ( 77.8%)
  Split-RI-J                ....       0.390 sec  ( 17.2% of F)
  XC integration            ....       1.851 sec  ( 81.4% of F)
    Basis function eval.    ....       0.416 sec  ( 22.5% of XC)
    Density eval.           ....       0.497 sec  ( 26.9% of XC)
    XC-Functional eval.     ....       0.291 sec  ( 15.7% of XC)
    XC-Potential eval.      ....       0.435 sec  ( 23.5% of XC)
Diagonalization             ....       0.033 sec  (  1.1%)
Density matrix formation    ....       0.003 sec  (  0.1%)
Population analysis         ....       0.006 sec  (  0.2%)
Initial guess               ....       0.041 sec  (  1.4%)
Orbital Transformation      ....       0.000 sec  (  0.0%)
Orbital Orthonormalization  ....       0.000 sec  (  0.0%)
DIIS solution               ....       0.028 sec  (  1.0%)
SOSCF solution              ....       0.025 sec  (  0.8%)
Grid generation             ....       0.377 sec  ( 12.9%)

Maximum memory used throughout the entire SCF-calculation: 13.8 MB


-------------------------------------------------------------------------------
                          DFT DISPERSION CORRECTION                            
                                                                               
                              DFTD3 V3.1  Rev 1                                
                          USING Becke-Johnson damping                          
-------------------------------------------------------------------------------
The TPSS functional is recognized
Active option DFTDOPT                   ...         4   

molecular C6(AA) [au] = 808.351869 


            DFT-D V3
 parameters
 s6 scaling factor         :     1.0000 
 a1 scaling factor         :     0.4535 
 s8 scaling factor         :     1.9435 
 a2 scaling factor         :     4.4752 
 ad hoc parameters k1-k3   :    16.0000     1.3333    -4.0000 

 Edisp/kcal,au: -4.775006682687  -0.007609456703 
 E6   /kcal   :  -2.480199513 
 E8   /kcal   :  -2.294807169 
 % E8         :  48.058721625 

-------------------------   ----------------
Dispersion correction           -0.007609457
-------------------------   ----------------


-------------------------   --------------------
FINAL SINGLE POINT ENERGY      -292.218031381807
-------------------------   --------------------


                            ***************************************
                            *     ORCA property calculations      *
                            ***************************************

                                    ---------------------
                                    Active property flags
                                    ---------------------
   (+) Dipole Moment


------------------------------------------------------------------------------
                       ORCA ELECTRIC PROPERTIES CALCULATION
------------------------------------------------------------------------------

Dipole Moment Calculation                       ... on
Quadrupole Moment Calculation                   ... off
Polarizability Calculation                      ... off
GBWName                                         ... SVP_TPSS_C2_dlpno_new_neg.gbw
Electron density file                           ... SVP_TPSS_C2_dlpno_new_neg.scfp
The origin for moment calculation is the CENTER OF MASS  = ( 9.114847,  3.165891 -0.510240)

-------------
DIPOLE MOMENT
-------------
                                X             Y             Z
Electronic contribution:      4.87622      -2.36312       5.97190
Nuclear contribution   :     -4.79499       2.78546      -7.01827
                        -----------------------------------------
Total Dipole Moment    :      0.08122       0.42234      -1.04637
                        -----------------------------------------
Magnitude (a.u.)       :      1.13131
Magnitude (Debye)      :      2.87556



--------------------
Rotational spectrum 
--------------------
 
Rotational constants in cm-1:     0.286098     0.133492     0.103343 
Rotational constants in MHz :  8577.003657  4001.981591  3098.148068 

 Dipole components along the rotational axes: 
x,y,z [a.u.] :    -1.019483    -0.376966    -0.313712 
x,y,z [Debye]:    -2.591321    -0.958171    -0.797393 

 

Timings for individual modules:

Sum of individual times         ...        5.475 sec (=   0.091 min)
GTO integral calculation        ...        1.915 sec (=   0.032 min)  35.0 %
SCF iterations                  ...        3.560 sec (=   0.059 min)  65.0 %
                             ****ORCA TERMINATED NORMALLY****
TOTAL RUN TIME: 0 days 0 hours 0 minutes 6 seconds 187 msec
