
                                        *****************
                                        * O   R   C   A *
                                        *****************

                                            #,                                       
                                            ###                                      
                                            ####                                     
                                            #####                                    
                                            ######                                   
                                           ########,                                 
                                     ,,################,,,,,                         
                               ,,#################################,,                 
                          ,,##########################################,,             
                       ,#########################################, ''#####,          
                    ,#############################################,,   '####,        
                  ,##################################################,,,,####,       
                ,###########''''           ''''###############################       
              ,#####''   ,,,,##########,,,,          '''####'''          '####       
            ,##' ,,,,###########################,,,                        '##       
           ' ,,###''''                  '''############,,,                           
         ,,##''                                '''############,,,,        ,,,,,,###''
      ,#''                                            '''#######################'''  
     '                                                          ''''####''''         
             ,#######,   #######,   ,#######,      ##                                
            ,#'     '#,  ##    ##  ,#'     '#,    #''#        ######   ,####,        
            ##       ##  ##   ,#'  ##            #'  '#       #        #'  '#        
            ##       ##  #######   ##           ,######,      #####,   #    #        
            '#,     ,#'  ##    ##  '#,     ,#' ,#      #,         ##   #,  ,#        
             '#######'   ##     ##  '#######'  #'      '#     #####' # '####'        



                  #######################################################
                  #                        -***-                        #
                  #          Department of theory and spectroscopy      #
                  #    Directorship and core code : Frank Neese         #
                  #        Max Planck Institute fuer Kohlenforschung    #
                  #                Kaiser Wilhelm Platz 1               #
                  #                 D-45470 Muelheim/Ruhr               #
                  #                      Germany                        #
                  #                                                     #
                  #                  All rights reserved                #
                  #                        -***-                        #
                  #######################################################


                         Program Version 5.0.0 -  RELEASE  -
                                (SVN: $Rev: 19529$)
                ($Date: 2021-06-28 11:36:33 +0200 (Mo, 28 Jun 2021) $)


 With contributions from (in alphabetic order):
   Daniel Aravena         : Magnetic Suceptibility
   Michael Atanasov       : Ab Initio Ligand Field Theory (pilot matlab implementation)
   Alexander A. Auer      : GIAO ZORA, VPT2 properties, NMR spectrum
   Ute Becker             : Parallelization
   Giovanni Bistoni       : ED, misc. LED, open-shell LED, HFLD
   Martin Brehm           : Molecular dynamics
   Dmytro Bykov           : SCF Hessian
   Vijay G. Chilkuri      : MRCI spin determinant printing, contributions to CSF-ICE
   Dipayan Datta          : RHF DLPNO-CCSD density
   Achintya Kumar Dutta   : EOM-CC, STEOM-CC
   Dmitry Ganyushin       : Spin-Orbit,Spin-Spin,Magnetic field MRCI
   Miquel Garcia          : C-PCM Hessian, Gaussian charge scheme
   Yang Guo               : DLPNO-NEVPT2, F12-NEVPT2, CIM, IAO-localization
   Andreas Hansen         : Spin unrestricted coupled pair/coupled cluster methods
   Benjamin Helmich-Paris : MC-RPA, TRAH-SCF, COSX integrals
   Lee Huntington         : MR-EOM, pCC
   Robert Izsak           : Overlap fitted RIJCOSX, COSX-SCS-MP3, EOM
   Marcus Kettner         : VPT2
   Christian Kollmar      : KDIIS, OOCD, Brueckner-CCSD(T), CCSD density, CASPT2, CASPT2-K
   Simone Kossmann        : Meta GGA functionals, TD-DFT gradient, OOMP2, MP2 Hessian
   Martin Krupicka        : Initial AUTO-CI
   Lucas Lang             : DCDCAS
   Marvin Lechner         : AUTO-CI (C++ implementation), FIC-MRCC
   Dagmar Lenk            : GEPOL surface, SMD
   Dimitrios Liakos       : Extrapolation schemes; Compound Job, initial MDCI parallelization
   Dimitrios Manganas     : Further ROCIS development; embedding schemes
   Dimitrios Pantazis     : SARC Basis sets
   Anastasios Papadopoulos: AUTO-CI, single reference methods and gradients
   Taras Petrenko         : DFT Hessian,TD-DFT gradient, ASA, ECA, R-Raman, ABS, FL, XAS/XES, NRVS
   Peter Pinski           : DLPNO-MP2, DLPNO-MP2 Gradient
   Christoph Reimann      : Effective Core Potentials
   Marius Retegan         : Local ZFS, SOC
   Christoph Riplinger    : Optimizer, TS searches, QM/MM, DLPNO-CCSD(T), (RO)-DLPNO pert. Triples
   Tobias Risthaus        : Range-separated hybrids, TD-DFT gradient, RPA, STAB
   Michael Roemelt        : Original ROCIS implementation
   Masaaki Saitow         : Open-shell DLPNO-CCSD energy and density
   Barbara Sandhoefer     : DKH picture change effects
   Avijit Sen             : IP-ROCIS
   Kantharuban Sivalingam : CASSCF convergence, NEVPT2, FIC-MRCI
   Bernardo de Souza      : ESD, SOC TD-DFT
   Georgi Stoychev        : AutoAux, RI-MP2 NMR
   Willem Van den Heuvel  : Paramagnetic NMR
   Boris Wezisla          : Elementary symmetry handling
   Frank Wennmohs         : Technical directorship


 We gratefully acknowledge several colleagues who have allowed us to
 interface, adapt or use parts of their codes:
   Stefan Grimme, W. Hujo, H. Kruse, P. Pracht,  : VdW corrections, initial TS optimization,
                  C. Bannwarth, S. Ehlert          DFT functionals, gCP, sTDA/sTD-DF
   Ed Valeev, F. Pavosevic, A. Kumar             : LibInt (2-el integral package), F12 methods
   Garnet Chan, S. Sharma, J. Yang, R. Olivares  : DMRG
   Ulf Ekstrom                                   : XCFun DFT Library
   Mihaly Kallay                                 : mrcc  (arbitrary order and MRCC methods)
   Jiri Pittner, Ondrej Demel                    : Mk-CCSD
   Frank Weinhold                                : gennbo (NPA and NBO analysis)
   Christopher J. Cramer and Donald G. Truhlar   : smd solvation model
   Lars Goerigk                                  : TD-DFT with DH, B97 family of functionals
   V. Asgeirsson, H. Jonsson                     : NEB implementation
   FAccTs GmbH                                   : IRC, NEB, NEB-TS, DLPNO-Multilevel, CI-OPT
                                                   MM, QMMM, 2- and 3-layer-ONIOM, Crystal-QMMM,
                                                   LR-CPCM, SF, NACMEs, symmetry and pop. for TD-DFT,
                                                   nearIR, NL-DFT gradient (VV10), updates on ESD,
                                                   ML-optimized integration grids
   S Lehtola, MJT Oliveira, MAL Marques          : LibXC Library
   Liviu Ungur et al                             : ANISO software


 Your calculation uses the libint2 library for the computation of 2-el integrals
 For citations please refer to: http://libint.valeyev.net

 Your ORCA version has been built with support for libXC version: 5.1.0
 For citations please refer to: https://tddft.org/programs/libxc/

 This ORCA versions uses:
   CBLAS   interface :  Fast vector & matrix operations
   LAPACKE interface :  Fast linear algebra routines
   SCALAPACK package :  Parallel linear algebra routines
   Shared memory     :  Shared parallel matrices
   BLAS/LAPACK       :  OpenBLAS 0.3.15  USE64BITINT DYNAMIC_ARCH NO_AFFINITY Haswell SINGLE_THREADED
        Core in use  :  Haswell
   Copyright (c) 2011-2014, The OpenBLAS Project


Your calculation utilizes the atom-pairwise dispersion correction
with the Becke-Johnson damping scheme (D3BJ)
Cite in your paper:
S.Grimme, S.Ehrlich, L.Goerigk, J Comput Chem, (2011), 32, 1456–1465 
S.Grimme, J.Antony, S.Ehrlich and H.Krieg, J.Chem.Phys., 132, (2010), 154104 
   

================================================================================

----- Orbital basis set information -----
Your calculation utilizes the basis: def2-SVPD
   F. Weigend and R. Ahlrichs, Phys. Chem. Chem. Phys. 7, 3297 (2005).
   D. Rappoport and F. Furche, J. Chem. Phys. 133 134105 (2010).

----- AuxJ basis set information -----
Your calculation utilizes the auxiliary basis: def2/J
   F. Weigend, Phys. Chem. Chem. Phys. 8, 1057 (2006).

================================================================================
                                        WARNINGS
                       Please study these warnings very carefully!
================================================================================


INFO   : the flag for use of the SHARK integral package has been found!

================================================================================
                                       INPUT FILE
================================================================================
NAME = 18Feb_SVPD_B3LYP_C2_wt_wb97_typm1_neg.com
|  1> !B3LYP D3BJ RIJCOSX def2-SVPD def2/J TightSCF 
|  2> *xyz 0 1 
|  3> C         -5.57236       -5.80780       -0.81644
|  4> S         -6.90318       -4.61903       -0.52846
|  5> O         -8.11485       -5.25093       -0.95701
|  6> F         -6.53271       -3.42684       -1.31485
|  7> O         -6.86563       -4.29496        0.91412
|  8> H         -5.55376       -6.07856       -1.85145
|  9> H         -5.73990       -6.68165       -0.22212
| 10> H         -4.63562       -5.36690       -0.54622
| 11> *
| 12> %MaxCore 64000
| 13> 
| 14> %pal nprocs 4
| 15> end  
| 16> 
| 17> %scf
| 18>   MaxIter 150
| 19> end
| 20> 
| 21>                          ****END OF INPUT****
================================================================================

                       ****************************
                       * Single Point Calculation *
                       ****************************

---------------------------------
CARTESIAN COORDINATES (ANGSTROEM)
---------------------------------
  C     -5.572360   -5.807800   -0.816440
  S     -6.903180   -4.619030   -0.528460
  O     -8.114850   -5.250930   -0.957010
  F     -6.532710   -3.426840   -1.314850
  O     -6.865630   -4.294960    0.914120
  H     -5.553760   -6.078560   -1.851450
  H     -5.739900   -6.681650   -0.222120
  H     -4.635620   -5.366900   -0.546220

----------------------------
CARTESIAN COORDINATES (A.U.)
----------------------------
  NO LB      ZA    FRAG     MASS         X           Y           Z
   0 C     6.0000    0    12.011  -10.530234  -10.975151   -1.542848
   1 S    16.0000    0    32.060  -13.045120   -8.728702   -0.998645
   2 O     8.0000    0    15.999  -15.334844   -9.922820   -1.808487
   3 F     9.0000    0    18.998  -12.345033   -6.475789   -2.484706
   4 O     8.0000    0    15.999  -12.974160   -8.116298    1.727436
   5 H     1.0000    0     1.008  -10.495085  -11.486814   -3.498733
   6 H     1.0000    0     1.008  -10.846839  -12.626489   -0.419746
   7 H     1.0000    0     1.008   -8.760052  -10.141971   -1.032206

--------------------------------
INTERNAL COORDINATES (ANGSTROEM)
--------------------------------
 C      0   0   0     0.000000000000     0.00000000     0.00000000
 S      1   0   0     1.807536573821     0.00000000     0.00000000
 O      2   1   0     1.432165109685   106.56208582     0.00000000
 F      2   1   3     1.475457301686   105.16666730   238.45210070
 O      2   1   3     1.479009271032   106.30854122   122.18883319
 H      1   2   3     1.070001232569   109.47115810    57.81124179
 H      1   2   3     1.069999876869   109.47124695   297.81087182
 H      1   2   3     1.069996956070   109.47120390   177.81135154

---------------------------
INTERNAL COORDINATES (A.U.)
---------------------------
 C      0   0   0     0.000000000000     0.00000000     0.00000000
 S      1   0   0     3.415749101568     0.00000000     0.00000000
 O      2   1   0     2.706399835863   106.56208582     0.00000000
 F      2   1   3     2.788210222482   105.16666730   238.45210070
 O      2   1   3     2.794922471782   106.30854122   122.18883319
 H      1   2   3     2.022009292514   109.47115810    57.81124179
 H      1   2   3     2.022006730612   109.47124695   297.81087182
 H      1   2   3     2.022001211102   109.47120390   177.81135154

---------------------
BASIS SET INFORMATION
---------------------
There are 5 groups of distinct atoms

 Group   1 Type C   : 8s4p2d contracted to 4s2p2d pattern {5111/31/11}
 Group   2 Type S   : 11s8p2d contracted to 5s4p2d pattern {53111/5111/11}
 Group   3 Type O   : 8s5p2d contracted to 4s3p2d pattern {5111/311/11}
 Group   4 Type F   : 8s5p2d contracted to 4s3p2d pattern {5111/311/11}
 Group   5 Type H   : 4s2p contracted to 2s2p pattern {31/11}

Atom   0C    basis set group =>   1
Atom   1S    basis set group =>   2
Atom   2O    basis set group =>   3
Atom   3F    basis set group =>   4
Atom   4O    basis set group =>   3
Atom   5H    basis set group =>   5
Atom   6H    basis set group =>   5
Atom   7H    basis set group =>   5
---------------------------------
AUXILIARY/J BASIS SET INFORMATION
---------------------------------
There are 5 groups of distinct atoms

 Group   1 Type C   : 12s5p4d2f1g contracted to 6s4p3d1f1g pattern {711111/2111/211/2/1}
 Group   2 Type S   : 14s5p5d2f1g contracted to 8s4p3d1f1g pattern {71111111/2111/311/2/1}
 Group   3 Type O   : 12s5p4d2f1g contracted to 6s4p3d1f1g pattern {711111/2111/211/2/1}
 Group   4 Type F   : 12s5p4d2f1g contracted to 6s4p3d1f1g pattern {711111/2111/211/2/1}
 Group   5 Type H   : 5s2p1d contracted to 3s1p1d pattern {311/2/1}

Atom   0C    basis set group =>   1
Atom   1S    basis set group =>   2
Atom   2O    basis set group =>   3
Atom   3F    basis set group =>   4
Atom   4O    basis set group =>   3
Atom   5H    basis set group =>   5
Atom   6H    basis set group =>   5
Atom   7H    basis set group =>   5


           ************************************************************
           *        Program running with 4 parallel MPI-processes     *
           *              working on a common directory               *
           ************************************************************
------------------------------------------------------------------------------
                           ORCA GTO INTEGRAL CALCULATION
                           -- RI-GTO INTEGRALS CHOSEN --
------------------------------------------------------------------------------
------------------------------------------------------------------------------
                   ___                                                        
                  /   \      - P O W E R E D   B Y -                         
                 /     \                                                     
                 |  |  |   _    _      __       _____    __    __             
                 |  |  |  | |  | |    /  \     |  _  \  |  |  /  |          
                  \  \/   | |  | |   /    \    | | | |  |  | /  /          
                 / \  \   | |__| |  /  /\  \   | |_| |  |  |/  /          
                |  |  |   |  __  | /  /__\  \  |    /   |      \           
                |  |  |   | |  | | |   __   |  |    \   |  |\   \          
                \     /   | |  | | |  |  |  |  | |\  \  |  | \   \       
                 \___/    |_|  |_| |__|  |__|  |_| \__\ |__|  \__/        
                                                                              
                      - O R C A' S   B I G   F R I E N D -                    
                                      &                                       
                       - I N T E G R A L  F E E D E R -                       
                                                                              
 v1 FN, 2020, v2 2021                                                         
------------------------------------------------------------------------------


Reading SHARK input file 18Feb_SVPD_B3LYP_C2_wt_wb97_typm1_neg.SHARKINP.tmp ... ok
----------------------
SHARK INTEGRAL PACKAGE
----------------------

Number of atoms                             ...      8
Number of basis functions                   ...    140
Number of shells                            ...     58
Maximum angular momentum                    ...      2
Integral batch strategy                     ... SHARK/LIBINT Hybrid
RI-J (if used) integral strategy            ... SPLIT-RIJ (Revised 2003 algorithm where possible)
Printlevel                                  ...      1
Contraction scheme used                     ... SEGMENTED contraction
Coulomb Range Separation                    ... NOT USED
Exchange Range Separation                   ... NOT USED
Finite Nucleus Model                        ... NOT USED
Auxiliary Coulomb fitting basis             ... AVAILABLE
   # of basis functions in Aux-J            ...    280
   # of shells in Aux-J                     ...     92
   Maximum angular momentum in Aux-J        ...      4
Auxiliary J/K fitting basis                 ... NOT available
Auxiliary Correlation fitting basis         ... NOT available
Auxiliary 'external' fitting basis          ... NOT available
Integral threshold                          ...     2.500000e-11
Primitive cut-off                           ...     2.500000e-12
Primitive pair pre-selection threshold      ...     2.500000e-12

Calculating pre-screening integrals         ... done (  0.0 sec) Dimension = 58
Organizing shell pair data                  ... done (  0.0 sec)
Shell pair information
Total number of shell pairs                 ...      1711
Shell pairs after pre-screening             ...      1698
Total number of primitive shell pairs       ...      4935
Primitive shell pairs kept                  ...      4115
          la=0 lb=0:    368 shell pairs
          la=1 lb=0:    564 shell pairs
          la=1 lb=1:    231 shell pairs
          la=2 lb=0:    270 shell pairs
          la=2 lb=1:    210 shell pairs
          la=2 lb=2:     55 shell pairs

Calculating one electron integrals          ... done (  0.0 sec)
Calculating RI/J V-Matrix + Cholesky decomp.... done (  0.0 sec)
Calculating Nuclear repulsion               ... done (  0.0 sec) ENN=    281.847118046694 Eh

SHARK setup successfully completed in   0.2 seconds

Maximum memory used throughout the entire GTOINT-calculation: 8.8 MB


           ************************************************************
           *        Program running with 4 parallel MPI-processes     *
           *              working on a common directory               *
           ************************************************************
-------------------------------------------------------------------------------
                                 ORCA SCF
-------------------------------------------------------------------------------

------------
SCF SETTINGS
------------
Hamiltonian:
 Density Functional     Method          .... DFT(GTOs)
 Exchange Functional    Exchange        .... B88
   X-Alpha parameter    XAlpha          ....  0.666667
   Becke's b parameter  XBeta           ....  0.004200
 Correlation Functional Correlation     .... LYP
 LDA part of GGA corr.  LDAOpt          .... VWN-5
 Gradients option       PostSCFGGA      .... off
 Hybrid DFT is turned on
   Fraction HF Exchange ScalHFX         ....  0.200000
   Scaling of DF-GGA-X  ScalDFX         ....  0.720000
   Scaling of DF-GGA-C  ScalDFC         ....  0.810000
   Scaling of DF-LDA-C  ScalLDAC        ....  1.000000
   Perturbative correction              ....  0.000000
   Density functional embedding theory  .... OFF
   NL short-range parameter             ....  4.800000
 RI-approximation to the Coulomb term is turned on
   Number of AuxJ basis functions       .... 280
   RIJ-COSX (HFX calculated with COS-X)).... on


General Settings:
 Integral files         IntName         .... 18Feb_SVPD_B3LYP_C2_wt_wb97_typm1_neg
 Hartree-Fock type      HFTyp           .... RHF
 Total Charge           Charge          ....    0
 Multiplicity           Mult            ....    1
 Number of Electrons    NEL             ....   50
 Basis Dimension        Dim             ....  140
 Nuclear Repulsion      ENuc            ....    281.8471180467 Eh

Convergence Acceleration:
 DIIS                   CNVDIIS         .... on
   Start iteration      DIISMaxIt       ....    12
   Startup error        DIISStart       ....  0.200000
   # of expansion vecs  DIISMaxEq       ....     5
   Bias factor          DIISBfac        ....   1.050
   Max. coefficient     DIISMaxC        ....  10.000
 Trust-Rad. Augm. Hess. CNVTRAH         .... auto
   Auto Start mean grad. ratio tolernc. ....  1.125000
   Auto Start start iteration           ....    20
   Auto Start num. interpolation iter.  ....    10
   Max. Number of Micro iterations      ....    16
   Max. Number of Macro iterations      .... Maxiter - #DIIS iter
   Number of Davidson start vectors     ....     2
   Converg. threshold I  (grad. norm)   ....   1.000e-05
   Converg. threshold II (energy diff.) ....   1.000e-08
   Grad. Scal. Fac. for Micro threshold ....   0.100
   Minimum threshold for Micro iter.    ....   0.010
   NR start threshold (gradient norm)   ....   0.001
   Initial trust radius                 ....   0.400
   Minimum AH scaling param. (alpha)    ....   1.000
   Maximum AH scaling param. (alpha)    .... 1000.000
   Orbital update algorithm             .... Taylor
   White noise on init. David. guess    .... on
   Maximum white noise                  ....   0.010
   Quad. conv. algorithm                .... NR
 SOSCF                  CNVSOSCF        .... on
   Start iteration      SOSCFMaxIt      ....   150
   Startup grad/error   SOSCFStart      ....  0.003300
 Level Shifting         CNVShift        .... on
   Level shift para.    LevelShift      ....    0.2500
   Turn off err/grad.   ShiftErr        ....    0.0010
 Zerner damping         CNVZerner       .... off
 Static damping         CNVDamp         .... on
   Fraction old density DampFac         ....    0.7000
   Max. Damping (<1)    DampMax         ....    0.9800
   Min. Damping (>=0)   DampMin         ....    0.0000
   Turn off err/grad.   DampErr         ....    0.1000
 Fernandez-Rico         CNVRico         .... off

SCF Procedure:
 Maximum # iterations   MaxIter         ....   150
 SCF integral mode      SCFMode         .... Direct
   Integral package                     .... SHARK and LIBINT hybrid scheme
 Reset frequency        DirectResetFreq ....    20
 Integral Threshold     Thresh          ....  2.500e-11 Eh
 Primitive CutOff       TCut            ....  2.500e-12 Eh

Convergence Tolerance:
 Convergence Check Mode ConvCheckMode   .... Total+1el-Energy
 Convergence forced     ConvForced      .... 0
 Energy Change          TolE            ....  1.000e-08 Eh
 1-El. energy change                    ....  1.000e-05 Eh
 Orbital Gradient       TolG            ....  1.000e-05
 Orbital Rotation angle TolX            ....  1.000e-05
 DIIS Error             TolErr          ....  5.000e-07


Diagonalization of the overlap matrix:
Smallest eigenvalue                        ... 3.816e-04
Time for diagonalization                   ...    0.006 sec
Threshold for overlap eigenvalues          ... 1.000e-08
Number of eigenvalues below threshold      ... 0
Time for construction of square roots      ...    0.004 sec
Total time needed                          ...    0.011 sec

Time for model grid setup =    0.061 sec

------------------------------
INITIAL GUESS: MODEL POTENTIAL
------------------------------
Loading Hartree-Fock densities                     ... done
Calculating cut-offs                               ... done
Initializing the effective Hamiltonian             ... done
Setting up the integral package (SHARK)            ... done
Starting the Coulomb interaction                   ... done (   0.0 sec)
Reading the grid                                   ... done
Mapping shells                                     ... done
Starting the XC term evaluation                    ... done (   0.1 sec)
  promolecular density results
     # of electrons  =     49.997480658
     EX              =    -57.637952776
     EC              =     -1.893614866
     EX+EC           =    -59.531567642
Transforming the Hamiltonian                       ... done (   0.0 sec)
Diagonalizing the Hamiltonian                      ... done (   0.0 sec)
Back transforming the eigenvectors                 ... done (   0.0 sec)
Now organizing SCF variables                       ... done
                      ------------------
                      INITIAL GUESS DONE (   0.1 sec)
                      ------------------
-------------------
DFT GRID GENERATION
-------------------

General Integration Accuracy     IntAcc      ... 4.388
Radial Grid Type                 RadialGrid  ... OptM3 with GC (2021)
Angular Grid (max. ang.)         AngularGrid ... 4 (Lebedev-302)
Angular grid pruning method      GridPruning ... 4 (adaptive)
Weight generation scheme         WeightScheme... Becke
Basis function cutoff            BFCut       ... 1.0000e-11
Integration weight cutoff        WCut        ... 1.0000e-14
Angular grids for H and He will be reduced by one unit
Partially contracted basis set               ... off
Rotationally invariant grid construction     ... off

Total number of grid points                  ...    43351
Total number of batches                      ...      683
Average number of points per batch           ...       63
Average number of grid points per atom       ...     5419
Time for grid setup =    0.306 sec

--------------------
COSX GRID GENERATION
--------------------

GRIDX 1
-------
General Integration Accuracy     IntAcc      ... 3.816
Radial Grid Type                 RadialGrid  ... OptM3 with GC (2021)
Angular Grid (max. ang.)         AngularGrid ... 1 (Lebedev-50)
Angular grid pruning method      GridPruning ... 4 (adaptive)
Weight generation scheme         WeightScheme... Becke
Basis function cutoff            BFCut       ... 1.0000e-11
Integration weight cutoff        WCut        ... 1.0000e-14
Angular grids for H and He will be reduced by one unit
Partially contracted basis set               ... on
Rotationally invariant grid construction     ... off

Total number of grid points                  ...     5368
Total number of batches                      ...       88
Average number of points per batch           ...       61
Average number of grid points per atom       ...      671
UseSFitting                                  ... on

GRIDX 2
-------
General Integration Accuracy     IntAcc      ... 4.020
Radial Grid Type                 RadialGrid  ... OptM3 with GC (2021)
Angular Grid (max. ang.)         AngularGrid ... 2 (Lebedev-110)
Angular grid pruning method      GridPruning ... 4 (adaptive)
Weight generation scheme         WeightScheme... Becke
Basis function cutoff            BFCut       ... 1.0000e-11
Integration weight cutoff        WCut        ... 1.0000e-14
Angular grids for H and He will be reduced by one unit
Partially contracted basis set               ... on
Rotationally invariant grid construction     ... off

Total number of grid points                  ...    13359
Total number of batches                      ...      214
Average number of points per batch           ...       62
Average number of grid points per atom       ...     1670
UseSFitting                                  ... on

GRIDX 3
-------
General Integration Accuracy     IntAcc      ... 4.338
Radial Grid Type                 RadialGrid  ... OptM3 with GC (2021)
Angular Grid (max. ang.)         AngularGrid ... 3 (Lebedev-194)
Angular grid pruning method      GridPruning ... 4 (adaptive)
Weight generation scheme         WeightScheme... Becke
Basis function cutoff            BFCut       ... 1.0000e-11
Integration weight cutoff        WCut        ... 1.0000e-14
Angular grids for H and He will be reduced by one unit
Partially contracted basis set               ... on
Rotationally invariant grid construction     ... off

Total number of grid points                  ...    30419
Total number of batches                      ...      480
Average number of points per batch           ...       63
Average number of grid points per atom       ...     3802
UseSFitting                                  ... on

Time for X-Grid setup             =    0.273 sec

--------------
SCF ITERATIONS
--------------
ITER       Energy         Delta-E        Max-DP      RMS-DP      [F,P]     Damp
               ***  Starting incremental Fock matrix formation  ***
  0   -687.4761708959   0.000000000000 0.23850580  0.00448724  0.2988247 0.7000
  1   -687.6468998408  -0.170728944829 0.09866133  0.00228987  0.0990277 0.7000
                               ***Turning on DIIS***
  2   -687.6936736387  -0.046773797963 0.09739429  0.00246166  0.0350194 0.0000
  3   -687.7972697098  -0.103596071113 0.06920401  0.00146193  0.0458207 0.0000
  4   -687.8089454606  -0.011675750764 0.01539531  0.00041698  0.0203686 0.0000
  5   -687.8107066330  -0.001761172437 0.00591735  0.00014356  0.0036791 0.0000
                      *** Initiating the SOSCF procedure ***
                           *** Shutting down DIIS ***
                      *** Re-Reading the Fockian *** 
                      *** Removing any level shift *** 
ITER      Energy       Delta-E        Grad      Rot      Max-DP    RMS-DP
  6   -687.81078097  -0.0000743402  0.000263  0.000263  0.001339  0.000048
               *** Restarting incremental Fock matrix formation ***
  7   -687.81078731  -0.0000063401  0.000167  0.000428  0.000944  0.000042
  8   -687.81078480   0.0000025175  0.000330  0.000252  0.000650  0.000020
  9   -687.81078874  -0.0000039472  0.000032  0.000067  0.000272  0.000008
 10   -687.81078865   0.0000000931  0.000062  0.000041  0.000152  0.000005
 11   -687.81078881  -0.0000001599  0.000007  0.000006  0.000028  0.000001
 12   -687.81078881   0.0000000020  0.000007  0.000003  0.000016  0.000000
                  ***Gradient check signals convergence***
              ***Rediagonalizing the Fockian in SOSCF/NRSCF***

               *****************************************************
               *                     SUCCESS                       *
               *           SCF CONVERGED AFTER  13 CYCLES          *
               *****************************************************

Old exchange energy                            =    -11.559305396 Eh
New exchange energy                            =    -11.559341774 Eh
Exchange energy change after final integration =     -0.000036379 Eh
Total energy after final integration           =   -687.810825189 Eh
Final COS-X integration done in                =     1.087 sec

----------------
TOTAL SCF ENERGY
----------------

Total Energy       :         -687.81082519 Eh          -18716.28407 eV

Components:
Nuclear Repulsion  :          281.84711805 Eh            7669.44999 eV
Electronic Energy  :         -969.65794324 Eh          -26385.73406 eV
One Electron Energy:        -1506.42872703 Eh          -40992.00966 eV
Two Electron Energy:          536.77078379 Eh           14606.27560 eV
Max COSX asymmetry :            0.00000267 Eh               0.00007 eV

Virial components:
Potential Energy   :        -1372.56514053 Eh          -37349.39628 eV
Kinetic Energy     :          684.75431534 Eh           18633.11221 eV
Virial Ratio       :            2.00446366


DFT components:
N(Alpha)           :       25.000104507624 electrons
N(Beta)            :       25.000104507624 electrons
N(Total)           :       50.000209015247 electrons
E(X)               :      -46.000050929001 Eh       
E(C)               :       -2.218061305222 Eh       
E(XC)              :      -48.218112234223 Eh       
DFET-embed. en.    :        0.000000000000 Eh       

---------------
SCF CONVERGENCE
---------------

  Last Energy change         ...   -2.0378e-09  Tolerance :   1.0000e-08
  Last MAX-Density change    ...    3.5527e-15  Tolerance :   1.0000e-07
  Last RMS-Density change    ...    7.0860e-17  Tolerance :   5.0000e-09
  Last Orbital Gradient      ...    8.8950e-07  Tolerance :   1.0000e-05
  Last Orbital Rotation      ...    1.8051e-06  Tolerance :   1.0000e-05

             **** THE GBW FILE WAS UPDATED (18Feb_SVPD_B3LYP_C2_wt_wb97_typm1_neg.gbw) ****
             **** DENSITY 18Feb_SVPD_B3LYP_C2_wt_wb97_typm1_neg.scfp WAS UPDATED ****
             **** ENERGY FILE WAS UPDATED (18Feb_SVPD_B3LYP_C2_wt_wb97_typm1_neg.en.tmp) ****
             **** THE GBW FILE WAS UPDATED (18Feb_SVPD_B3LYP_C2_wt_wb97_typm1_neg.gbw) ****
             **** DENSITY 18Feb_SVPD_B3LYP_C2_wt_wb97_typm1_neg.scfp WAS UPDATED ****
----------------
ORBITAL ENERGIES
----------------

  NO   OCC          E(Eh)            E(eV) 
   0   2.0000     -89.145959     -2425.7849 
   1   2.0000     -24.805023      -674.9790 
   2   2.0000     -19.161505      -521.4111 
   3   2.0000     -19.148541      -521.0583 
   4   2.0000     -10.249580      -278.9053 
   5   2.0000      -8.199991      -223.1331 
   6   2.0000      -6.172847      -167.9717 
   7   2.0000      -6.166667      -167.8035 
   8   2.0000      -6.165651      -167.7759 
   9   2.0000      -1.354940       -36.8698 
  10   2.0000      -1.118333       -30.4314 
  11   2.0000      -1.015086       -27.6219 
  12   2.0000      -0.802114       -21.8266 
  13   2.0000      -0.710997       -19.3472 
  14   2.0000      -0.598568       -16.2879 
  15   2.0000      -0.576102       -15.6765 
  16   2.0000      -0.558344       -15.1933 
  17   2.0000      -0.484476       -13.1833 
  18   2.0000      -0.482668       -13.1341 
  19   2.0000      -0.472016       -12.8442 
  20   2.0000      -0.447375       -12.1737 
  21   2.0000      -0.394956       -10.7473 
  22   2.0000      -0.349807        -9.5187 
  23   2.0000      -0.336095        -9.1456 
  24   2.0000      -0.318722        -8.6729 
  25   0.0000      -0.011619        -0.3162 
  26   0.0000       0.025290         0.6882 
  27   0.0000       0.031191         0.8487 
  28   0.0000       0.045058         1.2261 
  29   0.0000       0.045491         1.2379 
  30   0.0000       0.056434         1.5356 
  31   0.0000       0.068214         1.8562 
  32   0.0000       0.085628         2.3301 
  33   0.0000       0.104551         2.8450 
  34   0.0000       0.106141         2.8882 
  35   0.0000       0.112770         3.0686 
  36   0.0000       0.125962         3.4276 
  37   0.0000       0.129537         3.5249 
  38   0.0000       0.153508         4.1772 
  39   0.0000       0.154968         4.2169 
  40   0.0000       0.172339         4.6896 
  41   0.0000       0.194674         5.2973 
  42   0.0000       0.197476         5.3736 
  43   0.0000       0.214550         5.8382 
  44   0.0000       0.220166         5.9910 
  45   0.0000       0.258042         7.0217 
  46   0.0000       0.261581         7.1180 
  47   0.0000       0.264650         7.2015 
  48   0.0000       0.281155         7.6506 
  49   0.0000       0.283868         7.7244 
  50   0.0000       0.289651         7.8818 
  51   0.0000       0.298248         8.1157 
  52   0.0000       0.326709         8.8902 
  53   0.0000       0.332101         9.0369 
  54   0.0000       0.341824         9.3015 
  55   0.0000       0.342925         9.3315 
  56   0.0000       0.347370         9.4524 
  57   0.0000       0.349830         9.5194 
  58   0.0000       0.403761        10.9869 
  59   0.0000       0.412258        11.2181 
  60   0.0000       0.416295        11.3280 
  61   0.0000       0.430767        11.7218 
  62   0.0000       0.436991        11.8911 
  63   0.0000       0.438763        11.9394 
  64   0.0000       0.456906        12.4331 
  65   0.0000       0.462123        12.5750 
  66   0.0000       0.485652        13.2153 
  67   0.0000       0.497684        13.5427 
  68   0.0000       0.553687        15.0666 
  69   0.0000       0.559018        15.2116 
  70   0.0000       0.577928        15.7262 
  71   0.0000       0.622886        16.9496 
  72   0.0000       0.631809        17.1924 
  73   0.0000       0.643472        17.5098 
  74   0.0000       0.665745        18.1159 
  75   0.0000       0.684443        18.6246 
  76   0.0000       0.693795        18.8791 
  77   0.0000       0.729260        19.8442 
  78   0.0000       0.731181        19.8965 
  79   0.0000       0.750062        20.4102 
  80   0.0000       0.762593        20.7512 
  81   0.0000       0.774965        21.0879 
  82   0.0000       0.794402        21.6168 
  83   0.0000       0.830448        22.5976 
  84   0.0000       0.881751        23.9937 
  85   0.0000       0.891486        24.2586 
  86   0.0000       0.921889        25.0859 
  87   0.0000       0.938068        25.5261 
  88   0.0000       0.955356        25.9966 
  89   0.0000       0.967708        26.3327 
  90   0.0000       0.992565        27.0091 
  91   0.0000       1.031360        28.0647 
  92   0.0000       1.037181        28.2231 
  93   0.0000       1.084545        29.5120 
  94   0.0000       1.116860        30.3913 
  95   0.0000       1.126924        30.6652 
  96   0.0000       1.206448        32.8291 
  97   0.0000       1.226711        33.3805 
  98   0.0000       1.276738        34.7418 
  99   0.0000       1.388865        37.7930 
 100   0.0000       1.479848        40.2687 
 101   0.0000       1.492722        40.6190 
 102   0.0000       1.504787        40.9473 
 103   0.0000       1.564598        42.5749 
 104   0.0000       1.586724        43.1770 
 105   0.0000       1.590880        43.2900 
 106   0.0000       1.621398        44.1205 
 107   0.0000       1.629967        44.3537 
 108   0.0000       1.676593        45.6224 
 109   0.0000       1.703477        46.3540 
 110   0.0000       1.773275        48.2533 
 111   0.0000       1.836480        49.9732 
 112   0.0000       1.845784        50.2263 
 113   0.0000       1.924362        52.3646 
 114   0.0000       1.967579        53.5405 
 115   0.0000       2.033334        55.3298 
 116   0.0000       2.042783        55.5869 
 117   0.0000       2.060325        56.0643 
 118   0.0000       2.241265        60.9879 
 119   0.0000       2.318480        63.0890 
 120   0.0000       2.507489        68.2322 
 121   0.0000       2.509265        68.2806 
 122   0.0000       2.804628        76.3178 
 123   0.0000       2.818622        76.6986 
 124   0.0000       2.828166        76.9583 
 125   0.0000       2.840622        77.2973 
 126   0.0000       2.858412        77.7813 
 127   0.0000       2.876366        78.2699 
 128   0.0000       2.891680        78.6866 
 129   0.0000       2.932240        79.7903 
 130   0.0000       2.998706        81.5989 
 131   0.0000       3.044655        82.8493 
 132   0.0000       3.066941        83.4557 
 133   0.0000       3.258949        88.6805 
 134   0.0000       3.265408        88.8563 
 135   0.0000       3.297607        89.7325 
 136   0.0000       3.314078        90.1807 
 137   0.0000       3.336088        90.7796 
 138   0.0000       3.544455        96.4495 
 139   0.0000       3.704143       100.7949 

                    ********************************
                    * MULLIKEN POPULATION ANALYSIS *
                    ********************************

-----------------------
MULLIKEN ATOMIC CHARGES
-----------------------
   0 C :    0.681504
   1 S :    1.261752
   2 O :   -0.612201
   3 F :   -0.390967
   4 O :   -0.656790
   5 H :   -0.088260
   6 H :   -0.102331
   7 H :   -0.092706
Sum of atomic charges:   -0.0000000

--------------------------------
MULLIKEN REDUCED ORBITAL CHARGES
--------------------------------
  0 C s       :     2.445558  s :     2.445558
      pz      :     0.989539  p :     2.817073
      px      :     0.899908
      py      :     0.927626
      dz2     :     0.010238  d :     0.055865
      dxz     :     0.013441
      dyz     :    -0.000718
      dx2y2   :     0.005264
      dxy     :     0.027641
  1 S s       :     5.099349  s :     5.099349
      pz      :     2.843243  p :     8.755080
      px      :     3.013650
      py      :     2.898187
      dz2     :     0.179672  d :     0.883819
      dxz     :     0.188605
      dyz     :     0.189270
      dx2y2   :     0.157975
      dxy     :     0.168297
  2 O s       :     3.944720  s :     3.944720
      pz      :     1.710150  p :     4.646595
      px      :     1.351367
      py      :     1.585079
      dz2     :    -0.001084  d :     0.020885
      dxz     :     0.008147
      dyz     :     0.002833
      dx2y2   :     0.003631
      dxy     :     0.007358
  3 F s       :     3.981421  s :     3.981421
      pz      :     1.825336  p :     5.392662
      px      :     1.903467
      py      :     1.663859
      dz2     :     0.000108  d :     0.016884
      dxz     :     0.004632
      dyz     :     0.004658
      dx2y2   :     0.004197
      dxy     :     0.003289
  4 O s       :     3.961876  s :     3.961876
      pz      :     1.195554  p :     4.676329
      px      :     1.759195
      py      :     1.721580
      dz2     :     0.005860  d :     0.018585
      dxz     :     0.006273
      dyz     :     0.004909
      dx2y2   :     0.001960
      dxy     :    -0.000419
  5 H s       :     1.017471  s :     1.017471
      pz      :     0.064392  p :     0.070789
      px      :     0.001752
      py      :     0.004646
  6 H s       :     1.018223  s :     1.018223
      pz      :     0.029978  p :     0.084108
      px      :     0.008363
      py      :     0.045767
  7 H s       :     1.016496  s :     1.016496
      pz      :     0.009495  p :     0.076210
      px      :     0.044421
      py      :     0.022293


                     *******************************
                     * LOEWDIN POPULATION ANALYSIS *
                     *******************************

----------------------
LOEWDIN ATOMIC CHARGES
----------------------
   0 C :    0.136947
   1 S :    1.110187
   2 O :   -0.460340
   3 F :   -0.273080
   4 O :   -0.480174
   5 H :   -0.015711
   6 H :   -0.002653
   7 H :   -0.015178

-------------------------------
LOEWDIN REDUCED ORBITAL CHARGES
-------------------------------
  0 C s       :     2.732855  s :     2.732855
      pz      :     0.980642  p :     2.794964
      px      :     0.902034
      py      :     0.912288
      dz2     :     0.073940  d :     0.335234
      dxz     :     0.039953
      dyz     :     0.062180
      dx2y2   :     0.079638
      dxy     :     0.079524
  1 S s       :     4.675679  s :     4.675679
      pz      :     2.792814  p :     8.383274
      px      :     2.834693
      py      :     2.755767
      dz2     :     0.407079  d :     1.830860
      dxz     :     0.345102
      dyz     :     0.379556
      dx2y2   :     0.312112
      dxy     :     0.387010
  2 O s       :     3.566971  s :     3.566971
      pz      :     1.626880  p :     4.651991
      px      :     1.483670
      py      :     1.541440
      dz2     :     0.038533  d :     0.241378
      dxz     :     0.051221
      dyz     :     0.024480
      dx2y2   :     0.064201
      dxy     :     0.062943
  3 F s       :     3.716553  s :     3.716553
      pz      :     1.797095  p :     5.329487
      px      :     1.837197
      py      :     1.695195
      dz2     :     0.052310  d :     0.227039
      dxz     :     0.019724
      dyz     :     0.057739
      dx2y2   :     0.044448
      dxy     :     0.052817
  4 O s       :     3.589460  s :     3.589460
      pz      :     1.373096  p :     4.663990
      px      :     1.659096
      py      :     1.631798
      dz2     :     0.082703  d :     0.226724
      dxz     :     0.058624
      dyz     :     0.065856
      dx2y2   :     0.006679
      dxy     :     0.012862
  5 H s       :     0.735710  s :     0.735710
      pz      :     0.136192  p :     0.280000
      px      :     0.069741
      py      :     0.074067
  6 H s       :     0.725850  s :     0.725850
      pz      :     0.095558  p :     0.276803
      px      :     0.069499
      py      :     0.111746
  7 H s       :     0.735158  s :     0.735158
      pz      :     0.080185  p :     0.280019
      px      :     0.119125
      py      :     0.080709


                      *****************************
                      * MAYER POPULATION ANALYSIS *
                      *****************************

  NA   - Mulliken gross atomic population
  ZA   - Total nuclear charge
  QA   - Mulliken gross atomic charge
  VA   - Mayer's total valence
  BVA  - Mayer's bonded valence
  FA   - Mayer's free valence

  ATOM       NA         ZA         QA         VA         BVA        FA
  0 C      5.3185     6.0000     0.6815     3.7796     3.7796    -0.0000
  1 S     14.7382    16.0000     1.2618     5.0354     5.0354     0.0000
  2 O      8.6122     8.0000    -0.6122     1.7308     1.7308    -0.0000
  3 F      9.3910     9.0000    -0.3910     0.7753     0.7753    -0.0000
  4 O      8.6568     8.0000    -0.6568     1.6671     1.6671     0.0000
  5 H      1.0883     1.0000    -0.0883     1.1441     1.1441    -0.0000
  6 H      1.1023     1.0000    -0.1023     1.1818     1.1818    -0.0000
  7 H      1.0927     1.0000    -0.0927     1.1589     1.1589    -0.0000

  Mayer bond orders larger than 0.100000
B(  0-C ,  1-S ) :   0.9756 B(  0-C ,  5-H ) :   0.8833 B(  0-C ,  6-H ) :   0.8824 
B(  0-C ,  7-H ) :   0.8874 B(  1-S ,  2-O ) :   1.5504 B(  1-S ,  3-F ) :   0.6721 
B(  1-S ,  4-O ) :   1.5060 B(  1-S ,  6-H ) :   0.1258 B(  1-S ,  7-H ) :   0.1062 


-------
TIMINGS
-------

Total SCF time: 0 days 0 hours 0 min 9 sec 

Total time                  ....       9.882 sec
Sum of individual times     ....       9.727 sec  ( 98.4%)

Fock matrix formation       ....       8.910 sec  ( 90.2%)
  Split-RI-J                ....       0.696 sec  (  7.8% of F)
  Chain of spheres X        ....       6.225 sec  ( 69.9% of F)
  XC integration            ....       1.954 sec  ( 21.9% of F)
    Basis function eval.    ....       0.679 sec  ( 34.7% of XC)
    Density eval.           ....       0.432 sec  ( 22.1% of XC)
    XC-Functional eval.     ....       0.158 sec  (  8.1% of XC)
    XC-Potential eval.      ....       0.593 sec  ( 30.4% of XC)
Diagonalization             ....       0.039 sec  (  0.4%)
Density matrix formation    ....       0.003 sec  (  0.0%)
Population analysis         ....       0.005 sec  (  0.1%)
Initial guess               ....       0.076 sec  (  0.8%)
Orbital Transformation      ....       0.000 sec  (  0.0%)
Orbital Orthonormalization  ....       0.000 sec  (  0.0%)
DIIS solution               ....       0.027 sec  (  0.3%)
SOSCF solution              ....       0.026 sec  (  0.3%)
Grid generation             ....       0.640 sec  (  6.5%)

Maximum memory used throughout the entire SCF-calculation: 48.9 MB


-------------------------------------------------------------------------------
                          DFT DISPERSION CORRECTION                            
                                                                               
                              DFTD3 V3.1  Rev 1                                
                          USING Becke-Johnson damping                          
-------------------------------------------------------------------------------
The B3LYP functional is recognized
Active option DFTDOPT                   ...         4   

molecular C6(AA) [au] = 915.084887 


            DFT-D V3
 parameters
 s6 scaling factor         :     1.0000 
 a1 scaling factor         :     0.3981 
 s8 scaling factor         :     1.9889 
 a2 scaling factor         :     4.4211 
 ad hoc parameters k1-k3   :    16.0000     1.3333    -4.0000 

 Edisp/kcal,au: -6.493109959277  -0.010347428262 
 E6   /kcal   :  -2.940252430 
 E8   /kcal   :  -3.552857530 
 % E8         :  54.717347342 

-------------------------   ----------------
Dispersion correction           -0.010347428
-------------------------   ----------------


-------------------------   --------------------
FINAL SINGLE POINT ENERGY      -687.821172616794
-------------------------   --------------------


                            ***************************************
                            *     ORCA property calculations      *
                            ***************************************

                                    ---------------------
                                    Active property flags
                                    ---------------------
   (+) Dipole Moment


------------------------------------------------------------------------------
                       ORCA ELECTRIC PROPERTIES CALCULATION
------------------------------------------------------------------------------

Dipole Moment Calculation                       ... on
Quadrupole Moment Calculation                   ... off
Polarizability Calculation                      ... off
GBWName                                         ... 18Feb_SVPD_B3LYP_C2_wt_wb97_typm1_neg.gbw
Electron density file                           ... 18Feb_SVPD_B3LYP_C2_wt_wb97_typm1_neg.scfp
The origin for moment calculation is the CENTER OF MASS  = (-12.870647, -8.745236 -1.060639)

-------------
DIPOLE MOMENT
-------------
                                X             Y             Z
Electronic contribution:     -2.58242       4.64300      -0.70112
Nuclear contribution   :      3.94974      -5.09866      -0.16489
                        -----------------------------------------
Total Dipole Moment    :      1.36732      -0.45566      -0.86601
                        -----------------------------------------
Magnitude (a.u.)       :      1.68141
Magnitude (Debye)      :      4.27381



--------------------
Rotational spectrum 
--------------------
 
Rotational constants in cm-1:     0.163657     0.151977     0.145976 
Rotational constants in MHz :  4906.325390  4556.144033  4376.262759 

 Dipole components along the rotational axes: 
x,y,z [a.u.] :     1.173827     1.195258    -0.143678 
x,y,z [Debye]:     2.983630     3.038104    -0.365200 

 

Timings for individual modules:

Sum of individual times         ...       10.687 sec (=   0.178 min)
GTO integral calculation        ...        0.479 sec (=   0.008 min)   4.5 %
SCF iterations                  ...       10.209 sec (=   0.170 min)  95.5 %
                             ****ORCA TERMINATED NORMALLY****
TOTAL RUN TIME: 0 days 0 hours 0 minutes 11 seconds 178 msec
