
                                        *****************
                                        * O   R   C   A *
                                        *****************

                                            #,                                       
                                            ###                                      
                                            ####                                     
                                            #####                                    
                                            ######                                   
                                           ########,                                 
                                     ,,################,,,,,                         
                               ,,#################################,,                 
                          ,,##########################################,,             
                       ,#########################################, ''#####,          
                    ,#############################################,,   '####,        
                  ,##################################################,,,,####,       
                ,###########''''           ''''###############################       
              ,#####''   ,,,,##########,,,,          '''####'''          '####       
            ,##' ,,,,###########################,,,                        '##       
           ' ,,###''''                  '''############,,,                           
         ,,##''                                '''############,,,,        ,,,,,,###''
      ,#''                                            '''#######################'''  
     '                                                          ''''####''''         
             ,#######,   #######,   ,#######,      ##                                
            ,#'     '#,  ##    ##  ,#'     '#,    #''#        ######   ,####,        
            ##       ##  ##   ,#'  ##            #'  '#       #        #'  '#        
            ##       ##  #######   ##           ,######,      #####,   #    #        
            '#,     ,#'  ##    ##  '#,     ,#' ,#      #,         ##   #,  ,#        
             '#######'   ##     ##  '#######'  #'      '#     #####' # '####'        



                  #######################################################
                  #                        -***-                        #
                  #          Department of theory and spectroscopy      #
                  #    Directorship and core code : Frank Neese         #
                  #        Max Planck Institute fuer Kohlenforschung    #
                  #                Kaiser Wilhelm Platz 1               #
                  #                 D-45470 Muelheim/Ruhr               #
                  #                      Germany                        #
                  #                                                     #
                  #                  All rights reserved                #
                  #                        -***-                        #
                  #######################################################


                         Program Version 5.0.0 -  RELEASE  -
                                (SVN: $Rev: 19529$)
                ($Date: 2021-06-28 11:36:33 +0200 (Mo, 28 Jun 2021) $)


 With contributions from (in alphabetic order):
   Daniel Aravena         : Magnetic Suceptibility
   Michael Atanasov       : Ab Initio Ligand Field Theory (pilot matlab implementation)
   Alexander A. Auer      : GIAO ZORA, VPT2 properties, NMR spectrum
   Ute Becker             : Parallelization
   Giovanni Bistoni       : ED, misc. LED, open-shell LED, HFLD
   Martin Brehm           : Molecular dynamics
   Dmytro Bykov           : SCF Hessian
   Vijay G. Chilkuri      : MRCI spin determinant printing, contributions to CSF-ICE
   Dipayan Datta          : RHF DLPNO-CCSD density
   Achintya Kumar Dutta   : EOM-CC, STEOM-CC
   Dmitry Ganyushin       : Spin-Orbit,Spin-Spin,Magnetic field MRCI
   Miquel Garcia          : C-PCM Hessian, Gaussian charge scheme
   Yang Guo               : DLPNO-NEVPT2, F12-NEVPT2, CIM, IAO-localization
   Andreas Hansen         : Spin unrestricted coupled pair/coupled cluster methods
   Benjamin Helmich-Paris : MC-RPA, TRAH-SCF, COSX integrals
   Lee Huntington         : MR-EOM, pCC
   Robert Izsak           : Overlap fitted RIJCOSX, COSX-SCS-MP3, EOM
   Marcus Kettner         : VPT2
   Christian Kollmar      : KDIIS, OOCD, Brueckner-CCSD(T), CCSD density, CASPT2, CASPT2-K
   Simone Kossmann        : Meta GGA functionals, TD-DFT gradient, OOMP2, MP2 Hessian
   Martin Krupicka        : Initial AUTO-CI
   Lucas Lang             : DCDCAS
   Marvin Lechner         : AUTO-CI (C++ implementation), FIC-MRCC
   Dagmar Lenk            : GEPOL surface, SMD
   Dimitrios Liakos       : Extrapolation schemes; Compound Job, initial MDCI parallelization
   Dimitrios Manganas     : Further ROCIS development; embedding schemes
   Dimitrios Pantazis     : SARC Basis sets
   Anastasios Papadopoulos: AUTO-CI, single reference methods and gradients
   Taras Petrenko         : DFT Hessian,TD-DFT gradient, ASA, ECA, R-Raman, ABS, FL, XAS/XES, NRVS
   Peter Pinski           : DLPNO-MP2, DLPNO-MP2 Gradient
   Christoph Reimann      : Effective Core Potentials
   Marius Retegan         : Local ZFS, SOC
   Christoph Riplinger    : Optimizer, TS searches, QM/MM, DLPNO-CCSD(T), (RO)-DLPNO pert. Triples
   Tobias Risthaus        : Range-separated hybrids, TD-DFT gradient, RPA, STAB
   Michael Roemelt        : Original ROCIS implementation
   Masaaki Saitow         : Open-shell DLPNO-CCSD energy and density
   Barbara Sandhoefer     : DKH picture change effects
   Avijit Sen             : IP-ROCIS
   Kantharuban Sivalingam : CASSCF convergence, NEVPT2, FIC-MRCI
   Bernardo de Souza      : ESD, SOC TD-DFT
   Georgi Stoychev        : AutoAux, RI-MP2 NMR
   Willem Van den Heuvel  : Paramagnetic NMR
   Boris Wezisla          : Elementary symmetry handling
   Frank Wennmohs         : Technical directorship


 We gratefully acknowledge several colleagues who have allowed us to
 interface, adapt or use parts of their codes:
   Stefan Grimme, W. Hujo, H. Kruse, P. Pracht,  : VdW corrections, initial TS optimization,
                  C. Bannwarth, S. Ehlert          DFT functionals, gCP, sTDA/sTD-DF
   Ed Valeev, F. Pavosevic, A. Kumar             : LibInt (2-el integral package), F12 methods
   Garnet Chan, S. Sharma, J. Yang, R. Olivares  : DMRG
   Ulf Ekstrom                                   : XCFun DFT Library
   Mihaly Kallay                                 : mrcc  (arbitrary order and MRCC methods)
   Jiri Pittner, Ondrej Demel                    : Mk-CCSD
   Frank Weinhold                                : gennbo (NPA and NBO analysis)
   Christopher J. Cramer and Donald G. Truhlar   : smd solvation model
   Lars Goerigk                                  : TD-DFT with DH, B97 family of functionals
   V. Asgeirsson, H. Jonsson                     : NEB implementation
   FAccTs GmbH                                   : IRC, NEB, NEB-TS, DLPNO-Multilevel, CI-OPT
                                                   MM, QMMM, 2- and 3-layer-ONIOM, Crystal-QMMM,
                                                   LR-CPCM, SF, NACMEs, symmetry and pop. for TD-DFT,
                                                   nearIR, NL-DFT gradient (VV10), updates on ESD,
                                                   ML-optimized integration grids
   S Lehtola, MJT Oliveira, MAL Marques          : LibXC Library
   Liviu Ungur et al                             : ANISO software


 Your calculation uses the libint2 library for the computation of 2-el integrals
 For citations please refer to: http://libint.valeyev.net

 Your ORCA version has been built with support for libXC version: 5.1.0
 For citations please refer to: https://tddft.org/programs/libxc/

 This ORCA versions uses:
   CBLAS   interface :  Fast vector & matrix operations
   LAPACKE interface :  Fast linear algebra routines
   SCALAPACK package :  Parallel linear algebra routines
   Shared memory     :  Shared parallel matrices
   BLAS/LAPACK       :  OpenBLAS 0.3.15  USE64BITINT DYNAMIC_ARCH NO_AFFINITY Haswell SINGLE_THREADED
        Core in use  :  Haswell
   Copyright (c) 2011-2014, The OpenBLAS Project


Your calculation utilizes the atom-pairwise dispersion correction
with the Becke-Johnson damping scheme (D3BJ)
Cite in your paper:
S.Grimme, S.Ehrlich, L.Goerigk, J Comput Chem, (2011), 32, 1456–1465 
S.Grimme, J.Antony, S.Ehrlich and H.Krieg, J.Chem.Phys., 132, (2010), 154104 
   

================================================================================

----- Orbital basis set information -----
Your calculation utilizes the basis: def2-SVPD
   F. Weigend and R. Ahlrichs, Phys. Chem. Chem. Phys. 7, 3297 (2005).
   D. Rappoport and F. Furche, J. Chem. Phys. 133 134105 (2010).

----- AuxJ basis set information -----
Your calculation utilizes the auxiliary basis: def2/J
   F. Weigend, Phys. Chem. Chem. Phys. 8, 1057 (2006).

================================================================================
                                        WARNINGS
                       Please study these warnings very carefully!
================================================================================



WARNING: Found flag for RIJCOSX approximation but no HF exchange needed!
  ===> : RIJCOSX  will be disabled and Split-RI-J is turned on

INFO   : the flag for use of the SHARK integral package has been found!

================================================================================
                                       INPUT FILE
================================================================================
NAME = SVPD_BLYP_C3_wt_dlpno_neg.com
|  1> !BLYP D3BJ RIJCOSX def2-SVPD def2/J TightSCF
|  2> *xyz 0 1
|  3> C          0.70466        1.44313       -4.50363
|  4> C          1.72854        1.42432       -5.63944
|  5> H          2.64672        1.95379       -5.38105
|  6> H          1.29992        1.93061       -6.50361
|  7> S          2.25263       -0.18811       -6.27184
|  8> O          3.56261       -0.44446       -5.63155
|  9> O          2.34494       -0.03374       -7.69650
| 10> F          1.26606       -1.15918       -5.80536
| 11> H         -0.17385        0.91270       -4.80656
| 12> H          0.44778        2.45562       -4.27173
| 13> H          1.12367        0.97423       -3.63791
| 14> *
| 15> 
| 16> %MaxCore 64000
| 17> 
| 18> %pal nprocs 4
| 19> end  
| 20> 
| 21> %scf
| 22>   MaxIter 150
| 23> end
| 24> 
| 25> 
| 26>                          ****END OF INPUT****
================================================================================

                       ****************************
                       * Single Point Calculation *
                       ****************************

---------------------------------
CARTESIAN COORDINATES (ANGSTROEM)
---------------------------------
  C      0.704660    1.443130   -4.503630
  C      1.728540    1.424320   -5.639440
  H      2.646720    1.953790   -5.381050
  H      1.299920    1.930610   -6.503610
  S      2.252630   -0.188110   -6.271840
  O      3.562610   -0.444460   -5.631550
  O      2.344940   -0.033740   -7.696500
  F      1.266060   -1.159180   -5.805360
  H     -0.173850    0.912700   -4.806560
  H      0.447780    2.455620   -4.271730
  H      1.123670    0.974230   -3.637910

----------------------------
CARTESIAN COORDINATES (A.U.)
----------------------------
  NO LB      ZA    FRAG     MASS         X           Y           Z
   0 C     6.0000    0    12.011    1.331614    2.727120   -8.510627
   1 C     6.0000    0    12.011    3.266467    2.691575  -10.656997
   2 H     1.0000    0     1.008    5.001576    3.692128  -10.168711
   3 H     1.0000    0     1.008    2.456493    3.648324  -12.290042
   4 S    16.0000    0    32.060    4.256854   -0.355476  -11.852060
   5 O     8.0000    0    15.999    6.732357   -0.839908  -10.642087
   6 O     8.0000    0    15.999    4.431294   -0.063759  -14.544277
   7 F     9.0000    0    18.998    2.392507   -2.190533  -10.970541
   8 H     1.0000    0     1.008   -0.328529    1.724753   -9.083082
   9 H     1.0000    0     1.008    0.846182    4.640449   -8.072400
  10 H     1.0000    0     1.008    2.123429    1.841028   -6.874654

--------------------------------
INTERNAL COORDINATES (ANGSTROEM)
--------------------------------
 C      0   0   0     0.000000000000     0.00000000     0.00000000
 C      1   0   0     1.529296709798     0.00000000     0.00000000
 H      2   1   0     1.090943804877   112.43328207     0.00000000
 H      2   1   3     1.089419321198   108.66363796   241.66929353
 S      2   1   3     1.809566410221   117.67274222   123.23928946
 O      5   2   1     1.480450676990   105.03554050   259.70518295
 O      5   2   1     1.435969132189   105.63754188   140.00773506
 F      5   2   1     1.460787766994   106.56703737    16.57367235
 H      1   2   3     1.070001116775   109.47087815   180.00014641
 H      1   2   3     1.070000441355   109.47137608    60.00032598
 H      1   2   3     1.070003602097   109.47146090   300.00030428

---------------------------
INTERNAL COORDINATES (A.U.)
---------------------------
 C      0   0   0     0.000000000000     0.00000000     0.00000000
 C      1   0   0     2.889951959026     0.00000000     0.00000000
 H      2   1   0     2.061585018716   112.43328207     0.00000000
 H      2   1   3     2.058704162067   108.66363796   241.66929353
 S      2   1   3     3.419584936461   117.67274222   123.23928946
 O      5   2   1     2.797646334289   105.03554050   259.70518295
 O      5   2   1     2.713588396602   105.63754188   140.00773506
 F      5   2   1     2.760488819401   106.56703737    16.57367235
 H      1   2   3     2.022009073695   109.47087815   180.00014641
 H      1   2   3     2.022007797336   109.47137608    60.00032598
 H      1   2   3     2.022013770272   109.47146090   300.00030428

---------------------
BASIS SET INFORMATION
---------------------
There are 5 groups of distinct atoms

 Group   1 Type C   : 8s4p2d contracted to 4s2p2d pattern {5111/31/11}
 Group   2 Type H   : 4s2p contracted to 2s2p pattern {31/11}
 Group   3 Type S   : 11s8p2d contracted to 5s4p2d pattern {53111/5111/11}
 Group   4 Type O   : 8s5p2d contracted to 4s3p2d pattern {5111/311/11}
 Group   5 Type F   : 8s5p2d contracted to 4s3p2d pattern {5111/311/11}

Atom   0C    basis set group =>   1
Atom   1C    basis set group =>   1
Atom   2H    basis set group =>   2
Atom   3H    basis set group =>   2
Atom   4S    basis set group =>   3
Atom   5O    basis set group =>   4
Atom   6O    basis set group =>   4
Atom   7F    basis set group =>   5
Atom   8H    basis set group =>   2
Atom   9H    basis set group =>   2
Atom  10H    basis set group =>   2
---------------------------------
AUXILIARY/J BASIS SET INFORMATION
---------------------------------
There are 5 groups of distinct atoms

 Group   1 Type C   : 12s5p4d2f1g contracted to 6s4p3d1f1g pattern {711111/2111/211/2/1}
 Group   2 Type H   : 5s2p1d contracted to 3s1p1d pattern {311/2/1}
 Group   3 Type S   : 14s5p5d2f1g contracted to 8s4p3d1f1g pattern {71111111/2111/311/2/1}
 Group   4 Type O   : 12s5p4d2f1g contracted to 6s4p3d1f1g pattern {711111/2111/211/2/1}
 Group   5 Type F   : 12s5p4d2f1g contracted to 6s4p3d1f1g pattern {711111/2111/211/2/1}

Atom   0C    basis set group =>   1
Atom   1C    basis set group =>   1
Atom   2H    basis set group =>   2
Atom   3H    basis set group =>   2
Atom   4S    basis set group =>   3
Atom   5O    basis set group =>   4
Atom   6O    basis set group =>   4
Atom   7F    basis set group =>   5
Atom   8H    basis set group =>   2
Atom   9H    basis set group =>   2
Atom  10H    basis set group =>   2


           ************************************************************
           *        Program running with 4 parallel MPI-processes     *
           *              working on a common directory               *
           ************************************************************
------------------------------------------------------------------------------
                           ORCA GTO INTEGRAL CALCULATION
                           -- RI-GTO INTEGRALS CHOSEN --
------------------------------------------------------------------------------
------------------------------------------------------------------------------
                   ___                                                        
                  /   \      - P O W E R E D   B Y -                         
                 /     \                                                     
                 |  |  |   _    _      __       _____    __    __             
                 |  |  |  | |  | |    /  \     |  _  \  |  |  /  |          
                  \  \/   | |  | |   /    \    | | | |  |  | /  /          
                 / \  \   | |__| |  /  /\  \   | |_| |  |  |/  /          
                |  |  |   |  __  | /  /__\  \  |    /   |      \           
                |  |  |   | |  | | |   __   |  |    \   |  |\   \          
                \     /   | |  | | |  |  |  |  | |\  \  |  | \   \       
                 \___/    |_|  |_| |__|  |__|  |_| \__\ |__|  \__/        
                                                                              
                      - O R C A' S   B I G   F R I E N D -                    
                                      &                                       
                       - I N T E G R A L  F E E D E R -                       
                                                                              
 v1 FN, 2020, v2 2021                                                         
------------------------------------------------------------------------------


Reading SHARK input file SVPD_BLYP_C3_wt_dlpno_neg.SHARKINP.tmp ... ok
----------------------
SHARK INTEGRAL PACKAGE
----------------------

Number of atoms                             ...     11
Number of basis functions                   ...    176
Number of shells                            ...     74
Maximum angular momentum                    ...      2
Integral batch strategy                     ... SHARK/LIBINT Hybrid
RI-J (if used) integral strategy            ... SPLIT-RIJ (Revised 2003 algorithm where possible)
Printlevel                                  ...      1
Contraction scheme used                     ... SEGMENTED contraction
Coulomb Range Separation                    ... NOT USED
Exchange Range Separation                   ... NOT USED
Finite Nucleus Model                        ... NOT USED
Auxiliary Coulomb fitting basis             ... AVAILABLE
   # of basis functions in Aux-J            ...    351
   # of shells in Aux-J                     ...    117
   Maximum angular momentum in Aux-J        ...      4
Auxiliary J/K fitting basis                 ... NOT available
Auxiliary Correlation fitting basis         ... NOT available
Auxiliary 'external' fitting basis          ... NOT available
Integral threshold                          ...     2.500000e-11
Primitive cut-off                           ...     2.500000e-12
Primitive pair pre-selection threshold      ...     2.500000e-12

Calculating pre-screening integrals         ... done (  0.0 sec) Dimension = 74
Organizing shell pair data                  ... done (  0.0 sec)
Shell pair information
Total number of shell pairs                 ...      2775
Shell pairs after pre-screening             ...      2726
Total number of primitive shell pairs       ...      7853
Primitive shell pairs kept                  ...      6365
          la=0 lb=0:    610 shell pairs
          la=1 lb=0:    928 shell pairs
          la=1 lb=1:    374 shell pairs
          la=2 lb=0:    415 shell pairs
          la=2 lb=1:    321 shell pairs
          la=2 lb=2:     78 shell pairs

Calculating one electron integrals          ... done (  0.0 sec)
Calculating RI/J V-Matrix + Cholesky decomp.... done (  0.0 sec)
Calculating Nuclear repulsion               ... done (  0.0 sec) ENN=    361.256603737547 Eh

SHARK setup successfully completed in   0.2 seconds

Maximum memory used throughout the entire GTOINT-calculation: 8.9 MB


           ************************************************************
           *        Program running with 4 parallel MPI-processes     *
           *              working on a common directory               *
           ************************************************************
-------------------------------------------------------------------------------
                                 ORCA SCF
-------------------------------------------------------------------------------

------------
SCF SETTINGS
------------
Hamiltonian:
 Density Functional     Method          .... DFT(GTOs)
 Exchange Functional    Exchange        .... B88
   X-Alpha parameter    XAlpha          ....  0.666667
   Becke's b parameter  XBeta           ....  0.004200
 Correlation Functional Correlation     .... LYP
 Gradients option       PostSCFGGA      .... off
   Density functional embedding theory  .... OFF
   NL short-range parameter             ....  4.000000
 RI-approximation to the Coulomb term is turned on
   Number of AuxJ basis functions       .... 351


General Settings:
 Integral files         IntName         .... SVPD_BLYP_C3_wt_dlpno_neg
 Hartree-Fock type      HFTyp           .... RHF
 Total Charge           Charge          ....    0
 Multiplicity           Mult            ....    1
 Number of Electrons    NEL             ....   58
 Basis Dimension        Dim             ....  176
 Nuclear Repulsion      ENuc            ....    361.2566037375 Eh

Convergence Acceleration:
 DIIS                   CNVDIIS         .... on
   Start iteration      DIISMaxIt       ....    12
   Startup error        DIISStart       ....  0.200000
   # of expansion vecs  DIISMaxEq       ....     5
   Bias factor          DIISBfac        ....   1.050
   Max. coefficient     DIISMaxC        ....  10.000
 Trust-Rad. Augm. Hess. CNVTRAH         .... auto
   Auto Start mean grad. ratio tolernc. ....  1.125000
   Auto Start start iteration           ....    20
   Auto Start num. interpolation iter.  ....    10
   Max. Number of Micro iterations      ....    16
   Max. Number of Macro iterations      .... Maxiter - #DIIS iter
   Number of Davidson start vectors     ....     2
   Converg. threshold I  (grad. norm)   ....   1.000e-05
   Converg. threshold II (energy diff.) ....   1.000e-08
   Grad. Scal. Fac. for Micro threshold ....   0.100
   Minimum threshold for Micro iter.    ....   0.010
   NR start threshold (gradient norm)   ....   0.001
   Initial trust radius                 ....   0.400
   Minimum AH scaling param. (alpha)    ....   1.000
   Maximum AH scaling param. (alpha)    .... 1000.000
   Orbital update algorithm             .... Taylor
   White noise on init. David. guess    .... on
   Maximum white noise                  ....   0.010
   Quad. conv. algorithm                .... NR
 SOSCF                  CNVSOSCF        .... on
   Start iteration      SOSCFMaxIt      ....   150
   Startup grad/error   SOSCFStart      ....  0.003300
 Level Shifting         CNVShift        .... on
   Level shift para.    LevelShift      ....    0.2500
   Turn off err/grad.   ShiftErr        ....    0.0010
 Zerner damping         CNVZerner       .... off
 Static damping         CNVDamp         .... on
   Fraction old density DampFac         ....    0.7000
   Max. Damping (<1)    DampMax         ....    0.9800
   Min. Damping (>=0)   DampMin         ....    0.0000
   Turn off err/grad.   DampErr         ....    0.1000
 Fernandez-Rico         CNVRico         .... off

SCF Procedure:
 Maximum # iterations   MaxIter         ....   150
 SCF integral mode      SCFMode         .... Direct
   Integral package                     .... SHARK and LIBINT hybrid scheme
 Reset frequency        DirectResetFreq ....    20
 Integral Threshold     Thresh          ....  2.500e-11 Eh
 Primitive CutOff       TCut            ....  2.500e-12 Eh

Convergence Tolerance:
 Convergence Check Mode ConvCheckMode   .... Total+1el-Energy
 Convergence forced     ConvForced      .... 0
 Energy Change          TolE            ....  1.000e-08 Eh
 1-El. energy change                    ....  1.000e-05 Eh
 Orbital Gradient       TolG            ....  1.000e-05
 Orbital Rotation angle TolX            ....  1.000e-05
 DIIS Error             TolErr          ....  5.000e-07


Diagonalization of the overlap matrix:
Smallest eigenvalue                        ... 2.476e-04
Time for diagonalization                   ...    0.010 sec
Threshold for overlap eigenvalues          ... 1.000e-08
Number of eigenvalues below threshold      ... 0
Time for construction of square roots      ...    0.006 sec
Total time needed                          ...    0.017 sec

Time for model grid setup =    0.084 sec

------------------------------
INITIAL GUESS: MODEL POTENTIAL
------------------------------
Loading Hartree-Fock densities                     ... done
Calculating cut-offs                               ... done
Initializing the effective Hamiltonian             ... done
Setting up the integral package (SHARK)            ... done
Starting the Coulomb interaction                   ... done (   0.0 sec)
Reading the grid                                   ... done
Mapping shells                                     ... done
Starting the XC term evaluation                    ... done (   0.1 sec)
  promolecular density results
     # of electrons  =     57.998277573
     EX              =    -63.384956363
     EC              =     -2.151749229
     EX+EC           =    -65.536705592
Transforming the Hamiltonian                       ... done (   0.0 sec)
Diagonalizing the Hamiltonian                      ... done (   0.0 sec)
Back transforming the eigenvectors                 ... done (   0.0 sec)
Now organizing SCF variables                       ... done
                      ------------------
                      INITIAL GUESS DONE (   0.2 sec)
                      ------------------
-------------------
DFT GRID GENERATION
-------------------

General Integration Accuracy     IntAcc      ... 4.388
Radial Grid Type                 RadialGrid  ... OptM3 with GC (2021)
Angular Grid (max. ang.)         AngularGrid ... 4 (Lebedev-302)
Angular grid pruning method      GridPruning ... 4 (adaptive)
Weight generation scheme         WeightScheme... Becke
Basis function cutoff            BFCut       ... 1.0000e-11
Integration weight cutoff        WCut        ... 1.0000e-14
Angular grids for H and He will be reduced by one unit
Partially contracted basis set               ... off
Rotationally invariant grid construction     ... off

Total number of grid points                  ...    56048
Total number of batches                      ...      883
Average number of points per batch           ...       63
Average number of grid points per atom       ...     5095
Time for grid setup =    0.392 sec

--------------
SCF ITERATIONS
--------------
ITER       Energy         Delta-E        Max-DP      RMS-DP      [F,P]     Damp
               ***  Starting incremental Fock matrix formation  ***
  0   -726.8089428813   0.000000000000 0.28570981  0.00444091  0.3029935 0.7000
  1   -727.0094546726  -0.200511791228 0.09773995  0.00205755  0.0826359 0.7000
                               ***Turning on DIIS***
  2   -727.0532171353  -0.043762462780 0.08014131  0.00214758  0.0284512 0.0000
  3   -727.1761603692  -0.122943233840 0.05760666  0.00134908  0.0535590 0.0000
  4   -727.1834336035  -0.007273234331 0.03143836  0.00054861  0.0406115 0.0000
  5   -727.1884216801  -0.004988076553 0.00973040  0.00020554  0.0090357 0.0000
  6   -727.1888020933  -0.000380413263 0.00206070  0.00007468  0.0041083 0.0000
                      *** Initiating the SOSCF procedure ***
                           *** Shutting down DIIS ***
                      *** Re-Reading the Fockian *** 
                      *** Removing any level shift *** 
ITER      Energy       Delta-E        Grad      Rot      Max-DP    RMS-DP
  7   -727.18885173  -0.0000496386  0.000183  0.000183  0.001005  0.000027
               *** Restarting incremental Fock matrix formation ***
  8   -727.18885566  -0.0000039285  0.000163  0.000241  0.000987  0.000021
  9   -727.18885411   0.0000015515  0.000295  0.000138  0.000646  0.000012
 10   -727.18885631  -0.0000022043  0.000016  0.000050  0.000147  0.000003
 11   -727.18885628   0.0000000291  0.000034  0.000034  0.000112  0.000002
 12   -727.18885632  -0.0000000399  0.000004  0.000009  0.000038  0.000001
 13   -727.18885632   0.0000000025  0.000007  0.000005  0.000026  0.000001
                  ***Gradient check signals convergence***
              ***Rediagonalizing the Fockian in SOSCF/NRSCF***

               *****************************************************
               *                     SUCCESS                       *
               *           SCF CONVERGED AFTER  14 CYCLES          *
               *****************************************************


----------------
TOTAL SCF ENERGY
----------------

Total Energy       :         -727.18885633 Eh          -19787.81477 eV

Components:
Nuclear Repulsion  :          361.25660374 Eh            9830.29195 eV
Electronic Energy  :        -1088.44546006 Eh          -29618.10672 eV
One Electron Energy:        -1716.91517354 Eh          -46719.63705 eV
Two Electron Energy:          628.46971348 Eh           17101.53033 eV

Virial components:
Potential Energy   :        -1450.86817599 Eh          -39480.13020 eV
Kinetic Energy     :          723.67931967 Eh           19692.31543 eV
Virial Ratio       :            2.00484957


DFT components:
N(Alpha)           :       29.000094465372 electrons
N(Beta)            :       29.000094465372 electrons
N(Total)           :       58.000188930744 electrons
E(X)               :      -63.900818622793 Eh       
E(C)               :       -2.156059731473 Eh       
E(XC)              :      -66.056878354266 Eh       
DFET-embed. en.    :        0.000000000000 Eh       

---------------
SCF CONVERGENCE
---------------

  Last Energy change         ...   -4.7647e-09  Tolerance :   1.0000e-08
  Last MAX-Density change    ...    6.0055e-06  Tolerance :   1.0000e-07
  Last RMS-Density change    ...    2.6976e-07  Tolerance :   5.0000e-09
  Last Orbital Gradient      ...    9.5280e-07  Tolerance :   1.0000e-05
  Last Orbital Rotation      ...    2.5819e-06  Tolerance :   1.0000e-05

             **** THE GBW FILE WAS UPDATED (SVPD_BLYP_C3_wt_dlpno_neg.gbw) ****
             **** DENSITY SVPD_BLYP_C3_wt_dlpno_neg.scfp WAS UPDATED ****
             **** ENERGY FILE WAS UPDATED (SVPD_BLYP_C3_wt_dlpno_neg.en.tmp) ****
             **** THE GBW FILE WAS UPDATED (SVPD_BLYP_C3_wt_dlpno_neg.gbw) ****
             **** DENSITY SVPD_BLYP_C3_wt_dlpno_neg.scfp WAS UPDATED ****
----------------
ORBITAL ENERGIES
----------------

  NO   OCC          E(Eh)            E(eV) 
   0   2.0000     -88.381688     -2404.9880 
   1   2.0000     -24.409627      -664.2197 
   2   2.0000     -18.805037      -511.7111 
   3   2.0000     -18.789746      -511.2950 
   4   2.0000      -9.983473      -271.6641 
   5   2.0000      -9.951749      -270.8009 
   6   2.0000      -7.919443      -215.4990 
   7   2.0000      -5.958816      -162.1476 
   8   2.0000      -5.952347      -161.9716 
   9   2.0000      -5.950696      -161.9267 
  10   2.0000      -1.249775       -34.0081 
  11   2.0000      -1.015212       -27.6253 
  12   2.0000      -0.914453       -24.8835 
  13   2.0000      -0.743196       -20.2234 
  14   2.0000      -0.656034       -17.8516 
  15   2.0000      -0.610728       -16.6188 
  16   2.0000      -0.527748       -14.3608 
  17   2.0000      -0.508489       -13.8367 
  18   2.0000      -0.483100       -13.1458 
  19   2.0000      -0.444694       -12.1007 
  20   2.0000      -0.421347       -11.4654 
  21   2.0000      -0.401232       -10.9181 
  22   2.0000      -0.392175       -10.6716 
  23   2.0000      -0.367586       -10.0025 
  24   2.0000      -0.351963        -9.5774 
  25   2.0000      -0.336042        -9.1442 
  26   2.0000      -0.289774        -7.8851 
  27   2.0000      -0.274451        -7.4682 
  28   2.0000      -0.259979        -7.0744 
  29   0.0000      -0.035491        -0.9658 
  30   0.0000       0.004358         0.1186 
  31   0.0000       0.016875         0.4592 
  32   0.0000       0.020211         0.5500 
  33   0.0000       0.026000         0.7075 
  34   0.0000       0.030457         0.8288 
  35   0.0000       0.042994         1.1699 
  36   0.0000       0.058187         1.5834 
  37   0.0000       0.065009         1.7690 
  38   0.0000       0.077242         2.1019 
  39   0.0000       0.087090         2.3698 
  40   0.0000       0.089097         2.4245 
  41   0.0000       0.099368         2.7039 
  42   0.0000       0.117888         3.2079 
  43   0.0000       0.121222         3.2986 
  44   0.0000       0.123599         3.3633 
  45   0.0000       0.142428         3.8757 
  46   0.0000       0.150060         4.0833 
  47   0.0000       0.160964         4.3801 
  48   0.0000       0.169768         4.6196 
  49   0.0000       0.174915         4.7597 
  50   0.0000       0.199767         5.4359 
  51   0.0000       0.208582         5.6758 
  52   0.0000       0.219668         5.9775 
  53   0.0000       0.222147         6.0449 
  54   0.0000       0.239428         6.5152 
  55   0.0000       0.246315         6.7026 
  56   0.0000       0.258132         7.0241 
  57   0.0000       0.263912         7.1814 
  58   0.0000       0.272062         7.4032 
  59   0.0000       0.277926         7.5627 
  60   0.0000       0.290256         7.8983 
  61   0.0000       0.295885         8.0514 
  62   0.0000       0.303790         8.2665 
  63   0.0000       0.312040         8.4910 
  64   0.0000       0.325079         8.8458 
  65   0.0000       0.327748         8.9185 
  66   0.0000       0.339611         9.2413 
  67   0.0000       0.343876         9.3573 
  68   0.0000       0.347361         9.4522 
  69   0.0000       0.356032         9.6881 
  70   0.0000       0.375905        10.2289 
  71   0.0000       0.379597        10.3294 
  72   0.0000       0.386418        10.5150 
  73   0.0000       0.407114        11.0781 
  74   0.0000       0.416758        11.3406 
  75   0.0000       0.430731        11.7208 
  76   0.0000       0.434642        11.8272 
  77   0.0000       0.448290        12.1986 
  78   0.0000       0.450733        12.2651 
  79   0.0000       0.462969        12.5980 
  80   0.0000       0.469859        12.7855 
  81   0.0000       0.474826        12.9207 
  82   0.0000       0.479522        13.0485 
  83   0.0000       0.492557        13.4032 
  84   0.0000       0.514731        14.0065 
  85   0.0000       0.525812        14.3081 
  86   0.0000       0.547944        14.9103 
  87   0.0000       0.555615        15.1191 
  88   0.0000       0.567943        15.4545 
  89   0.0000       0.583612        15.8809 
  90   0.0000       0.624456        16.9923 
  91   0.0000       0.635887        17.3034 
  92   0.0000       0.656751        17.8711 
  93   0.0000       0.667948        18.1758 
  94   0.0000       0.672260        18.2931 
  95   0.0000       0.685682        18.6583 
  96   0.0000       0.692961        18.8564 
  97   0.0000       0.714709        19.4482 
  98   0.0000       0.733869        19.9696 
  99   0.0000       0.745343        20.2818 
 100   0.0000       0.764320        20.7982 
 101   0.0000       0.775622        21.1058 
 102   0.0000       0.819539        22.3008 
 103   0.0000       0.863473        23.4963 
 104   0.0000       0.871546        23.7160 
 105   0.0000       0.886761        24.1300 
 106   0.0000       0.916185        24.9307 
 107   0.0000       0.921684        25.0803 
 108   0.0000       0.946398        25.7528 
 109   0.0000       0.950132        25.8544 
 110   0.0000       0.962406        26.1884 
 111   0.0000       0.965311        26.2674 
 112   0.0000       0.978169        26.6173 
 113   0.0000       0.998709        27.1763 
 114   0.0000       1.033690        28.1281 
 115   0.0000       1.072499        29.1842 
 116   0.0000       1.082727        29.4625 
 117   0.0000       1.108194        30.1555 
 118   0.0000       1.176057        32.0021 
 119   0.0000       1.193462        32.4758 
 120   0.0000       1.202341        32.7174 
 121   0.0000       1.227067        33.3902 
 122   0.0000       1.285709        34.9859 
 123   0.0000       1.300400        35.3857 
 124   0.0000       1.350993        36.7624 
 125   0.0000       1.407479        38.2994 
 126   0.0000       1.437926        39.1280 
 127   0.0000       1.461765        39.7766 
 128   0.0000       1.515491        41.2386 
 129   0.0000       1.524422        41.4816 
 130   0.0000       1.536543        41.8115 
 131   0.0000       1.591050        43.2947 
 132   0.0000       1.603939        43.6454 
 133   0.0000       1.623539        44.1787 
 134   0.0000       1.629456        44.3398 
 135   0.0000       1.659085        45.1460 
 136   0.0000       1.687492        45.9190 
 137   0.0000       1.728509        47.0351 
 138   0.0000       1.746455        47.5235 
 139   0.0000       1.826020        49.6885 
 140   0.0000       1.836364        49.9700 
 141   0.0000       1.874936        51.0196 
 142   0.0000       1.928850        52.4867 
 143   0.0000       1.954685        53.1897 
 144   0.0000       1.973561        53.7033 
 145   0.0000       1.978425        53.8357 
 146   0.0000       2.027991        55.1844 
 147   0.0000       2.129780        57.9543 
 148   0.0000       2.137565        58.1661 
 149   0.0000       2.187806        59.5332 
 150   0.0000       2.261691        61.5437 
 151   0.0000       2.353724        64.0481 
 152   0.0000       2.397207        65.2313 
 153   0.0000       2.459050        66.9142 
 154   0.0000       2.555773        69.5461 
 155   0.0000       2.566744        69.8446 
 156   0.0000       2.740143        74.5631 
 157   0.0000       2.756490        75.0079 
 158   0.0000       2.765480        75.2525 
 159   0.0000       2.774468        75.4971 
 160   0.0000       2.794100        76.0313 
 161   0.0000       2.812357        76.5281 
 162   0.0000       2.820760        76.7568 
 163   0.0000       2.857191        77.7481 
 164   0.0000       2.914362        79.3038 
 165   0.0000       2.956881        80.4608 
 166   0.0000       2.972128        80.8757 
 167   0.0000       3.020727        82.1982 
 168   0.0000       3.072667        83.6115 
 169   0.0000       3.194975        86.9397 
 170   0.0000       3.204399        87.1961 
 171   0.0000       3.220299        87.6288 
 172   0.0000       3.233448        87.9866 
 173   0.0000       3.276030        89.1453 
 174   0.0000       3.455674        94.0337 
 175   0.0000       3.636737        98.9606 

                    ********************************
                    * MULLIKEN POPULATION ANALYSIS *
                    ********************************

-----------------------
MULLIKEN ATOMIC CHARGES
-----------------------
   0 C :    1.185877
   1 C :   -0.078144
   2 H :   -0.151959
   3 H :   -0.090817
   4 S :    1.288762
   5 O :   -0.628353
   6 O :   -0.571637
   7 F :   -0.384267
   8 H :   -0.164470
   9 H :   -0.229879
  10 H :   -0.175114
Sum of atomic charges:   -0.0000000

--------------------------------
MULLIKEN REDUCED ORBITAL CHARGES
--------------------------------
  0 C s       :     2.201106  s :     2.201106
      pz      :     0.899320  p :     2.511846
      px      :     0.870405
      py      :     0.742121
      dz2     :     0.071978  d :     0.101171
      dxz     :     0.004119
      dyz     :     0.007637
      dx2y2   :     0.014318
      dxy     :     0.003120
  1 C s       :     2.755433  s :     2.755433
      pz      :     1.018015  p :     2.868464
      px      :     0.982620
      py      :     0.867829
      dz2     :     0.136879  d :     0.454247
      dxz     :     0.063617
      dyz     :     0.097687
      dx2y2   :     0.078029
      dxy     :     0.078034
  2 H s       :     1.127945  s :     1.127945
      pz      :    -0.016830  p :     0.024014
      px      :     0.027508
      py      :     0.013336
  3 H s       :     1.077035  s :     1.077035
      pz      :     0.026262  p :     0.013782
      px      :    -0.020235
      py      :     0.007755
  4 S s       :     5.056783  s :     5.056783
      pz      :     2.910786  p :     8.786400
      px      :     2.846502
      py      :     3.029113
      dz2     :     0.180246  d :     0.868054
      dxz     :     0.215729
      dyz     :     0.201703
      dx2y2   :     0.113534
      dxy     :     0.156842
  5 O s       :     3.961928  s :     3.961928
      pz      :     1.667371  p :     4.645090
      px      :     1.263598
      py      :     1.714121
      dz2     :    -0.000113  d :     0.021335
      dxz     :     0.006830
      dyz     :     0.004274
      dx2y2   :     0.006561
      dxy     :     0.003783
  6 O s       :     3.940257  s :     3.940257
      pz      :     1.203213  p :     4.605254
      px      :     1.713195
      py      :     1.688846
      dz2     :    -0.000354  d :     0.026126
      dxz     :     0.008833
      dyz     :     0.011703
      dx2y2   :     0.003100
      dxy     :     0.002845
  7 F s       :     3.979723  s :     3.979723
      pz      :     1.884437  p :     5.382976
      px      :     1.752134
      py      :     1.746405
      dz2     :     0.000688  d :     0.021568
      dxz     :     0.004560
      dyz     :     0.004962
      dx2y2   :     0.006873
      dxy     :     0.004484
  8 H s       :     1.125830  s :     1.125830
      pz      :     0.023898  p :     0.038639
      px      :     0.035885
      py      :    -0.021143
  9 H s       :     1.228132  s :     1.228132
      pz      :    -0.024954  p :     0.001748
      px      :    -0.030779
      py      :     0.057481
 10 H s       :     1.149851  s :     1.149851
      pz      :     0.038104  p :     0.025263
      px      :     0.023697
      py      :    -0.036538


                     *******************************
                     * LOEWDIN POPULATION ANALYSIS *
                     *******************************

----------------------
LOEWDIN ATOMIC CHARGES
----------------------
   0 C :    0.143497
   1 C :   -0.071780
   2 H :    0.024819
   3 H :    0.011291
   4 S :    1.085942
   5 O :   -0.464971
   6 O :   -0.440699
   7 F :   -0.253220
   8 H :   -0.016033
   9 H :   -0.010032
  10 H :   -0.008814

-------------------------------
LOEWDIN REDUCED ORBITAL CHARGES
-------------------------------
  0 C s       :     2.696140  s :     2.696140
      pz      :     0.912909  p :     2.762755
      px      :     0.914230
      py      :     0.935617
      dz2     :     0.110295  d :     0.397607
      dxz     :     0.084768
      dyz     :     0.069026
      dx2y2   :     0.069446
      dxy     :     0.064072
  1 C s       :     2.725653  s :     2.725653
      pz      :     0.942233  p :     2.724657
      px      :     0.950145
      py      :     0.832278
      dz2     :     0.144819  d :     0.621471
      dxz     :     0.108885
      dyz     :     0.132469
      dx2y2   :     0.105699
      dxy     :     0.129598
  2 H s       :     0.716654  s :     0.716654
      pz      :     0.067397  p :     0.258527
      px      :     0.110029
      py      :     0.081101
  3 H s       :     0.719718  s :     0.719718
      pz      :     0.108571  p :     0.268991
      px      :     0.079779
      py      :     0.080641
  4 S s       :     4.680492  s :     4.680492
      pz      :     2.828909  p :     8.406916
      px      :     2.784586
      py      :     2.793420
      dz2     :     0.425025  d :     1.826649
      dxz     :     0.397385
      dyz     :     0.346654
      dx2y2   :     0.295645
      dxy     :     0.361940
  5 O s       :     3.589251  s :     3.589251
      pz      :     1.610429  p :     4.641714
      px      :     1.406831
      py      :     1.624455
      dz2     :     0.045776  d :     0.234006
      dxz     :     0.059417
      dyz     :     0.015478
      dx2y2   :     0.054157
      dxy     :     0.059177
  6 O s       :     3.568081  s :     3.568081
      pz      :     1.423873  p :     4.625376
      px      :     1.611192
      py      :     1.590311
      dz2     :     0.091961  d :     0.247242
      dxz     :     0.069266
      dyz     :     0.068181
      dx2y2   :     0.007675
      dxy     :     0.010159
  7 F s       :     3.709585  s :     3.709585
      pz      :     1.820090  p :     5.306372
      px      :     1.746055
      py      :     1.740228
      dz2     :     0.037786  d :     0.237263
      dxz     :     0.036589
      dyz     :     0.035837
      dx2y2   :     0.065935
      dxy     :     0.061116
  8 H s       :     0.735446  s :     0.735446
      pz      :     0.076480  p :     0.280587
      px      :     0.110080
      py      :     0.094028
  9 H s       :     0.737142  s :     0.737142
      pz      :     0.072054  p :     0.272890
      px      :     0.073247
      py      :     0.127589
 10 H s       :     0.735616  s :     0.735616
      pz      :     0.106684  p :     0.273199
      px      :     0.080790
      py      :     0.085725


                      *****************************
                      * MAYER POPULATION ANALYSIS *
                      *****************************

  NA   - Mulliken gross atomic population
  ZA   - Total nuclear charge
  QA   - Mulliken gross atomic charge
  VA   - Mayer's total valence
  BVA  - Mayer's bonded valence
  FA   - Mayer's free valence

  ATOM       NA         ZA         QA         VA         BVA        FA
  0 C      4.8141     6.0000     1.1859     3.5728     3.5728     0.0000
  1 C      6.0781     6.0000    -0.0781     5.0314     5.0314    -0.0000
  2 H      1.1520     1.0000    -0.1520     1.0629     1.0629    -0.0000
  3 H      1.0908     1.0000    -0.0908     1.0603     1.0603     0.0000
  4 S     14.7112    16.0000     1.2888     4.8679     4.8679    -0.0000
  5 O      8.6284     8.0000    -0.6284     1.7533     1.7533     0.0000
  6 O      8.5716     8.0000    -0.5716     1.8360     1.8360     0.0000
  7 F      9.3843     9.0000    -0.3843     0.9039     0.9039     0.0000
  8 H      1.1645     1.0000    -0.1645     1.0478     1.0478    -0.0000
  9 H      1.2299     1.0000    -0.2299     0.9161     0.9161    -0.0000
 10 H      1.1751     1.0000    -0.1751     1.0043     1.0043    -0.0000

  Mayer bond orders larger than 0.100000
B(  0-C ,  1-C ) :   1.3137 B(  0-C ,  3-H ) :   0.1112 B(  0-C ,  8-H ) :   0.7078 
B(  0-C ,  9-H ) :   0.6300 B(  0-C , 10-H ) :   0.7223 B(  1-C ,  2-H ) :   0.9107 
B(  1-C ,  3-H ) :   0.9100 B(  1-C ,  4-S ) :   0.9233 B(  1-C ,  8-H ) :   0.2519 
B(  1-C ,  9-H ) :   0.2878 B(  1-C , 10-H ) :   0.2273 B(  4-S ,  5-O ) :   1.5215 
B(  4-S ,  6-O ) :   1.5874 B(  4-S ,  7-F ) :   0.7153 B(  5-O ,  6-O ) :   0.1075 


-------
TIMINGS
-------

Total SCF time: 0 days 0 hours 0 min 5 sec 

Total time                  ....       5.273 sec
Sum of individual times     ....       5.066 sec  ( 96.1%)

Fock matrix formation       ....       4.314 sec  ( 81.8%)
  Split-RI-J                ....       1.009 sec  ( 23.4% of F)
  XC integration            ....       3.269 sec  ( 75.8% of F)
    Basis function eval.    ....       1.115 sec  ( 34.1% of XC)
    Density eval.           ....       0.788 sec  ( 24.1% of XC)
    XC-Functional eval.     ....       0.154 sec  (  4.7% of XC)
    XC-Potential eval.      ....       1.045 sec  ( 32.0% of XC)
Diagonalization             ....       0.061 sec  (  1.2%)
Density matrix formation    ....       0.005 sec  (  0.1%)
Population analysis         ....       0.007 sec  (  0.1%)
Initial guess               ....       0.125 sec  (  2.4%)
Orbital Transformation      ....       0.000 sec  (  0.0%)
Orbital Orthonormalization  ....       0.000 sec  (  0.0%)
DIIS solution               ....       0.040 sec  (  0.8%)
SOSCF solution              ....       0.038 sec  (  0.7%)
Grid generation             ....       0.475 sec  (  9.0%)

Maximum memory used throughout the entire SCF-calculation: 18.9 MB


-------------------------------------------------------------------------------
                          DFT DISPERSION CORRECTION                            
                                                                               
                              DFTD3 V3.1  Rev 1                                
                          USING Becke-Johnson damping                          
-------------------------------------------------------------------------------
The BLYP functional is recognized
Active option DFTDOPT                   ...         4   

molecular C6(AA) [au] = 1445.731823 


            DFT-D V3
 parameters
 s6 scaling factor         :     1.0000 
 a1 scaling factor         :     0.4298 
 s8 scaling factor         :     2.6996 
 a2 scaling factor         :     4.2359 
 ad hoc parameters k1-k3   :    16.0000     1.3333    -4.0000 

 Edisp/kcal,au: -12.074116203774  -0.019241326888 
 E6   /kcal   :  -4.649961509 
 E8   /kcal   :  -7.424154694 
 % E8         :  61.488183227 

-------------------------   ----------------
Dispersion correction           -0.019241327
-------------------------   ----------------


-------------------------   --------------------
FINAL SINGLE POINT ENERGY      -727.208097653090
-------------------------   --------------------


                            ***************************************
                            *     ORCA property calculations      *
                            ***************************************

                                    ---------------------
                                    Active property flags
                                    ---------------------
   (+) Dipole Moment


------------------------------------------------------------------------------
                       ORCA ELECTRIC PROPERTIES CALCULATION
------------------------------------------------------------------------------

Dipole Moment Calculation                       ... on
Quadrupole Moment Calculation                   ... off
Polarizability Calculation                      ... off
GBWName                                         ... SVPD_BLYP_C3_wt_dlpno_neg.gbw
Electron density file                           ... SVPD_BLYP_C3_wt_dlpno_neg.scfp
The origin for moment calculation is the CENTER OF MASS  = ( 3.799054,  0.118491 -11.313394)

-------------
DIPOLE MOMENT
-------------
                                X             Y             Z
Electronic contribution:      2.40967      -7.64860      -4.01127
Nuclear contribution   :     -3.70606       8.55465       4.82350
                        -----------------------------------------
Total Dipole Moment    :     -1.29639       0.90605       0.81223
                        -----------------------------------------
Magnitude (a.u.)       :      1.77800
Magnitude (Debye)      :      4.51931



--------------------
Rotational spectrum 
--------------------
 
Rotational constants in cm-1:     0.153201     0.080978     0.077494 
Rotational constants in MHz :  4592.852844  2427.650814  2323.207507 

 Dipole components along the rotational axes: 
x,y,z [a.u.] :     1.719596     0.187748    -0.411107 
x,y,z [Debye]:     4.370866     0.477218    -1.044952 

 

Timings for individual modules:

Sum of individual times         ...        9.605 sec (=   0.160 min)
GTO integral calculation        ...        2.323 sec (=   0.039 min)  24.2 %
SCF iterations                  ...        7.281 sec (=   0.121 min)  75.8 %
                             ****ORCA TERMINATED NORMALLY****
TOTAL RUN TIME: 0 days 0 hours 0 minutes 10 seconds 172 msec
