
                                        *****************
                                        * O   R   C   A *
                                        *****************

                                            #,                                       
                                            ###                                      
                                            ####                                     
                                            #####                                    
                                            ######                                   
                                           ########,                                 
                                     ,,################,,,,,                         
                               ,,#################################,,                 
                          ,,##########################################,,             
                       ,#########################################, ''#####,          
                    ,#############################################,,   '####,        
                  ,##################################################,,,,####,       
                ,###########''''           ''''###############################       
              ,#####''   ,,,,##########,,,,          '''####'''          '####       
            ,##' ,,,,###########################,,,                        '##       
           ' ,,###''''                  '''############,,,                           
         ,,##''                                '''############,,,,        ,,,,,,###''
      ,#''                                            '''#######################'''  
     '                                                          ''''####''''         
             ,#######,   #######,   ,#######,      ##                                
            ,#'     '#,  ##    ##  ,#'     '#,    #''#        ######   ,####,        
            ##       ##  ##   ,#'  ##            #'  '#       #        #'  '#        
            ##       ##  #######   ##           ,######,      #####,   #    #        
            '#,     ,#'  ##    ##  '#,     ,#' ,#      #,         ##   #,  ,#        
             '#######'   ##     ##  '#######'  #'      '#     #####' # '####'        



                  #######################################################
                  #                        -***-                        #
                  #          Department of theory and spectroscopy      #
                  #    Directorship and core code : Frank Neese         #
                  #        Max Planck Institute fuer Kohlenforschung    #
                  #                Kaiser Wilhelm Platz 1               #
                  #                 D-45470 Muelheim/Ruhr               #
                  #                      Germany                        #
                  #                                                     #
                  #                  All rights reserved                #
                  #                        -***-                        #
                  #######################################################


                         Program Version 5.0.0 -  RELEASE  -
                                (SVN: $Rev: 19529$)
                ($Date: 2021-06-28 11:36:33 +0200 (Mo, 28 Jun 2021) $)


 With contributions from (in alphabetic order):
   Daniel Aravena         : Magnetic Suceptibility
   Michael Atanasov       : Ab Initio Ligand Field Theory (pilot matlab implementation)
   Alexander A. Auer      : GIAO ZORA, VPT2 properties, NMR spectrum
   Ute Becker             : Parallelization
   Giovanni Bistoni       : ED, misc. LED, open-shell LED, HFLD
   Martin Brehm           : Molecular dynamics
   Dmytro Bykov           : SCF Hessian
   Vijay G. Chilkuri      : MRCI spin determinant printing, contributions to CSF-ICE
   Dipayan Datta          : RHF DLPNO-CCSD density
   Achintya Kumar Dutta   : EOM-CC, STEOM-CC
   Dmitry Ganyushin       : Spin-Orbit,Spin-Spin,Magnetic field MRCI
   Miquel Garcia          : C-PCM Hessian, Gaussian charge scheme
   Yang Guo               : DLPNO-NEVPT2, F12-NEVPT2, CIM, IAO-localization
   Andreas Hansen         : Spin unrestricted coupled pair/coupled cluster methods
   Benjamin Helmich-Paris : MC-RPA, TRAH-SCF, COSX integrals
   Lee Huntington         : MR-EOM, pCC
   Robert Izsak           : Overlap fitted RIJCOSX, COSX-SCS-MP3, EOM
   Marcus Kettner         : VPT2
   Christian Kollmar      : KDIIS, OOCD, Brueckner-CCSD(T), CCSD density, CASPT2, CASPT2-K
   Simone Kossmann        : Meta GGA functionals, TD-DFT gradient, OOMP2, MP2 Hessian
   Martin Krupicka        : Initial AUTO-CI
   Lucas Lang             : DCDCAS
   Marvin Lechner         : AUTO-CI (C++ implementation), FIC-MRCC
   Dagmar Lenk            : GEPOL surface, SMD
   Dimitrios Liakos       : Extrapolation schemes; Compound Job, initial MDCI parallelization
   Dimitrios Manganas     : Further ROCIS development; embedding schemes
   Dimitrios Pantazis     : SARC Basis sets
   Anastasios Papadopoulos: AUTO-CI, single reference methods and gradients
   Taras Petrenko         : DFT Hessian,TD-DFT gradient, ASA, ECA, R-Raman, ABS, FL, XAS/XES, NRVS
   Peter Pinski           : DLPNO-MP2, DLPNO-MP2 Gradient
   Christoph Reimann      : Effective Core Potentials
   Marius Retegan         : Local ZFS, SOC
   Christoph Riplinger    : Optimizer, TS searches, QM/MM, DLPNO-CCSD(T), (RO)-DLPNO pert. Triples
   Tobias Risthaus        : Range-separated hybrids, TD-DFT gradient, RPA, STAB
   Michael Roemelt        : Original ROCIS implementation
   Masaaki Saitow         : Open-shell DLPNO-CCSD energy and density
   Barbara Sandhoefer     : DKH picture change effects
   Avijit Sen             : IP-ROCIS
   Kantharuban Sivalingam : CASSCF convergence, NEVPT2, FIC-MRCI
   Bernardo de Souza      : ESD, SOC TD-DFT
   Georgi Stoychev        : AutoAux, RI-MP2 NMR
   Willem Van den Heuvel  : Paramagnetic NMR
   Boris Wezisla          : Elementary symmetry handling
   Frank Wennmohs         : Technical directorship


 We gratefully acknowledge several colleagues who have allowed us to
 interface, adapt or use parts of their codes:
   Stefan Grimme, W. Hujo, H. Kruse, P. Pracht,  : VdW corrections, initial TS optimization,
                  C. Bannwarth, S. Ehlert          DFT functionals, gCP, sTDA/sTD-DF
   Ed Valeev, F. Pavosevic, A. Kumar             : LibInt (2-el integral package), F12 methods
   Garnet Chan, S. Sharma, J. Yang, R. Olivares  : DMRG
   Ulf Ekstrom                                   : XCFun DFT Library
   Mihaly Kallay                                 : mrcc  (arbitrary order and MRCC methods)
   Jiri Pittner, Ondrej Demel                    : Mk-CCSD
   Frank Weinhold                                : gennbo (NPA and NBO analysis)
   Christopher J. Cramer and Donald G. Truhlar   : smd solvation model
   Lars Goerigk                                  : TD-DFT with DH, B97 family of functionals
   V. Asgeirsson, H. Jonsson                     : NEB implementation
   FAccTs GmbH                                   : IRC, NEB, NEB-TS, DLPNO-Multilevel, CI-OPT
                                                   MM, QMMM, 2- and 3-layer-ONIOM, Crystal-QMMM,
                                                   LR-CPCM, SF, NACMEs, symmetry and pop. for TD-DFT,
                                                   nearIR, NL-DFT gradient (VV10), updates on ESD,
                                                   ML-optimized integration grids
   S Lehtola, MJT Oliveira, MAL Marques          : LibXC Library
   Liviu Ungur et al                             : ANISO software


 Your calculation uses the libint2 library for the computation of 2-el integrals
 For citations please refer to: http://libint.valeyev.net

 Your ORCA version has been built with support for libXC version: 5.1.0
 For citations please refer to: https://tddft.org/programs/libxc/

 This ORCA versions uses:
   CBLAS   interface :  Fast vector & matrix operations
   LAPACKE interface :  Fast linear algebra routines
   SCALAPACK package :  Parallel linear algebra routines
   Shared memory     :  Shared parallel matrices
   BLAS/LAPACK       :  OpenBLAS 0.3.15  USE64BITINT DYNAMIC_ARCH NO_AFFINITY Haswell SINGLE_THREADED
        Core in use  :  Haswell
   Copyright (c) 2011-2014, The OpenBLAS Project




***************************************
The coordinates will be read from file: D1.xyz
***************************************


Your calculation utilizes the atom-pairwise dispersion correction
with the Becke-Johnson damping scheme (D3BJ)
Cite in your paper:
S.Grimme, S.Ehrlich, L.Goerigk, J Comput Chem, (2011), 32, 1456–1465 
S.Grimme, J.Antony, S.Ehrlich and H.Krieg, J.Chem.Phys., 132, (2010), 154104 
   

================================================================================

----- Orbital basis set information -----
Your calculation utilizes the basis: def2-SVPD
   F. Weigend and R. Ahlrichs, Phys. Chem. Chem. Phys. 7, 3297 (2005).
   D. Rappoport and F. Furche, J. Chem. Phys. 133 134105 (2010).

----- AuxJ basis set information -----
Your calculation utilizes the auxiliary basis: def2/J
   F. Weigend, Phys. Chem. Chem. Phys. 8, 1057 (2006).

================================================================================
                                        WARNINGS
                       Please study these warnings very carefully!
================================================================================



WARNING: Found flag for RIJCOSX approximation but no HF exchange needed!
  ===> : RIJCOSX  will be disabled and Split-RI-J is turned on

INFO   : the flag for use of the SHARK integral package has been found!

================================================================================
                                       INPUT FILE
================================================================================
NAME = 28Oct_SVPD_BLYP_D1_wb97.com
|  1> !BLYP D3BJ RIJCOSX def2-SVPD def2/J TightSCF xyzfile                                                                                         
|  2> 
|  3> *xyzfile 0 1 D1.xyz
|  4> 
|  5> %MaxCore 64000
|  6> 
|  7> %pal nprocs 4                                                                                                                                                  
|  8> end  
|  9> 
| 10> %scf
| 11>   MaxIter 150
| 12> end
| 13> 
| 14> 
| 15>                          ****END OF INPUT****
================================================================================

                       ****************************
                       * Single Point Calculation *
                       ****************************

---------------------------------
CARTESIAN COORDINATES (ANGSTROEM)
---------------------------------
  C      2.916324   -1.242589   -1.543125
  C      0.704661    1.443129   -4.503630
  C      1.728539    1.424320   -5.639443
  H      2.646718    1.953794   -5.381054
  H      1.299916    1.930613   -6.503614
  S      2.252625   -0.188115   -6.271840
  C      3.466585   -1.590971   -2.889082
  C      4.652275   -1.143164   -3.259692
  N      2.752264   -2.292043   -3.728029
  H      1.778364   -2.489604   -3.512738
  H      2.948612   -2.208544   -4.716813
  H      5.146723   -0.512508   -2.633852
  H      4.783030   -1.007203   -4.253498
  F      3.562607   -0.444464   -5.631552
  O      2.344944   -0.033742   -7.696501
  C      2.804084    0.290698   -1.359243
  C      1.052550    0.695659   -3.214915
  H     -0.232483    1.032925   -4.884449
  H      0.511700    2.495794   -4.267966
  C      2.388380    1.093669   -2.597108
  H      3.763425    0.674718   -0.999889
  H      2.094788    0.461222   -0.545756
  O      1.266058   -1.159177   -5.805365
  H      3.167316    1.013242   -3.359430
  H      2.357690    2.149375   -2.310997
  H      1.039284   -0.368429   -3.449329
  H      0.250787    0.865605   -2.488283
  H      1.940472   -1.716529   -1.441161
  H      3.558569   -1.663433   -0.766371

----------------------------
CARTESIAN COORDINATES (A.U.)
----------------------------
  NO LB      ZA    FRAG     MASS         X           Y           Z
   0 C     6.0000    0    12.011    5.511054   -2.348154   -2.916084
   1 C     6.0000    0    12.011    1.331617    2.727119   -8.510627
   2 C     6.0000    0    12.011    3.266466    2.691575  -10.657002
   3 H     1.0000    0     1.008    5.001573    3.692135  -10.168719
   4 H     1.0000    0     1.008    2.456486    3.648330  -12.290050
   5 S    16.0000    0    32.060    4.256845   -0.355485  -11.852059
   6 C     6.0000    0    12.011    6.550897   -3.006500   -5.459573
   7 C     6.0000    0    12.011    8.791525   -2.160266   -6.159925
   8 N     7.0000    0    14.007    5.201026   -4.331334   -7.044953
   9 H     1.0000    0     1.008    3.360621   -4.704669   -6.638113
  10 H     1.0000    0     1.008    5.572070   -4.173543   -8.913484
  11 H     1.0000    0     1.008    9.725897   -0.968501   -4.977259
  12 H     1.0000    0     1.008    9.038617   -1.903337   -8.037945
  13 F     9.0000    0    18.998    6.732352   -0.839915  -10.642091
  14 O     8.0000    0    15.999    4.431301   -0.063764  -14.544279
  15 C     6.0000    0    12.011    5.298951    0.549339   -2.568597
  16 C     6.0000    0    12.011    1.989032    1.314604   -6.075308
  17 H     1.0000    0     1.008   -0.439329    1.951946   -9.230272
  18 H     1.0000    0     1.008    0.966972    4.716368   -8.065286
  19 C     6.0000    0    12.011    4.513384    2.066735   -4.907822
  20 H     1.0000    0     1.008    7.111842    1.275032   -1.889516
  21 H     1.0000    0     1.008    3.958575    0.871583   -1.031329
  22 O     8.0000    0    15.999    2.392504   -2.190526  -10.970549
  23 H     1.0000    0     1.008    5.985361    1.914750   -6.348402
  24 H     1.0000    0     1.008    4.455389    4.061730   -4.367151
  25 H     1.0000    0     1.008    1.963961   -0.696229   -6.518287
  26 H     1.0000    0     1.008    0.473919    1.635756   -4.702174
  27 H     1.0000    0     1.008    3.666960   -3.243770   -2.723400
  28 H     1.0000    0     1.008    6.724720   -3.143433   -1.448231

--------------------------------
INTERNAL COORDINATES (ANGSTROEM)
--------------------------------
 C      0   0   0     0.000000000000     0.00000000     0.00000000
 C      1   0   0     4.568273793968     0.00000000     0.00000000
 C      2   1   0     1.529297825534    98.62404527     0.00000000
 H      3   2   1     1.090944370706   112.43319093   291.35935600
 H      3   2   1     1.089423309889   108.66365748   173.02891256
 S      3   2   1     1.809568454434   117.67249747    54.59879179
 C      1   2   3     1.495244269354    74.44217903   337.12806402
 C      7   1   2     1.320508752421   120.26891390   103.10495601
 N      7   1   2     1.305981940434   120.13503729   286.08645689
 H      9   7   1     1.016790325068   119.48364563     8.33019225
 H      9   7   1     1.011542432359   118.51921329   155.66854205
 H      8   7   1     1.016799188787   118.30856157   356.12171918
 H      8   7   1     1.011549184661   115.93680355   208.86906715
 F      6   3   2     1.480451351977   105.03550261   259.70514125
 O      6   3   2     1.435971529587   105.63739582   140.00826415
 C      1   2   3     1.548347683709    57.29458071   106.04454887
 C      2   1   3     1.529877614442    19.39834396   186.99389249
 H      2   1   3     1.091572130247   114.88526166   114.65620169
 H      2   1   3     1.095844940799   120.70540048   244.49829987
 C     17   2   1     1.524643581099   114.39523607    61.63043835
 H     16   1   2     1.094048234703   108.84673673   220.49718341
 H     16   1   2     1.092676175276   106.85886165   106.82959772
 O      6   3   2     1.460778685441   106.56716191    16.57397008
 H     20  17   2     1.092861154855   108.82111327   307.33588892
 H     20  17   2     1.094219453583   109.46571263    62.60087563
 H     17   2   1     1.089682404302   107.04520605   298.66165453
 H     17   2   1     1.095307766624   108.45540496   184.02122912
 H      1   2   3     1.089634927768    83.26793994   226.06030881
 H      1   2   3     1.092215339711   166.43145148    86.04509137

---------------------------
INTERNAL COORDINATES (A.U.)
---------------------------
 C      0   0   0     0.000000000000     0.00000000     0.00000000
 C      1   0   0     8.632786375368     0.00000000     0.00000000
 C      2   1   0     2.889954067461    98.62404527     0.00000000
 H      3   2   1     2.061586087978   112.43319093   291.35935600
 H      3   2   1     2.058711699600   108.66365748   173.02891256
 S      3   2   1     3.419588799463   117.67249747    54.59879179
 C      1   2   3     2.825602172394    74.44217903   337.12806402
 C      7   1   2     2.495399899522   120.26891390   103.10495601
 N      7   1   2     2.467948203268   120.13503729   286.08645689
 H      9   7   1     1.921455250000   119.48364563     8.33019225
 H      9   7   1     1.911538170000   118.51921329   155.66854205
 H      8   7   1     1.921472000000   118.30856157   356.12171918
 H      8   7   1     1.911550930000   115.93680355   208.86906715
 F      6   3   2     2.797647609830   105.03550261   259.70514125
 O      6   3   2     2.713592927028   105.63739582   140.00826415
 C      1   2   3     2.925953082301    57.29458071   106.04454887
 C      2   1   3     2.891049709713    19.39834396   186.99389249
 H      2   1   3     2.062772381588   114.88526166   114.65620169
 H      2   1   3     2.070846823354   120.70540048   244.49829987
 C     17   2   1     2.881158820119   114.39523607    61.63043835
 H     16   1   2     2.067451540889   108.84673673   220.49718341
 H     16   1   2     2.064858724332   106.85886165   106.82959772
 O      6   3   2     2.760471657752   106.56716191    16.57397008
 H     20  17   2     2.065208285076   108.82111327   307.33588892
 H     20  17   2     2.067775097680   109.46571263    62.60087563
 H     17   2   1     2.059201317083   107.04520605   298.66165453
 H     17   2   1     2.069831711276   108.45540496   184.02122912
 H      1   2   3     2.059111599436    83.26793994   226.06030881
 H      1   2   3     2.063987871322   166.43145148    86.04509137

---------------------
BASIS SET INFORMATION
---------------------
There are 6 groups of distinct atoms

 Group   1 Type C   : 8s4p2d contracted to 4s2p2d pattern {5111/31/11}
 Group   2 Type H   : 4s2p contracted to 2s2p pattern {31/11}
 Group   3 Type S   : 11s8p2d contracted to 5s4p2d pattern {53111/5111/11}
 Group   4 Type N   : 8s4p2d contracted to 4s2p2d pattern {5111/31/11}
 Group   5 Type F   : 8s5p2d contracted to 4s3p2d pattern {5111/311/11}
 Group   6 Type O   : 8s5p2d contracted to 4s3p2d pattern {5111/311/11}

Atom   0C    basis set group =>   1
Atom   1C    basis set group =>   1
Atom   2C    basis set group =>   1
Atom   3H    basis set group =>   2
Atom   4H    basis set group =>   2
Atom   5S    basis set group =>   3
Atom   6C    basis set group =>   1
Atom   7C    basis set group =>   1
Atom   8N    basis set group =>   4
Atom   9H    basis set group =>   2
Atom  10H    basis set group =>   2
Atom  11H    basis set group =>   2
Atom  12H    basis set group =>   2
Atom  13F    basis set group =>   5
Atom  14O    basis set group =>   6
Atom  15C    basis set group =>   1
Atom  16C    basis set group =>   1
Atom  17H    basis set group =>   2
Atom  18H    basis set group =>   2
Atom  19C    basis set group =>   1
Atom  20H    basis set group =>   2
Atom  21H    basis set group =>   2
Atom  22O    basis set group =>   6
Atom  23H    basis set group =>   2
Atom  24H    basis set group =>   2
Atom  25H    basis set group =>   2
Atom  26H    basis set group =>   2
Atom  27H    basis set group =>   2
Atom  28H    basis set group =>   2
---------------------------------
AUXILIARY/J BASIS SET INFORMATION
---------------------------------
There are 6 groups of distinct atoms

 Group   1 Type C   : 12s5p4d2f1g contracted to 6s4p3d1f1g pattern {711111/2111/211/2/1}
 Group   2 Type H   : 5s2p1d contracted to 3s1p1d pattern {311/2/1}
 Group   3 Type S   : 14s5p5d2f1g contracted to 8s4p3d1f1g pattern {71111111/2111/311/2/1}
 Group   4 Type N   : 12s5p4d2f1g contracted to 6s4p3d1f1g pattern {711111/2111/211/2/1}
 Group   5 Type F   : 12s5p4d2f1g contracted to 6s4p3d1f1g pattern {711111/2111/211/2/1}
 Group   6 Type O   : 12s5p4d2f1g contracted to 6s4p3d1f1g pattern {711111/2111/211/2/1}

Atom   0C    basis set group =>   1
Atom   1C    basis set group =>   1
Atom   2C    basis set group =>   1
Atom   3H    basis set group =>   2
Atom   4H    basis set group =>   2
Atom   5S    basis set group =>   3
Atom   6C    basis set group =>   1
Atom   7C    basis set group =>   1
Atom   8N    basis set group =>   4
Atom   9H    basis set group =>   2
Atom  10H    basis set group =>   2
Atom  11H    basis set group =>   2
Atom  12H    basis set group =>   2
Atom  13F    basis set group =>   5
Atom  14O    basis set group =>   6
Atom  15C    basis set group =>   1
Atom  16C    basis set group =>   1
Atom  17H    basis set group =>   2
Atom  18H    basis set group =>   2
Atom  19C    basis set group =>   1
Atom  20H    basis set group =>   2
Atom  21H    basis set group =>   2
Atom  22O    basis set group =>   6
Atom  23H    basis set group =>   2
Atom  24H    basis set group =>   2
Atom  25H    basis set group =>   2
Atom  26H    basis set group =>   2
Atom  27H    basis set group =>   2
Atom  28H    basis set group =>   2


           ************************************************************
           *        Program running with 4 parallel MPI-processes     *
           *              working on a common directory               *
           ************************************************************
------------------------------------------------------------------------------
                           ORCA GTO INTEGRAL CALCULATION
                           -- RI-GTO INTEGRALS CHOSEN --
------------------------------------------------------------------------------
------------------------------------------------------------------------------
                   ___                                                        
                  /   \      - P O W E R E D   B Y -                         
                 /     \                                                     
                 |  |  |   _    _      __       _____    __    __             
                 |  |  |  | |  | |    /  \     |  _  \  |  |  /  |          
                  \  \/   | |  | |   /    \    | | | |  |  | /  /          
                 / \  \   | |__| |  /  /\  \   | |_| |  |  |/  /          
                |  |  |   |  __  | /  /__\  \  |    /   |      \           
                |  |  |   | |  | | |   __   |  |    \   |  |\   \          
                \     /   | |  | | |  |  |  |  | |\  \  |  | \   \       
                 \___/    |_|  |_| |__|  |__|  |_| \__\ |__|  \__/        
                                                                              
                      - O R C A' S   B I G   F R I E N D -                    
                                      &                                       
                       - I N T E G R A L  F E E D E R -                       
                                                                              
 v1 FN, 2020, v2 2021                                                         
------------------------------------------------------------------------------


Reading SHARK input file 28Oct_SVPD_BLYP_D1_wb97.SHARKINP.tmp ... ok
----------------------
SHARK INTEGRAL PACKAGE
----------------------

Number of atoms                             ...     29
Number of basis functions                   ...    404
Number of shells                            ...    174
Maximum angular momentum                    ...      2
Integral batch strategy                     ... SHARK/LIBINT Hybrid
RI-J (if used) integral strategy            ... SPLIT-RIJ (Revised 2003 algorithm where possible)
Printlevel                                  ...      1
Contraction scheme used                     ... SEGMENTED contraction
Coulomb Range Separation                    ... NOT USED
Exchange Range Separation                   ... NOT USED
Finite Nucleus Model                        ... NOT USED
Auxiliary Coulomb fitting basis             ... AVAILABLE
   # of basis functions in Aux-J            ...    815
   # of shells in Aux-J                     ...    277
   Maximum angular momentum in Aux-J        ...      4
Auxiliary J/K fitting basis                 ... NOT available
Auxiliary Correlation fitting basis         ... NOT available
Auxiliary 'external' fitting basis          ... NOT available
Integral threshold                          ...     2.500000e-11
Primitive cut-off                           ...     2.500000e-12
Primitive pair pre-selection threshold      ...     2.500000e-12

Calculating pre-screening integrals         ... done (  0.1 sec) Dimension = 174
Organizing shell pair data                  ... done (  0.1 sec)
Shell pair information
Total number of shell pairs                 ...     15225
Shell pairs after pre-screening             ...     14368
Total number of primitive shell pairs       ...     41843
Primitive shell pairs kept                  ...     30382
          la=0 lb=0:   3422 shell pairs
          la=1 lb=0:   5040 shell pairs
          la=1 lb=1:   1912 shell pairs
          la=2 lb=0:   2092 shell pairs
          la=2 lb=1:   1563 shell pairs
          la=2 lb=2:    339 shell pairs

Calculating one electron integrals          ... done (  0.0 sec)
Calculating RI/J V-Matrix + Cholesky decomp.... done (  0.1 sec)
Calculating Nuclear repulsion               ... done (  0.0 sec) ENN=   1088.370982158220 Eh

SHARK setup successfully completed in   0.4 seconds

Maximum memory used throughout the entire GTOINT-calculation: 22.7 MB


           ************************************************************
           *        Program running with 4 parallel MPI-processes     *
           *              working on a common directory               *
           ************************************************************
-------------------------------------------------------------------------------
                                 ORCA SCF
-------------------------------------------------------------------------------

------------
SCF SETTINGS
------------
Hamiltonian:
 Density Functional     Method          .... DFT(GTOs)
 Exchange Functional    Exchange        .... B88
   X-Alpha parameter    XAlpha          ....  0.666667
   Becke's b parameter  XBeta           ....  0.004200
 Correlation Functional Correlation     .... LYP
 Gradients option       PostSCFGGA      .... off
   Density functional embedding theory  .... OFF
   NL short-range parameter             ....  4.000000
 RI-approximation to the Coulomb term is turned on
   Number of AuxJ basis functions       .... 815


General Settings:
 Integral files         IntName         .... 28Oct_SVPD_BLYP_D1_wb97
 Hartree-Fock type      HFTyp           .... RHF
 Total Charge           Charge          ....    0
 Multiplicity           Mult            ....    1
 Number of Electrons    NEL             ....  112
 Basis Dimension        Dim             ....  404
 Nuclear Repulsion      ENuc            ....   1088.3709821582 Eh

Convergence Acceleration:
 DIIS                   CNVDIIS         .... on
   Start iteration      DIISMaxIt       ....    12
   Startup error        DIISStart       ....  0.200000
   # of expansion vecs  DIISMaxEq       ....     5
   Bias factor          DIISBfac        ....   1.050
   Max. coefficient     DIISMaxC        ....  10.000
 Trust-Rad. Augm. Hess. CNVTRAH         .... auto
   Auto Start mean grad. ratio tolernc. ....  1.125000
   Auto Start start iteration           ....    20
   Auto Start num. interpolation iter.  ....    10
   Max. Number of Micro iterations      ....    16
   Max. Number of Macro iterations      .... Maxiter - #DIIS iter
   Number of Davidson start vectors     ....     2
   Converg. threshold I  (grad. norm)   ....   1.000e-05
   Converg. threshold II (energy diff.) ....   1.000e-08
   Grad. Scal. Fac. for Micro threshold ....   0.100
   Minimum threshold for Micro iter.    ....   0.010
   NR start threshold (gradient norm)   ....   0.001
   Initial trust radius                 ....   0.400
   Minimum AH scaling param. (alpha)    ....   1.000
   Maximum AH scaling param. (alpha)    .... 1000.000
   Orbital update algorithm             .... Taylor
   White noise on init. David. guess    .... on
   Maximum white noise                  ....   0.010
   Quad. conv. algorithm                .... NR
 SOSCF                  CNVSOSCF        .... on
   Start iteration      SOSCFMaxIt      ....   150
   Startup grad/error   SOSCFStart      ....  0.003300
 Level Shifting         CNVShift        .... on
   Level shift para.    LevelShift      ....    0.2500
   Turn off err/grad.   ShiftErr        ....    0.0010
 Zerner damping         CNVZerner       .... off
 Static damping         CNVDamp         .... on
   Fraction old density DampFac         ....    0.7000
   Max. Damping (<1)    DampMax         ....    0.9800
   Min. Damping (>=0)   DampMin         ....    0.0000
   Turn off err/grad.   DampErr         ....    0.1000
 Fernandez-Rico         CNVRico         .... off

SCF Procedure:
 Maximum # iterations   MaxIter         ....   150
 SCF integral mode      SCFMode         .... Direct
   Integral package                     .... SHARK and LIBINT hybrid scheme
 Reset frequency        DirectResetFreq ....    20
 Integral Threshold     Thresh          ....  2.500e-11 Eh
 Primitive CutOff       TCut            ....  2.500e-12 Eh

Convergence Tolerance:
 Convergence Check Mode ConvCheckMode   .... Total+1el-Energy
 Convergence forced     ConvForced      .... 0
 Energy Change          TolE            ....  1.000e-08 Eh
 1-El. energy change                    ....  1.000e-05 Eh
 Orbital Gradient       TolG            ....  1.000e-05
 Orbital Rotation angle TolX            ....  1.000e-05
 DIIS Error             TolErr          ....  5.000e-07


Diagonalization of the overlap matrix:
Smallest eigenvalue                        ... 2.939e-05
Time for diagonalization                   ...    0.034 sec
Threshold for overlap eigenvalues          ... 1.000e-08
Number of eigenvalues below threshold      ... 0
Time for construction of square roots      ...    0.030 sec
Total time needed                          ...    0.066 sec

Time for model grid setup =    0.336 sec

------------------------------
INITIAL GUESS: MODEL POTENTIAL
------------------------------
Loading Hartree-Fock densities                     ... done
Calculating cut-offs                               ... done
Initializing the effective Hamiltonian             ... done
Setting up the integral package (SHARK)            ... done
Starting the Coulomb interaction                   ... done (   0.3 sec)
Reading the grid                                   ... done
Mapping shells                                     ... done
Starting the XC term evaluation                    ... done (   0.4 sec)
  promolecular density results
     # of electrons  =    111.992975409
     EX              =   -104.186619893
     EC              =     -3.949975615
     EX+EC           =   -108.136595507
Transforming the Hamiltonian                       ... done (   0.0 sec)
Diagonalizing the Hamiltonian                      ... done (   0.0 sec)
Back transforming the eigenvectors                 ... done (   0.0 sec)
Now organizing SCF variables                       ... done
                      ------------------
                      INITIAL GUESS DONE (   1.1 sec)
                      ------------------
-------------------
DFT GRID GENERATION
-------------------

General Integration Accuracy     IntAcc      ... 4.388
Radial Grid Type                 RadialGrid  ... OptM3 with GC (2021)
Angular Grid (max. ang.)         AngularGrid ... 4 (Lebedev-302)
Angular grid pruning method      GridPruning ... 4 (adaptive)
Weight generation scheme         WeightScheme... Becke
Basis function cutoff            BFCut       ... 1.0000e-11
Integration weight cutoff        WCut        ... 1.0000e-14
Angular grids for H and He will be reduced by one unit
Partially contracted basis set               ... off
Rotationally invariant grid construction     ... off

Total number of grid points                  ...   133181
Total number of batches                      ...     2096
Average number of points per batch           ...       63
Average number of grid points per atom       ...     4592
Time for grid setup =    1.217 sec

--------------
SCF ITERATIONS
--------------
ITER       Energy         Delta-E        Max-DP      RMS-DP      [F,P]     Damp
               ***  Starting incremental Fock matrix formation  ***
  0  -1016.1581227644   0.000000000000 0.66005907  0.00430137  0.2946168 0.7000
  1  -1016.4876299979  -0.329507233447 0.65607340  0.00326673  0.1019791 0.7000
                               ***Turning on DIIS***
  2  -1016.5779076540  -0.090277656146 1.00713393  0.00538446  0.0290327 0.0000
  3  -1016.7586837232  -0.180776069186 0.55202770  0.00247941  0.0722391 0.0000
  4  -1016.7912883795  -0.032604656229 0.24315611  0.00113491  0.0346769 0.0000
                      *** Initiating the SOSCF procedure ***
                           *** Shutting down DIIS ***
                      *** Re-Reading the Fockian *** 
                      *** Removing any level shift *** 
ITER      Energy       Delta-E        Grad      Rot      Max-DP    RMS-DP
  5  -1016.79766457  -0.0063761892  0.000832  0.000832  0.121410  0.000568
               *** Restarting incremental Fock matrix formation ***
  6  -1016.79787059  -0.0002060225  0.000851  0.003245  0.093043  0.000480
  7  -1016.79769981   0.0001707823  0.002449  0.002083  0.004243  0.000076
  8  -1016.79791904  -0.0002192283  0.000088  0.000451  0.013238  0.000069
  9  -1016.79791747   0.0000015657  0.000162  0.000354  0.003193  0.000023
 10  -1016.79792040  -0.0000029259  0.000076  0.000411  0.004364  0.000023
 11  -1016.79791979   0.0000006049  0.000128  0.000240  0.002315  0.000012
 12  -1016.79792060  -0.0000008104  0.000012  0.000052  0.001120  0.000007
 13  -1016.79792058   0.0000000194  0.000022  0.000052  0.000511  0.000003
 14  -1016.79792062  -0.0000000393  0.000007  0.000027  0.000423  0.000003
 15  -1016.79792061   0.0000000145  0.000008  0.000015  0.000349  0.000003
                  ***Gradient check signals convergence***
              ***Rediagonalizing the Fockian in SOSCF/NRSCF***

               *****************************************************
               *                     SUCCESS                       *
               *           SCF CONVERGED AFTER  16 CYCLES          *
               *****************************************************


----------------
TOTAL SCF ENERGY
----------------

Total Energy       :        -1016.79792063 Eh          -27668.47806 eV

Components:
Nuclear Repulsion  :         1088.37098216 Eh           29616.08008 eV
Electronic Energy  :        -2105.16890279 Eh          -57284.55814 eV
One Electron Energy:        -3554.07839905 Eh          -96711.38995 eV
Two Electron Energy:         1448.90949626 Eh           39426.83181 eV

Virial components:
Potential Energy   :        -2027.47161686 Eh          -55170.30750 eV
Kinetic Energy     :         1010.67369623 Eh           27501.82944 eV
Virial Ratio       :            2.00605955


DFT components:
N(Alpha)           :       56.000145643038 electrons
N(Beta)            :       56.000145643038 electrons
N(Total)           :      112.000291286077 electrons
E(X)               :     -105.670925135523 Eh       
E(C)               :       -3.960247322401 Eh       
E(XC)              :     -109.631172457924 Eh       
DFET-embed. en.    :        0.000000000000 Eh       

---------------
SCF CONVERGENCE
---------------

  Last Energy change         ...   -2.2604e-08  Tolerance :   1.0000e-08
  Last MAX-Density change    ...    2.5173e-04  Tolerance :   1.0000e-07
  Last RMS-Density change    ...    2.8757e-06  Tolerance :   5.0000e-09
  Last Orbital Gradient      ...    1.2954e-06  Tolerance :   1.0000e-05
  Last Orbital Rotation      ...    3.9719e-06  Tolerance :   1.0000e-05

             **** THE GBW FILE WAS UPDATED (28Oct_SVPD_BLYP_D1_wb97.gbw) ****
             **** DENSITY 28Oct_SVPD_BLYP_D1_wb97.scfp WAS UPDATED ****
             **** ENERGY FILE WAS UPDATED (28Oct_SVPD_BLYP_D1_wb97.en.tmp) ****
             **** THE GBW FILE WAS UPDATED (28Oct_SVPD_BLYP_D1_wb97.gbw) ****
             **** DENSITY 28Oct_SVPD_BLYP_D1_wb97.scfp WAS UPDATED ****
----------------
ORBITAL ENERGIES
----------------

  NO   OCC          E(Eh)            E(eV) 
   0   2.0000     -88.389944     -2405.2127 
   1   2.0000     -24.408081      -664.1776 
   2   2.0000     -18.811942      -511.8990 
   3   2.0000     -18.807910      -511.7892 
   4   2.0000     -14.021541      -381.5455 
   5   2.0000      -9.984228      -271.6847 
   6   2.0000      -9.951758      -270.8011 
   7   2.0000      -9.937005      -270.3997 
   8   2.0000      -9.929601      -270.1982 
   9   2.0000      -9.926485      -270.1134 
  10   2.0000      -9.924887      -270.0699 
  11   2.0000      -9.924850      -270.0689 
  12   2.0000      -9.850817      -268.0544 
  13   2.0000      -7.926443      -215.6895 
  14   2.0000      -5.965779      -162.3371 
  15   2.0000      -5.959548      -162.1675 
  16   2.0000      -5.957748      -162.1186 
  17   2.0000      -1.244505       -33.8647 
  18   2.0000      -1.027460       -27.9586 
  19   2.0000      -0.935907       -25.4673 
  20   2.0000      -0.839931       -22.8557 
  21   2.0000      -0.756087       -20.5742 
  22   2.0000      -0.720168       -19.5968 
  23   2.0000      -0.684451       -18.6249 
  24   2.0000      -0.657415       -17.8892 
  25   2.0000      -0.625608       -17.0237 
  26   2.0000      -0.613717       -16.7001 
  27   2.0000      -0.567197       -15.4342 
  28   2.0000      -0.533080       -14.5058 
  29   2.0000      -0.513975       -13.9860 
  30   2.0000      -0.506720       -13.7886 
  31   2.0000      -0.501423       -13.6444 
  32   2.0000      -0.488499       -13.2927 
  33   2.0000      -0.460494       -12.5307 
  34   2.0000      -0.445972       -12.1355 
  35   2.0000      -0.439926       -11.9710 
  36   2.0000      -0.423931       -11.5358 
  37   2.0000      -0.420657       -11.4467 
  38   2.0000      -0.408068       -11.1041 
  39   2.0000      -0.395103       -10.7513 
  40   2.0000      -0.385014       -10.4768 
  41   2.0000      -0.375424       -10.2158 
  42   2.0000      -0.351087        -9.5536 
  43   2.0000      -0.347534        -9.4569 
  44   2.0000      -0.340889        -9.2761 
  45   2.0000      -0.335369        -9.1259 
  46   2.0000      -0.329903        -8.9771 
  47   2.0000      -0.313472        -8.5300 
  48   2.0000      -0.307644        -8.3714 
  49   2.0000      -0.296223        -8.0606 
  50   2.0000      -0.294870        -8.0238 
  51   2.0000      -0.285668        -7.7734 
  52   2.0000      -0.283171        -7.7055 
  53   2.0000      -0.275809        -7.5051 
  54   2.0000      -0.273393        -7.4394 
  55   2.0000      -0.153085        -4.1657 
  56   0.0000      -0.027126        -0.7381 
  57   0.0000      -0.011623        -0.3163 
  58   0.0000      -0.003596        -0.0979 
  59   0.0000       0.002483         0.0676 
  60   0.0000       0.004883         0.1329 
  61   0.0000       0.017200         0.4680 
  62   0.0000       0.024086         0.6554 
  63   0.0000       0.030657         0.8342 
  64   0.0000       0.037543         1.0216 
  65   0.0000       0.038054         1.0355 
  66   0.0000       0.047619         1.2958 
  67   0.0000       0.050668         1.3788 
  68   0.0000       0.054695         1.4883 
  69   0.0000       0.059194         1.6107 
  70   0.0000       0.070079         1.9069 
  71   0.0000       0.072968         1.9856 
  72   0.0000       0.080469         2.1897 
  73   0.0000       0.084109         2.2887 
  74   0.0000       0.090946         2.4748 
  75   0.0000       0.095224         2.5912 
  76   0.0000       0.101904         2.7730 
  77   0.0000       0.105640         2.8746 
  78   0.0000       0.120580         3.2811 
  79   0.0000       0.122604         3.3362 
  80   0.0000       0.126155         3.4328 
  81   0.0000       0.130426         3.5491 
  82   0.0000       0.136558         3.7159 
  83   0.0000       0.140844         3.8326 
  84   0.0000       0.145206         3.9513 
  85   0.0000       0.151272         4.1163 
  86   0.0000       0.160234         4.3602 
  87   0.0000       0.161226         4.3872 
  88   0.0000       0.162209         4.4139 
  89   0.0000       0.168499         4.5851 
  90   0.0000       0.172746         4.7007 
  91   0.0000       0.181477         4.9382 
  92   0.0000       0.193961         5.2779 
  93   0.0000       0.196680         5.3519 
  94   0.0000       0.200832         5.4649 
  95   0.0000       0.201972         5.4959 
  96   0.0000       0.211119         5.7449 
  97   0.0000       0.212699         5.7878 
  98   0.0000       0.214159         5.8276 
  99   0.0000       0.223699         6.0872 
 100   0.0000       0.228465         6.2169 
 101   0.0000       0.233374         6.3504 
 102   0.0000       0.233862         6.3637 
 103   0.0000       0.240183         6.5357 
 104   0.0000       0.244735         6.6596 
 105   0.0000       0.252205         6.8628 
 106   0.0000       0.254361         6.9215 
 107   0.0000       0.257853         7.0165 
 108   0.0000       0.270951         7.3730 
 109   0.0000       0.272641         7.4189 
 110   0.0000       0.279168         7.5966 
 111   0.0000       0.281767         7.6673 
 112   0.0000       0.286360         7.7922 
 113   0.0000       0.290743         7.9115 
 114   0.0000       0.296062         8.0563 
 115   0.0000       0.299999         8.1634 
 116   0.0000       0.305967         8.3258 
 117   0.0000       0.308900         8.4056 
 118   0.0000       0.313732         8.5371 
 119   0.0000       0.317036         8.6270 
 120   0.0000       0.323378         8.7996 
 121   0.0000       0.326035         8.8719 
 122   0.0000       0.331868         9.0306 
 123   0.0000       0.333767         9.0823 
 124   0.0000       0.335721         9.1354 
 125   0.0000       0.338923         9.2226 
 126   0.0000       0.348134         9.4732 
 127   0.0000       0.349106         9.4996 
 128   0.0000       0.352162         9.5828 
 129   0.0000       0.357245         9.7211 
 130   0.0000       0.357880         9.7384 
 131   0.0000       0.364746         9.9252 
 132   0.0000       0.368924        10.0389 
 133   0.0000       0.374296        10.1851 
 134   0.0000       0.379782        10.3344 
 135   0.0000       0.384953        10.4751 
 136   0.0000       0.392236        10.6733 
 137   0.0000       0.392797        10.6885 
 138   0.0000       0.399955        10.8833 
 139   0.0000       0.402537        10.9536 
 140   0.0000       0.408012        11.1026 
 141   0.0000       0.414086        11.2679 
 142   0.0000       0.418768        11.3952 
 143   0.0000       0.420273        11.4362 
 144   0.0000       0.426615        11.6088 
 145   0.0000       0.428722        11.6661 
 146   0.0000       0.435852        11.8601 
 147   0.0000       0.439800        11.9676 
 148   0.0000       0.441934        12.0256 
 149   0.0000       0.449865        12.2414 
 150   0.0000       0.451697        12.2913 
 151   0.0000       0.457988        12.4625 
 152   0.0000       0.461737        12.5645 
 153   0.0000       0.469505        12.7759 
 154   0.0000       0.472225        12.8499 
 155   0.0000       0.474510        12.9121 
 156   0.0000       0.479290        13.0421 
 157   0.0000       0.482721        13.1355 
 158   0.0000       0.486024        13.2254 
 159   0.0000       0.490949        13.3594 
 160   0.0000       0.500635        13.6230 
 161   0.0000       0.504924        13.7397 
 162   0.0000       0.507279        13.8038 
 163   0.0000       0.512445        13.9443 
 164   0.0000       0.520764        14.1707 
 165   0.0000       0.525682        14.3045 
 166   0.0000       0.526432        14.3249 
 167   0.0000       0.530507        14.4358 
 168   0.0000       0.539321        14.6757 
 169   0.0000       0.542104        14.7514 
 170   0.0000       0.544991        14.8300 
 171   0.0000       0.548560        14.9271 
 172   0.0000       0.554318        15.0838 
 173   0.0000       0.554679        15.0936 
 174   0.0000       0.561072        15.2676 
 175   0.0000       0.568546        15.4709 
 176   0.0000       0.572226        15.5711 
 177   0.0000       0.573792        15.6137 
 178   0.0000       0.586064        15.9476 
 179   0.0000       0.588508        16.0141 
 180   0.0000       0.593611        16.1530 
 181   0.0000       0.600392        16.3375 
 182   0.0000       0.601854        16.3773 
 183   0.0000       0.618180        16.8215 
 184   0.0000       0.620646        16.8886 
 185   0.0000       0.622116        16.9286 
 186   0.0000       0.625170        17.0117 
 187   0.0000       0.631467        17.1831 
 188   0.0000       0.633344        17.2342 
 189   0.0000       0.640139        17.4191 
 190   0.0000       0.650071        17.6893 
 191   0.0000       0.656229        17.8569 
 192   0.0000       0.660614        17.9762 
 193   0.0000       0.664515        18.0824 
 194   0.0000       0.669810        18.2265 
 195   0.0000       0.671627        18.2759 
 196   0.0000       0.681950        18.5568 
 197   0.0000       0.689671        18.7669 
 198   0.0000       0.696162        18.9435 
 199   0.0000       0.699926        19.0460 
 200   0.0000       0.706026        19.2119 
 201   0.0000       0.710425        19.3316 
 202   0.0000       0.721921        19.6445 
 203   0.0000       0.731668        19.9097 
 204   0.0000       0.743095        20.2206 
 205   0.0000       0.745843        20.2954 
 206   0.0000       0.751877        20.4596 
 207   0.0000       0.762651        20.7528 
 208   0.0000       0.771696        20.9989 
 209   0.0000       0.779211        21.2034 
 210   0.0000       0.791831        21.5468 
 211   0.0000       0.795657        21.6509 
 212   0.0000       0.798636        21.7320 
 213   0.0000       0.811900        22.0929 
 214   0.0000       0.819615        22.3029 
 215   0.0000       0.825258        22.4564 
 216   0.0000       0.843306        22.9475 
 217   0.0000       0.854027        23.2393 
 218   0.0000       0.856199        23.2984 
 219   0.0000       0.867427        23.6039 
 220   0.0000       0.872236        23.7348 
 221   0.0000       0.887451        24.1488 
 222   0.0000       0.890126        24.2216 
 223   0.0000       0.908192        24.7131 
 224   0.0000       0.918141        24.9839 
 225   0.0000       0.920456        25.0469 
 226   0.0000       0.946091        25.7444 
 227   0.0000       0.950780        25.8720 
 228   0.0000       0.960219        26.1289 
 229   0.0000       0.965659        26.2769 
 230   0.0000       0.969743        26.3880 
 231   0.0000       0.975770        26.5520 
 232   0.0000       0.983451        26.7611 
 233   0.0000       0.993643        27.0384 
 234   0.0000       0.996851        27.1257 
 235   0.0000       1.007604        27.4183 
 236   0.0000       1.012923        27.5630 
 237   0.0000       1.019490        27.7417 
 238   0.0000       1.030669        28.0459 
 239   0.0000       1.035149        28.1678 
 240   0.0000       1.040366        28.3098 
 241   0.0000       1.063260        28.9328 
 242   0.0000       1.069286        29.0967 
 243   0.0000       1.074069        29.2269 
 244   0.0000       1.076729        29.2993 
 245   0.0000       1.077344        29.3160 
 246   0.0000       1.099150        29.9094 
 247   0.0000       1.102820        30.0093 
 248   0.0000       1.111733        30.2518 
 249   0.0000       1.123358        30.5681 
 250   0.0000       1.132548        30.8182 
 251   0.0000       1.138253        30.9734 
 252   0.0000       1.141425        31.0598 
 253   0.0000       1.154162        31.4063 
 254   0.0000       1.162023        31.6203 
 255   0.0000       1.168323        31.7917 
 256   0.0000       1.179016        32.0827 
 257   0.0000       1.197585        32.5879 
 258   0.0000       1.204098        32.7652 
 259   0.0000       1.210323        32.9345 
 260   0.0000       1.224149        33.3108 
 261   0.0000       1.248136        33.9635 
 262   0.0000       1.258786        34.2533 
 263   0.0000       1.263539        34.3826 
 264   0.0000       1.280769        34.8515 
 265   0.0000       1.291888        35.1541 
 266   0.0000       1.297030        35.2940 
 267   0.0000       1.310959        35.6730 
 268   0.0000       1.331750        36.2388 
 269   0.0000       1.339921        36.4611 
 270   0.0000       1.353412        36.8282 
 271   0.0000       1.379996        37.5516 
 272   0.0000       1.390810        37.8459 
 273   0.0000       1.407184        38.2914 
 274   0.0000       1.418534        38.6003 
 275   0.0000       1.443334        39.2751 
 276   0.0000       1.453828        39.5607 
 277   0.0000       1.479722        40.2653 
 278   0.0000       1.482872        40.3510 
 279   0.0000       1.506404        40.9913 
 280   0.0000       1.511561        41.1317 
 281   0.0000       1.519570        41.3496 
 282   0.0000       1.534690        41.7610 
 283   0.0000       1.563098        42.5341 
 284   0.0000       1.586197        43.1626 
 285   0.0000       1.591306        43.3016 
 286   0.0000       1.613393        43.9027 
 287   0.0000       1.621724        44.1293 
 288   0.0000       1.649757        44.8922 
 289   0.0000       1.660991        45.1979 
 290   0.0000       1.665114        45.3101 
 291   0.0000       1.670890        45.4672 
 292   0.0000       1.683199        45.8022 
 293   0.0000       1.705360        46.4052 
 294   0.0000       1.716327        46.7036 
 295   0.0000       1.740382        47.3582 
 296   0.0000       1.745352        47.4935 
 297   0.0000       1.754883        47.7528 
 298   0.0000       1.758854        47.8609 
 299   0.0000       1.781009        48.4637 
 300   0.0000       1.782154        48.4949 
 301   0.0000       1.793884        48.8141 
 302   0.0000       1.817788        49.4645 
 303   0.0000       1.828379        49.7527 
 304   0.0000       1.835284        49.9406 
 305   0.0000       1.843625        50.1676 
 306   0.0000       1.860150        50.6172 
 307   0.0000       1.866582        50.7923 
 308   0.0000       1.873776        50.9880 
 309   0.0000       1.877102        51.0785 
 310   0.0000       1.901545        51.7437 
 311   0.0000       1.911007        52.0011 
 312   0.0000       1.912957        52.0542 
 313   0.0000       1.927454        52.4487 
 314   0.0000       1.944158        52.9032 
 315   0.0000       1.949922        53.0601 
 316   0.0000       1.958318        53.2885 
 317   0.0000       1.968454        53.5644 
 318   0.0000       1.981589        53.9218 
 319   0.0000       1.984571        54.0029 
 320   0.0000       2.010209        54.7006 
 321   0.0000       2.016224        54.8643 
 322   0.0000       2.029335        55.2210 
 323   0.0000       2.030665        55.2572 
 324   0.0000       2.042428        55.5773 
 325   0.0000       2.048281        55.7366 
 326   0.0000       2.066671        56.2370 
 327   0.0000       2.081948        56.6527 
 328   0.0000       2.090299        56.8799 
 329   0.0000       2.108148        57.3656 
 330   0.0000       2.111850        57.4664 
 331   0.0000       2.136756        58.1441 
 332   0.0000       2.158089        58.7246 
 333   0.0000       2.164904        58.9100 
 334   0.0000       2.178177        59.2712 
 335   0.0000       2.199304        59.8461 
 336   0.0000       2.208452        60.0950 
 337   0.0000       2.212489        60.2049 
 338   0.0000       2.245632        61.1068 
 339   0.0000       2.249799        61.2201 
 340   0.0000       2.275497        61.9194 
 341   0.0000       2.293608        62.4122 
 342   0.0000       2.295855        62.4734 
 343   0.0000       2.314598        62.9834 
 344   0.0000       2.327170        63.3255 
 345   0.0000       2.350145        63.9507 
 346   0.0000       2.374475        64.6128 
 347   0.0000       2.380261        64.7702 
 348   0.0000       2.407814        65.5200 
 349   0.0000       2.419360        65.8341 
 350   0.0000       2.425903        66.0122 
 351   0.0000       2.440229        66.4020 
 352   0.0000       2.445795        66.5535 
 353   0.0000       2.456094        66.8337 
 354   0.0000       2.472674        67.2849 
 355   0.0000       2.505482        68.1776 
 356   0.0000       2.525427        68.7204 
 357   0.0000       2.556113        69.5554 
 358   0.0000       2.575260        70.0764 
 359   0.0000       2.585829        70.3640 
 360   0.0000       2.608337        70.9765 
 361   0.0000       2.619269        71.2739 
 362   0.0000       2.628248        71.5183 
 363   0.0000       2.659411        72.3663 
 364   0.0000       2.682381        72.9913 
 365   0.0000       2.692154        73.2572 
 366   0.0000       2.705814        73.6289 
 367   0.0000       2.730940        74.3127 
 368   0.0000       2.761461        75.1432 
 369   0.0000       2.781723        75.6945 
 370   0.0000       2.790120        75.9230 
 371   0.0000       2.801270        76.2264 
 372   0.0000       2.824129        76.8485 
 373   0.0000       2.829485        76.9942 
 374   0.0000       2.851562        77.5949 
 375   0.0000       2.883971        78.4768 
 376   0.0000       2.895459        78.7895 
 377   0.0000       2.932009        79.7840 
 378   0.0000       2.943358        80.0928 
 379   0.0000       2.956723        80.4565 
 380   0.0000       2.966248        80.7157 
 381   0.0000       2.985561        81.2412 
 382   0.0000       2.994049        81.4722 
 383   0.0000       3.043702        82.8233 
 384   0.0000       3.060276        83.2743 
 385   0.0000       3.077512        83.7434 
 386   0.0000       3.097558        84.2888 
 387   0.0000       3.111587        84.6706 
 388   0.0000       3.120828        84.9220 
 389   0.0000       3.137167        85.3666 
 390   0.0000       3.175520        86.4103 
 391   0.0000       3.195226        86.9465 
 392   0.0000       3.222982        87.7018 
 393   0.0000       3.237981        88.1099 
 394   0.0000       3.250297        88.4451 
 395   0.0000       3.262010        88.7638 
 396   0.0000       3.291932        89.5780 
 397   0.0000       3.312639        90.1415 
 398   0.0000       3.373031        91.7848 
 399   0.0000       3.439496        93.5935 
 400   0.0000       3.482007        94.7502 
 401   0.0000       3.507672        95.4486 
 402   0.0000       3.690312       100.4185 
 403   0.0000       3.702407       100.7476 

                    ********************************
                    * MULLIKEN POPULATION ANALYSIS *
                    ********************************

-----------------------
MULLIKEN ATOMIC CHARGES
-----------------------
   0 C :    0.954475
   1 C :    0.843907
   2 C :    0.465851
   3 H :   -0.008605
   4 H :   -0.431245
   5 S :    1.349025
   6 C :   -0.658235
   7 C :    0.940716
   8 N :    0.675795
   9 H :   -0.068892
  10 H :   -0.271052
  11 H :   -0.076298
  12 H :   -0.852390
  13 F :   -0.565024
  14 O :   -0.547529
  15 C :    0.658235
  16 C :    0.602622
  17 H :   -0.125645
  18 H :   -0.202117
  19 C :    0.254251
  20 H :   -0.150762
  21 H :   -0.298485
  22 O :   -0.747599
  23 H :   -0.196805
  24 H :   -0.324803
  25 H :   -0.552731
  26 H :   -0.217733
  27 H :   -0.044934
  28 H :   -0.403991
Sum of atomic charges:    0.0000000

--------------------------------
MULLIKEN REDUCED ORBITAL CHARGES
--------------------------------
  0 C s       :     2.309419  s :     2.309419
      pz      :     0.932585  p :     2.493563
      px      :     0.625007
      py      :     0.935972
      dz2     :     0.002434  d :     0.242543
      dxz     :    -0.010661
      dyz     :     0.160270
      dx2y2   :    -0.000835
      dxy     :     0.091335
  1 C s       :     2.355354  s :     2.355354
      pz      :     0.883598  p :     2.435583
      px      :     0.841158
      py      :     0.710827
      dz2     :     0.225420  d :     0.365156
      dxz     :     0.036578
      dyz     :     0.036421
      dx2y2   :     0.060205
      dxy     :     0.006533
  2 C s       :     2.617711  s :     2.617711
      pz      :     0.898844  p :     2.618900
      px      :     0.919982
      py      :     0.800073
      dz2     :     0.065551  d :     0.297539
      dxz     :     0.077723
      dyz     :     0.058310
      dx2y2   :     0.058330
      dxy     :     0.037625
  3 H s       :     1.027944  s :     1.027944
      pz      :    -0.030637  p :    -0.019339
      px      :    -0.013446
      py      :     0.024743
  4 H s       :     1.422917  s :     1.422917
      pz      :     0.015379  p :     0.008327
      px      :    -0.012271
      py      :     0.005219
  5 S s       :     4.984102  s :     4.984102
      pz      :     2.967476  p :     8.836763
      px      :     2.790751
      py      :     3.078536
      dz2     :     0.090447  d :     0.830110
      dxz     :     0.216655
      dyz     :     0.223479
      dx2y2   :     0.166148
      dxy     :     0.133381
  6 C s       :     3.058156  s :     3.058156
      pz      :     0.856268  p :     2.653381
      px      :     0.906525
      py      :     0.890588
      dz2     :     0.147365  d :     0.946698
      dxz     :     0.451637
      dyz     :     0.074074
      dx2y2   :     0.186589
      dxy     :     0.087032
  7 C s       :     2.414712  s :     2.414712
      pz      :     0.485945  p :     2.475133
      px      :     1.093533
      py      :     0.895655
      dz2     :    -0.019818  d :     0.169439
      dxz     :     0.114657
      dyz     :    -0.015063
      dx2y2   :     0.028097
      dxy     :     0.061566
  8 N s       :     2.766495  s :     2.766495
      pz      :     0.999881  p :     3.503888
      px      :     1.052522
      py      :     1.451485
      dz2     :    -0.006086  d :     0.053822
      dxz     :     0.007984
      dyz     :     0.017453
      dx2y2   :     0.006870
      dxy     :     0.027602
  9 H s       :     1.068364  s :     1.068364
      pz      :    -0.041410  p :     0.000528
      px      :    -0.013070
      py      :     0.055008
 10 H s       :     1.247991  s :     1.247991
      pz      :     0.051062  p :     0.023061
      px      :    -0.061773
      py      :     0.033771
 11 H s       :     1.124334  s :     1.124334
      pz      :    -0.054806  p :    -0.048036
      px      :    -0.018235
      py      :     0.025004
 12 H s       :     1.764370  s :     1.764370
      pz      :     0.118655  p :     0.088020
      px      :    -0.020743
      py      :    -0.009892
 13 F s       :     3.975375  s :     3.975375
      pz      :     1.980486  p :     5.547740
      px      :     1.652765
      py      :     1.914488
      dz2     :     0.003931  d :     0.041908
      dxz     :     0.018347
      dyz     :     0.006952
      dx2y2   :     0.007183
      dxy     :     0.005497
 14 O s       :     3.895248  s :     3.895248
      pz      :     1.175025  p :     4.622441
      px      :     1.716778
      py      :     1.730637
      dz2     :     0.000569  d :     0.029840
      dxz     :     0.013606
      dyz     :     0.011141
      dx2y2   :     0.002920
      dxy     :     0.001605
 15 C s       :     2.488404  s :     2.488404
      pz      :     0.895162  p :     2.400644
      px      :     0.606083
      py      :     0.899399
      dz2     :     0.117637  d :     0.452717
      dxz     :     0.065687
      dyz     :     0.119385
      dx2y2   :     0.074029
      dxy     :     0.075979
 16 C s       :     2.284541  s :     2.284541
      pz      :     0.761764  p :     2.542071
      px      :     0.914238
      py      :     0.866069
      dz2     :     0.088223  d :     0.570767
      dxz     :     0.264546
      dyz     :     0.051133
      dx2y2   :     0.059167
      dxy     :     0.107697
 17 H s       :     1.164896  s :     1.164896
      pz      :    -0.018973  p :    -0.039251
      px      :     0.038553
      py      :    -0.058831
 18 H s       :     1.246285  s :     1.246285
      pz      :    -0.018123  p :    -0.044168
      px      :    -0.046406
      py      :     0.020361
 19 C s       :     2.587493  s :     2.587493
      pz      :     0.906783  p :     2.524168
      px      :     0.918967
      py      :     0.698418
      dz2     :     0.185190  d :     0.634088
      dxz     :     0.273722
      dyz     :     0.014627
      dx2y2   :     0.126353
      dxy     :     0.034197
 20 H s       :     1.209652  s :     1.209652
      pz      :    -0.025546  p :    -0.058890
      px      :    -0.012616
      py      :    -0.020728
 21 H s       :     1.315431  s :     1.315431
      pz      :     0.021472  p :    -0.016946
      px      :    -0.014928
      py      :    -0.023490
 22 O s       :     4.019816  s :     4.019816
      pz      :     1.723535  p :     4.693346
      px      :     1.444406
      py      :     1.525406
      dz2     :     0.000461  d :     0.034436
      dxz     :     0.008126
      dyz     :     0.009780
      dx2y2   :     0.009685
      dxy     :     0.006384
 23 H s       :     1.135667  s :     1.135667
      pz      :     0.041707  p :     0.061138
      px      :     0.055566
      py      :    -0.036135
 24 H s       :     1.342053  s :     1.342053
      pz      :    -0.035817  p :    -0.017250
      px      :    -0.028289
      py      :     0.046856
 25 H s       :     1.389505  s :     1.389505
      pz      :     0.009782  p :     0.163226
      px      :    -0.017235
      py      :     0.170679
 26 H s       :     1.248719  s :     1.248719
      pz      :    -0.000178  p :    -0.030986
      px      :     0.016599
      py      :    -0.047407
 27 H s       :     1.039443  s :     1.039443
      pz      :     0.004206  p :     0.005491
      px      :     0.016468
      py      :    -0.015183
 28 H s       :     1.419370  s :     1.419370
      pz      :     0.004847  p :    -0.015379
      px      :     0.001589
      py      :    -0.021815


                     *******************************
                     * LOEWDIN POPULATION ANALYSIS *
                     *******************************

----------------------
LOEWDIN ATOMIC CHARGES
----------------------
   0 C :    0.036636
   1 C :   -0.015561
   2 C :   -0.025234
   3 H :    0.011959
   4 H :    0.017937
   5 S :    1.103194
   6 C :   -0.252751
   7 C :    0.181895
   8 N :    0.212021
   9 H :    0.002577
  10 H :   -0.044850
  11 H :   -0.077824
  12 H :   -0.124193
  13 F :   -0.272659
  14 O :   -0.424332
  15 C :    0.001276
  16 C :   -0.008435
  17 H :    0.027657
  18 H :    0.030755
  19 C :   -0.016329
  20 H :    0.015300
  21 H :    0.012990
  22 O :   -0.442805
  23 H :   -0.010834
  24 H :    0.022299
  25 H :   -0.019596
  26 H :    0.029360
  27 H :    0.006724
  28 H :    0.022823

-------------------------------
LOEWDIN REDUCED ORBITAL CHARGES
-------------------------------
  0 C s       :     2.685339  s :     2.685339
      pz      :     0.887209  p :     2.661576
      px      :     0.892807
      py      :     0.881560
      dz2     :     0.113837  d :     0.616449
      dxz     :     0.104525
      dyz     :     0.155480
      dx2y2   :     0.101303
      dxy     :     0.141305
  1 C s       :     2.680620  s :     2.680620
      pz      :     0.881198  p :     2.673159
      px      :     0.887513
      py      :     0.904449
      dz2     :     0.184888  d :     0.661782
      dxz     :     0.158281
      dyz     :     0.120314
      dx2y2   :     0.130147
      dxy     :     0.068153
  2 C s       :     2.717950  s :     2.717950
      pz      :     0.932645  p :     2.701382
      px      :     0.937915
      py      :     0.830822
      dz2     :     0.130871  d :     0.605902
      dxz     :     0.112035
      dyz     :     0.124758
      dx2y2   :     0.112186
      dxy     :     0.126053
  3 H s       :     0.716236  s :     0.716236
      pz      :     0.079724  p :     0.271805
      px      :     0.108751
      py      :     0.083330
  4 H s       :     0.713846  s :     0.713846
      pz      :     0.108295  p :     0.268217
      px      :     0.079836
      py      :     0.080086
  5 S s       :     4.672397  s :     4.672397
      pz      :     2.821938  p :     8.404129
      px      :     2.739305
      py      :     2.842887
      dz2     :     0.415644  d :     1.820279
      dxz     :     0.381939
      dyz     :     0.364437
      dx2y2   :     0.350237
      dxy     :     0.308023
  6 C s       :     2.655735  s :     2.655735
      pz      :     0.869246  p :     2.563936
      px      :     0.915893
      py      :     0.778797
      dz2     :     0.220756  d :     1.033079
      dxz     :     0.247279
      dyz     :     0.149968
      dx2y2   :     0.227825
      dxy     :     0.187251
  7 C s       :     2.723085  s :     2.723085
      pz      :     0.907130  p :     2.730239
      px      :     0.927613
      py      :     0.895495
      dz2     :     0.074669  d :     0.364781
      dxz     :     0.105587
      dyz     :     0.042291
      dx2y2   :     0.062933
      dxy     :     0.079301
  8 N s       :     2.917041  s :     2.917041
      pz      :     1.065552  p :     3.459573
      px      :     1.095857
      py      :     1.298164
      dz2     :     0.124793  d :     0.411364
      dxz     :     0.069159
      dyz     :     0.063945
      dx2y2   :     0.086332
      dxy     :     0.067135
  9 H s       :     0.648211  s :     0.648211
      pz      :     0.086903  p :     0.349212
      px      :     0.146391
      py      :     0.115918
 10 H s       :     0.630416  s :     0.630416
      pz      :     0.173135  p :     0.414434
      px      :     0.106561
      py      :     0.134738
 11 H s       :     0.758082  s :     0.758082
      pz      :     0.103085  p :     0.319742
      px      :     0.094579
      py      :     0.122078
 12 H s       :     0.739156  s :     0.739156
      pz      :     0.170085  p :     0.385037
      px      :     0.108137
      py      :     0.106815
 13 F s       :     3.678991  s :     3.678991
      pz      :     1.804770  p :     5.302368
      px      :     1.662981
      py      :     1.834617
      dz2     :     0.051079  d :     0.291300
      dxz     :     0.084995
      dyz     :     0.025633
      dx2y2   :     0.063471
      dxy     :     0.066122
 14 O s       :     3.563358  s :     3.563358
      pz      :     1.405277  p :     4.616518
      px      :     1.598789
      py      :     1.612453
      dz2     :     0.090925  d :     0.244456
      dxz     :     0.063883
      dyz     :     0.070773
      dx2y2   :     0.007524
      dxy     :     0.011352
 15 C s       :     2.690730  s :     2.690730
      pz      :     0.887889  p :     2.656968
      px      :     0.899881
      py      :     0.869197
      dz2     :     0.119098  d :     0.651026
      dxz     :     0.122430
      dyz     :     0.147824
      dx2y2   :     0.135459
      dxy     :     0.126215
 16 C s       :     2.675879  s :     2.675879
      pz      :     0.870793  p :     2.665729
      px      :     0.892245
      py      :     0.902690
      dz2     :     0.129889  d :     0.666828
      dxz     :     0.187035
      dyz     :     0.105559
      dx2y2   :     0.155538
      dxy     :     0.088806
 17 H s       :     0.716422  s :     0.716422
      pz      :     0.069083  p :     0.255922
      px      :     0.105713
      py      :     0.081125
 18 H s       :     0.720717  s :     0.720717
      pz      :     0.064420  p :     0.248528
      px      :     0.065790
      py      :     0.118317
 19 C s       :     2.680825  s :     2.680825
      pz      :     0.882277  p :     2.658755
      px      :     0.890899
      py      :     0.885580
      dz2     :     0.143707  d :     0.676749
      dxz     :     0.188979
      dyz     :     0.095648
      dx2y2   :     0.159535
      dxy     :     0.088880
 20 H s       :     0.726864  s :     0.726864
      pz      :     0.071001  p :     0.257836
      px      :     0.117730
      py      :     0.069105
 21 H s       :     0.732608  s :     0.732608
      pz      :     0.092449  p :     0.254402
      px      :     0.097286
      py      :     0.064667
 22 O s       :     3.554623  s :     3.554623
      pz      :     1.616337  p :     4.619521
      px      :     1.466500
      py      :     1.536683
      dz2     :     0.045553  d :     0.268662
      dxz     :     0.046534
      dyz     :     0.044391
      dx2y2   :     0.062840
      dxy     :     0.069344
 23 H s       :     0.704959  s :     0.704959
      pz      :     0.111183  p :     0.305875
      px      :     0.103578
      py      :     0.091114
 24 H s       :     0.730278  s :     0.730278
      pz      :     0.066284  p :     0.247423
      px      :     0.062418
      py      :     0.118721
 25 H s       :     0.702120  s :     0.702120
      pz      :     0.095233  p :     0.317476
      px      :     0.075628
      py      :     0.146616
 26 H s       :     0.727674  s :     0.727674
      pz      :     0.087016  p :     0.242965
      px      :     0.090706
      py      :     0.065243
 27 H s       :     0.728937  s :     0.728937
      pz      :     0.072389  p :     0.264340
      px      :     0.117547
      py      :     0.074404
 28 H s       :     0.726499  s :     0.726499
      pz      :     0.091677  p :     0.250678
      px      :     0.089757
      py      :     0.069243


                      *****************************
                      * MAYER POPULATION ANALYSIS *
                      *****************************

  NA   - Mulliken gross atomic population
  ZA   - Total nuclear charge
  QA   - Mulliken gross atomic charge
  VA   - Mayer's total valence
  BVA  - Mayer's bonded valence
  FA   - Mayer's free valence

  ATOM       NA         ZA         QA         VA         BVA        FA
  0 C      5.0455     6.0000     0.9545     3.8231     3.8231    -0.0000
  1 C      5.1561     6.0000     0.8439     4.0866     4.0866     0.0000
  2 C      5.5341     6.0000     0.4659     4.3814     4.3814    -0.0000
  3 H      1.0086     1.0000    -0.0086     0.9027     0.9027    -0.0000
  4 H      1.4312     1.0000    -0.4312     0.9211     0.9211    -0.0000
  5 S     14.6510    16.0000     1.3490     4.8629     4.8629     0.0000
  6 C      6.6582     6.0000    -0.6582     5.9437     5.9437     0.0000
  7 C      5.0593     6.0000     0.9407     3.0756     3.0756    -0.0000
  8 N      6.3242     7.0000     0.6758     3.6319     3.6319     0.0000
  9 H      1.0689     1.0000    -0.0689     0.8460     0.8460     0.0000
 10 H      1.2711     1.0000    -0.2711     0.8962     0.8962     0.0000
 11 H      1.0763     1.0000    -0.0763     0.8253     0.8253     0.0000
 12 H      1.8524     1.0000    -0.8524     0.6472     0.6472     0.0000
 13 F      9.5650     9.0000    -0.5650     1.3579     1.3579     0.0000
 14 O      8.5475     8.0000    -0.5475     1.7901     1.7901    -0.0000
 15 C      5.3418     6.0000     0.6582     4.4085     4.4085    -0.0000
 16 C      5.3974     6.0000     0.6026     4.5529     4.5529    -0.0000
 17 H      1.1256     1.0000    -0.1256     0.8568     0.8568    -0.0000
 18 H      1.2021     1.0000    -0.2021     0.8391     0.8391     0.0000
 19 C      5.7457     6.0000     0.2543     5.0037     5.0037     0.0000
 20 H      1.1508     1.0000    -0.1508     0.7708     0.7708    -0.0000
 21 H      1.2985     1.0000    -0.2985     0.8505     0.8505    -0.0000
 22 O      8.7476     8.0000    -0.7476     1.9432     1.9432     0.0000
 23 H      1.1968     1.0000    -0.1968     1.1793     1.1793     0.0000
 24 H      1.3248     1.0000    -0.3248     0.9064     0.9064     0.0000
 25 H      1.5527     1.0000    -0.5527     1.1058     1.1058     0.0000
 26 H      1.2177     1.0000    -0.2177     0.8620     0.8620     0.0000
 27 H      1.0449     1.0000    -0.0449     0.9192     0.9192     0.0000
 28 H      1.4040     1.0000    -0.4040     0.8177     0.8177    -0.0000

  Mayer bond orders larger than 0.100000
B(  0-C ,  6-C ) :   1.2991 B(  0-C ,  8-N ) :   0.1315 B(  0-C , 15-C ) :   1.0784 
B(  0-C , 19-C ) :   0.1732 B(  0-C , 20-H ) :   0.1374 B(  0-C , 21-H ) :   0.2486 
B(  0-C , 27-H ) :   0.4085 B(  0-C , 28-H ) :   0.4841 B(  1-C ,  2-C ) :   1.1642 
B(  1-C ,  3-H ) :   0.1322 B(  1-C ,  4-H ) :   0.2544 B(  1-C , 16-C ) :   1.2000 
B(  1-C , 17-H ) :   0.4983 B(  1-C , 18-H ) :   0.5616 B(  1-C , 26-H ) :   0.1107 
B(  2-C ,  3-H ) :   0.8075 B(  2-C ,  4-H ) :   0.7185 B(  2-C ,  5-S ) :   0.9075 
B(  2-C , 16-C ) :   0.1222 B(  2-C , 17-H ) :   0.1498 B(  2-C , 18-H ) :   0.2294 
B(  5-S , 13-F ) :   0.6741 B(  5-S , 14-O ) :   1.6226 B(  5-S , 22-O ) :   1.4965 
B(  6-C ,  7-C ) :   2.0447 B(  6-C ,  8-N ) :   1.0679 B(  6-C , 11-H ) :   0.1313 
B(  6-C , 12-H ) :   0.4423 B(  6-C , 15-C ) :   0.1438 B(  6-C , 27-H ) :   0.4107 
B(  6-C , 28-H ) :   0.3116 B(  7-C ,  8-N ) :   0.4133 B(  7-C , 11-H ) :   0.4801 
B(  8-N ,  9-H ) :   0.8604 B(  8-N , 10-H ) :   0.8784 B(  8-N , 11-H ) :   0.2039 
B(  8-N , 12-H ) :  -0.1118 B(  9-H , 10-H ) :  -0.1450 B(  9-H , 12-H ) :  -0.1061 
B( 10-H , 12-H ) :   0.1263 B( 11-H , 23-H ) :   0.1080 B( 12-H , 13-F ) :   0.3301 
B( 13-F , 22-O ) :   0.1068 B( 14-O , 22-O ) :   0.1061 B( 15-C , 19-C ) :   1.1426 
B( 15-C , 20-H ) :   0.5316 B( 15-C , 21-H ) :   0.6571 B( 15-C , 23-H ) :   0.2629 
B( 15-C , 24-H ) :   0.1277 B( 15-C , 27-H ) :   0.1944 B( 15-C , 28-H ) :   0.1179 
B( 16-C , 17-H ) :   0.3725 B( 16-C , 18-H ) :   0.1119 B( 16-C , 19-C ) :   1.1960 
B( 16-C , 23-H ) :   0.2016 B( 16-C , 24-H ) :   0.2037 B( 16-C , 25-H ) :   0.6477 
B( 16-C , 26-H ) :   0.5140 B( 17-H , 18-H ) :  -0.1708 B( 19-C , 20-H ) :   0.3729 
B( 19-C , 21-H ) :   0.2354 B( 19-C , 23-H ) :   0.7138 B( 19-C , 24-H ) :   0.6765 
B( 19-C , 25-H ) :   0.2152 B( 19-C , 26-H ) :   0.2696 B( 20-H , 21-H ) :  -0.2031 


-------
TIMINGS
-------

Total SCF time: 0 days 0 hours 0 min 40 sec 

Total time                  ....      40.117 sec
Sum of individual times     ....      39.537 sec  ( 98.6%)

Fock matrix formation       ....      36.102 sec  ( 90.0%)
  Split-RI-J                ....      11.702 sec  ( 32.4% of F)
  XC integration            ....      24.091 sec  ( 66.7% of F)
    Basis function eval.    ....       6.341 sec  ( 26.3% of XC)
    Density eval.           ....       7.974 sec  ( 33.1% of XC)
    XC-Functional eval.     ....       0.454 sec  (  1.9% of XC)
    XC-Potential eval.      ....       8.204 sec  ( 34.1% of XC)
Diagonalization             ....       0.324 sec  (  0.8%)
Density matrix formation    ....       0.040 sec  (  0.1%)
Population analysis         ....       0.043 sec  (  0.1%)
Initial guess               ....       0.802 sec  (  2.0%)
Orbital Transformation      ....       0.000 sec  (  0.0%)
Orbital Orthonormalization  ....       0.000 sec  (  0.0%)
DIIS solution               ....       0.180 sec  (  0.4%)
SOSCF solution              ....       0.494 sec  (  1.2%)
Grid generation             ....       1.553 sec  (  3.9%)

Maximum memory used throughout the entire SCF-calculation: 61.5 MB


-------------------------------------------------------------------------------
                          DFT DISPERSION CORRECTION                            
                                                                               
                              DFTD3 V3.1  Rev 1                                
                          USING Becke-Johnson damping                          
-------------------------------------------------------------------------------
The BLYP functional is recognized
Active option DFTDOPT                   ...         4   

molecular C6(AA) [au] = 7805.709484 


            DFT-D V3
 parameters
 s6 scaling factor         :     1.0000 
 a1 scaling factor         :     0.4298 
 s8 scaling factor         :     2.6996 
 a2 scaling factor         :     4.2359 
 ad hoc parameters k1-k3   :    16.0000     1.3333    -4.0000 

 Edisp/kcal,au: -46.301751756830  -0.073786530294 
 E6   /kcal   : -18.757414870 
 E8   /kcal   : -27.544336887 
 % E8         :  59.488757643 

-------------------------   ----------------
Dispersion correction           -0.073786530
-------------------------   ----------------


-------------------------   --------------------
FINAL SINGLE POINT ENERGY     -1016.871707161231
-------------------------   --------------------


                            ***************************************
                            *     ORCA property calculations      *
                            ***************************************

                                    ---------------------
                                    Active property flags
                                    ---------------------
   (+) Dipole Moment


------------------------------------------------------------------------------
                       ORCA ELECTRIC PROPERTIES CALCULATION
------------------------------------------------------------------------------

Dipole Moment Calculation                       ... on
Quadrupole Moment Calculation                   ... off
Polarizability Calculation                      ... off
GBWName                                         ... 28Oct_SVPD_BLYP_D1_wb97.gbw
Electron density file                           ... 28Oct_SVPD_BLYP_D1_wb97.scfp
The origin for moment calculation is the CENTER OF MASS  = ( 4.608342, -0.463887 -8.384756)

-------------
DIPOLE MOMENT
-------------
                                X             Y             Z
Electronic contribution:      2.13642      -4.98006     -18.59612
Nuclear contribution   :     -2.89481       6.29550      19.36835
                        -----------------------------------------
Total Dipole Moment    :     -0.75839       1.31544       0.77223
                        -----------------------------------------
Magnitude (a.u.)       :      1.70349
Magnitude (Debye)      :      4.32993



--------------------
Rotational spectrum 
--------------------
 
Rotational constants in cm-1:     0.036515     0.018832     0.015081 
Rotational constants in MHz :  1094.679513   564.567051   452.109105 

 Dipole components along the rotational axes: 
x,y,z [a.u.] :     0.408376     1.643798    -0.181782 
x,y,z [Debye]:     1.038009     4.178203    -0.462052 

 

Timings for individual modules:

Sum of individual times         ...       41.328 sec (=   0.689 min)
GTO integral calculation        ...        0.822 sec (=   0.014 min)   2.0 %
SCF iterations                  ...       40.506 sec (=   0.675 min)  98.0 %
                             ****ORCA TERMINATED NORMALLY****
TOTAL RUN TIME: 0 days 0 hours 0 minutes 42 seconds 12 msec
