
                                        *****************
                                        * O   R   C   A *
                                        *****************

                                            #,                                       
                                            ###                                      
                                            ####                                     
                                            #####                                    
                                            ######                                   
                                           ########,                                 
                                     ,,################,,,,,                         
                               ,,#################################,,                 
                          ,,##########################################,,             
                       ,#########################################, ''#####,          
                    ,#############################################,,   '####,        
                  ,##################################################,,,,####,       
                ,###########''''           ''''###############################       
              ,#####''   ,,,,##########,,,,          '''####'''          '####       
            ,##' ,,,,###########################,,,                        '##       
           ' ,,###''''                  '''############,,,                           
         ,,##''                                '''############,,,,        ,,,,,,###''
      ,#''                                            '''#######################'''  
     '                                                          ''''####''''         
             ,#######,   #######,   ,#######,      ##                                
            ,#'     '#,  ##    ##  ,#'     '#,    #''#        ######   ,####,        
            ##       ##  ##   ,#'  ##            #'  '#       #        #'  '#        
            ##       ##  #######   ##           ,######,      #####,   #    #        
            '#,     ,#'  ##    ##  '#,     ,#' ,#      #,         ##   #,  ,#        
             '#######'   ##     ##  '#######'  #'      '#     #####' # '####'        



                  #######################################################
                  #                        -***-                        #
                  #          Department of theory and spectroscopy      #
                  #    Directorship and core code : Frank Neese         #
                  #        Max Planck Institute fuer Kohlenforschung    #
                  #                Kaiser Wilhelm Platz 1               #
                  #                 D-45470 Muelheim/Ruhr               #
                  #                      Germany                        #
                  #                                                     #
                  #                  All rights reserved                #
                  #                        -***-                        #
                  #######################################################


                         Program Version 5.0.0 -  RELEASE  -
                                (SVN: $Rev: 19529$)
                ($Date: 2021-06-28 11:36:33 +0200 (Mo, 28 Jun 2021) $)


 With contributions from (in alphabetic order):
   Daniel Aravena         : Magnetic Suceptibility
   Michael Atanasov       : Ab Initio Ligand Field Theory (pilot matlab implementation)
   Alexander A. Auer      : GIAO ZORA, VPT2 properties, NMR spectrum
   Ute Becker             : Parallelization
   Giovanni Bistoni       : ED, misc. LED, open-shell LED, HFLD
   Martin Brehm           : Molecular dynamics
   Dmytro Bykov           : SCF Hessian
   Vijay G. Chilkuri      : MRCI spin determinant printing, contributions to CSF-ICE
   Dipayan Datta          : RHF DLPNO-CCSD density
   Achintya Kumar Dutta   : EOM-CC, STEOM-CC
   Dmitry Ganyushin       : Spin-Orbit,Spin-Spin,Magnetic field MRCI
   Miquel Garcia          : C-PCM Hessian, Gaussian charge scheme
   Yang Guo               : DLPNO-NEVPT2, F12-NEVPT2, CIM, IAO-localization
   Andreas Hansen         : Spin unrestricted coupled pair/coupled cluster methods
   Benjamin Helmich-Paris : MC-RPA, TRAH-SCF, COSX integrals
   Lee Huntington         : MR-EOM, pCC
   Robert Izsak           : Overlap fitted RIJCOSX, COSX-SCS-MP3, EOM
   Marcus Kettner         : VPT2
   Christian Kollmar      : KDIIS, OOCD, Brueckner-CCSD(T), CCSD density, CASPT2, CASPT2-K
   Simone Kossmann        : Meta GGA functionals, TD-DFT gradient, OOMP2, MP2 Hessian
   Martin Krupicka        : Initial AUTO-CI
   Lucas Lang             : DCDCAS
   Marvin Lechner         : AUTO-CI (C++ implementation), FIC-MRCC
   Dagmar Lenk            : GEPOL surface, SMD
   Dimitrios Liakos       : Extrapolation schemes; Compound Job, initial MDCI parallelization
   Dimitrios Manganas     : Further ROCIS development; embedding schemes
   Dimitrios Pantazis     : SARC Basis sets
   Anastasios Papadopoulos: AUTO-CI, single reference methods and gradients
   Taras Petrenko         : DFT Hessian,TD-DFT gradient, ASA, ECA, R-Raman, ABS, FL, XAS/XES, NRVS
   Peter Pinski           : DLPNO-MP2, DLPNO-MP2 Gradient
   Christoph Reimann      : Effective Core Potentials
   Marius Retegan         : Local ZFS, SOC
   Christoph Riplinger    : Optimizer, TS searches, QM/MM, DLPNO-CCSD(T), (RO)-DLPNO pert. Triples
   Tobias Risthaus        : Range-separated hybrids, TD-DFT gradient, RPA, STAB
   Michael Roemelt        : Original ROCIS implementation
   Masaaki Saitow         : Open-shell DLPNO-CCSD energy and density
   Barbara Sandhoefer     : DKH picture change effects
   Avijit Sen             : IP-ROCIS
   Kantharuban Sivalingam : CASSCF convergence, NEVPT2, FIC-MRCI
   Bernardo de Souza      : ESD, SOC TD-DFT
   Georgi Stoychev        : AutoAux, RI-MP2 NMR
   Willem Van den Heuvel  : Paramagnetic NMR
   Boris Wezisla          : Elementary symmetry handling
   Frank Wennmohs         : Technical directorship


 We gratefully acknowledge several colleagues who have allowed us to
 interface, adapt or use parts of their codes:
   Stefan Grimme, W. Hujo, H. Kruse, P. Pracht,  : VdW corrections, initial TS optimization,
                  C. Bannwarth, S. Ehlert          DFT functionals, gCP, sTDA/sTD-DF
   Ed Valeev, F. Pavosevic, A. Kumar             : LibInt (2-el integral package), F12 methods
   Garnet Chan, S. Sharma, J. Yang, R. Olivares  : DMRG
   Ulf Ekstrom                                   : XCFun DFT Library
   Mihaly Kallay                                 : mrcc  (arbitrary order and MRCC methods)
   Jiri Pittner, Ondrej Demel                    : Mk-CCSD
   Frank Weinhold                                : gennbo (NPA and NBO analysis)
   Christopher J. Cramer and Donald G. Truhlar   : smd solvation model
   Lars Goerigk                                  : TD-DFT with DH, B97 family of functionals
   V. Asgeirsson, H. Jonsson                     : NEB implementation
   FAccTs GmbH                                   : IRC, NEB, NEB-TS, DLPNO-Multilevel, CI-OPT
                                                   MM, QMMM, 2- and 3-layer-ONIOM, Crystal-QMMM,
                                                   LR-CPCM, SF, NACMEs, symmetry and pop. for TD-DFT,
                                                   nearIR, NL-DFT gradient (VV10), updates on ESD,
                                                   ML-optimized integration grids
   S Lehtola, MJT Oliveira, MAL Marques          : LibXC Library
   Liviu Ungur et al                             : ANISO software


 Your calculation uses the libint2 library for the computation of 2-el integrals
 For citations please refer to: http://libint.valeyev.net

 Your ORCA version has been built with support for libXC version: 5.1.0
 For citations please refer to: https://tddft.org/programs/libxc/

 This ORCA versions uses:
   CBLAS   interface :  Fast vector & matrix operations
   LAPACKE interface :  Fast linear algebra routines
   SCALAPACK package :  Parallel linear algebra routines
   Shared memory     :  Shared parallel matrices
   BLAS/LAPACK       :  OpenBLAS 0.3.15  USE64BITINT DYNAMIC_ARCH NO_AFFINITY Haswell SINGLE_THREADED
        Core in use  :  Haswell
   Copyright (c) 2011-2014, The OpenBLAS Project


Your calculation utilizes the atom-pairwise dispersion correction
with the zero-damping scheme (D30)
Cite in your paper:
S.Grimme, J.Antony, S.Ehrlich and H.Krieg, J.Chem.Phys., 132, (2010), 154104 
   

XCFun DFT library Copyright 2009-2010 Ulf Ekstrom and contributors.
See http://admol.org/xcfun for more information.
This is free software; see the source code for copying conditions.
There is ABSOLUTELY NO WARRANTY; not even for MERCHANTABILITY or FITNESS FOR A PARTICULAR PURPOSE.
For details see the documentation.
Scientific users of this library should cite U. Ekstrom, L. Visscher, R. Bast, A. J. Thorvaldsen and K. Ruud;
J.Chem.Theor.Comp. 2010, DOI: 10.1021/ct100117s
XCFun Version 0.99 

================================================================================

----- Orbital basis set information -----
Your calculation utilizes the basis: def2-SVP
   F. Weigend and R. Ahlrichs, Phys. Chem. Chem. Phys. 7, 3297 (2005).

----- AuxJ basis set information -----
Your calculation utilizes the auxiliary basis: def2/J
   F. Weigend, Phys. Chem. Chem. Phys. 8, 1057 (2006).

================================================================================
                                        WARNINGS
                       Please study these warnings very carefully!
================================================================================


INFO   : the flag for use of the SHARK integral package has been found!

================================================================================
                                       INPUT FILE
================================================================================
NAME = C3_neg.com
|  1> !wB97X-D3 RIJCOSX def2-SVP def2/J TightSCF 
|  2> *xyz 0 1
|  3> C          1.36401        0.46874       -2.81376
|  4> C          0.96805        1.63064       -3.71575
|  5> C         -0.50835        1.72268       -4.12430
|  6> S         -1.32861        0.14674       -4.43578
|  7> H         -0.59151        2.29496       -5.04722
|  8> H         -1.11411        2.23561       -3.37436
|  9> O         -2.57135        0.47573       -5.06834
| 10> O         -1.51496       -0.40051       -3.06342
| 11> H          1.57869        1.52065       -4.61273
| 12> H          1.26665        2.57599       -3.25045
| 13> F         -0.37793       -0.62756       -5.20114
| 14> H          1.07115       -0.45339       -3.27071
| 15> H          0.87480        0.56905       -1.86745
| 16> H          2.42423        0.47442       -2.66954
| 17> *
| 18> %MaxCore 64000
| 19> 
| 20> %pal nprocs 18
| 21> end  
| 22> 
| 23> %scf
| 24>   MaxIter 150
| 25> end
| 26> 
| 27> 
| 28>                          ****END OF INPUT****
================================================================================

                       ****************************
                       * Single Point Calculation *
                       ****************************

---------------------------------
CARTESIAN COORDINATES (ANGSTROEM)
---------------------------------
  C      1.364010    0.468740   -2.813760
  C      0.968050    1.630640   -3.715750
  C     -0.508350    1.722680   -4.124300
  S     -1.328610    0.146740   -4.435780
  H     -0.591510    2.294960   -5.047220
  H     -1.114110    2.235610   -3.374360
  O     -2.571350    0.475730   -5.068340
  O     -1.514960   -0.400510   -3.063420
  H      1.578690    1.520650   -4.612730
  H      1.266650    2.575990   -3.250450
  F     -0.377930   -0.627560   -5.201140
  H      1.071150   -0.453390   -3.270710
  H      0.874800    0.569050   -1.867450
  H      2.424230    0.474420   -2.669540

----------------------------
CARTESIAN COORDINATES (A.U.)
----------------------------
  NO LB      ZA    FRAG     MASS         X           Y           Z
   0 C     6.0000    0    12.011    2.577605    0.885790   -5.317236
   1 C     6.0000    0    12.011    1.829349    3.081463   -7.021750
   2 C     6.0000    0    12.011   -0.960642    3.255393   -7.793797
   3 S    16.0000    0    32.060   -2.510709    0.277298   -8.382409
   4 H     1.0000    0     1.008   -1.117792    4.336846   -9.537864
   5 H     1.0000    0     1.008   -2.105363    4.224691   -6.376616
   6 O     8.0000    0    15.999   -4.859147    0.898999   -9.577775
   7 O     8.0000    0    15.999   -2.862860   -0.756854   -5.789025
   8 H     1.0000    0     1.008    2.983292    2.873612   -8.716796
   9 H     1.0000    0     1.008    2.393622    4.867916   -6.142460
  10 F     9.0000    0    18.998   -0.714184   -1.185917   -9.828730
  11 H     1.0000    0     1.008    2.024180   -0.856783   -6.180746
  12 H     1.0000    0     1.008    1.653132    1.075349   -3.528969
  13 H     1.0000    0     1.008    4.581131    0.896524   -5.044700

--------------------------------
INTERNAL COORDINATES (ANGSTROEM)
--------------------------------
 C      0   0   0     0.000000000000     0.00000000     0.00000000
 C      1   0   0     1.523279978106     0.00000000     0.00000000
 C      2   1   0     1.534647003092   116.96568617     0.00000000
 S      3   2   1     1.803727568565   115.53546249   322.90144051
 H      3   2   1     1.089128693222   109.30283314   203.30991491
 H      3   2   1     1.091994673110   112.27278736    84.70975044
 O      4   3   2     1.432748854929   105.66825675   192.14354175
 O      4   3   2     1.489154409254   102.64124569    74.09180184
 H      2   1   3     1.090665911313   105.33878468   238.76675031
 H      2   1   3     1.095149611925   109.63156545   124.54247218
 F      4   3   2     1.445374997016   105.09290493   316.90648081
 H      1   2   3     1.069997205137   109.47106768    55.45750128
 H      1   2   3     1.069995858076   109.47134320   295.45658927
 H      1   2   3     1.069999121121   109.47074976   175.45731649

---------------------------
INTERNAL COORDINATES (A.U.)
---------------------------
 C      0   0   0     0.000000000000     0.00000000     0.00000000
 C      1   0   0     2.878581983907     0.00000000     0.00000000
 C      2   1   0     2.900062548087   116.96568617     0.00000000
 S      3   2   1     3.408551124791   115.53546249   322.90144051
 H      3   2   1     2.058154954786   109.30283314   203.30991491
 H      3   2   1     2.063570871878   112.27278736    84.70975044
 O      4   3   2     2.707502954505   105.66825675   192.14354175
 O      4   3   2     2.814094004611   102.64124569    74.09180184
 H      2   1   3     2.061059875985   105.33878468   238.76675031
 H      2   1   3     2.069532842209   109.63156545   124.54247218
 F      4   3   2     2.731362905178   105.09290493   316.90648081
 H      1   2   3     2.022001681769   109.47106768    55.45750128
 H      1   2   3     2.021999136194   109.47134320   295.45658927
 H      1   2   3     2.022005302455   109.47074976   175.45731649

---------------------
BASIS SET INFORMATION
---------------------
There are 5 groups of distinct atoms

 Group   1 Type C   : 7s4p1d contracted to 3s2p1d pattern {511/31/1}
 Group   2 Type S   : 10s7p1d contracted to 4s3p1d pattern {5311/511/1}
 Group   3 Type H   : 4s1p contracted to 2s1p pattern {31/1}
 Group   4 Type O   : 7s4p1d contracted to 3s2p1d pattern {511/31/1}
 Group   5 Type F   : 7s4p1d contracted to 3s2p1d pattern {511/31/1}

Atom   0C    basis set group =>   1
Atom   1C    basis set group =>   1
Atom   2C    basis set group =>   1
Atom   3S    basis set group =>   2
Atom   4H    basis set group =>   3
Atom   5H    basis set group =>   3
Atom   6O    basis set group =>   4
Atom   7O    basis set group =>   4
Atom   8H    basis set group =>   3
Atom   9H    basis set group =>   3
Atom  10F    basis set group =>   5
Atom  11H    basis set group =>   3
Atom  12H    basis set group =>   3
Atom  13H    basis set group =>   3
---------------------------------
AUXILIARY/J BASIS SET INFORMATION
---------------------------------
There are 5 groups of distinct atoms

 Group   1 Type C   : 12s5p4d2f1g contracted to 6s4p3d1f1g pattern {711111/2111/211/2/1}
 Group   2 Type S   : 14s5p5d2f1g contracted to 8s4p3d1f1g pattern {71111111/2111/311/2/1}
 Group   3 Type H   : 5s2p1d contracted to 3s1p1d pattern {311/2/1}
 Group   4 Type O   : 12s5p4d2f1g contracted to 6s4p3d1f1g pattern {711111/2111/211/2/1}
 Group   5 Type F   : 12s5p4d2f1g contracted to 6s4p3d1f1g pattern {711111/2111/211/2/1}

Atom   0C    basis set group =>   1
Atom   1C    basis set group =>   1
Atom   2C    basis set group =>   1
Atom   3S    basis set group =>   2
Atom   4H    basis set group =>   3
Atom   5H    basis set group =>   3
Atom   6O    basis set group =>   4
Atom   7O    basis set group =>   4
Atom   8H    basis set group =>   3
Atom   9H    basis set group =>   3
Atom  10F    basis set group =>   5
Atom  11H    basis set group =>   3
Atom  12H    basis set group =>   3
Atom  13H    basis set group =>   3


           ************************************************************
           *        Program running with 18 parallel MPI-processes    *
           *              working on a common directory               *
           ************************************************************
------------------------------------------------------------------------------
                           ORCA GTO INTEGRAL CALCULATION
                           -- RI-GTO INTEGRALS CHOSEN --
------------------------------------------------------------------------------
------------------------------------------------------------------------------
                   ___                                                        
                  /   \      - P O W E R E D   B Y -                         
                 /     \                                                     
                 |  |  |   _    _      __       _____    __    __             
                 |  |  |  | |  | |    /  \     |  _  \  |  |  /  |          
                  \  \/   | |  | |   /    \    | | | |  |  | /  /          
                 / \  \   | |__| |  /  /\  \   | |_| |  |  |/  /          
                |  |  |   |  __  | /  /__\  \  |    /   |      \           
                |  |  |   | |  | | |   __   |  |    \   |  |\   \          
                \     /   | |  | | |  |  |  |  | |\  \  |  | \   \       
                 \___/    |_|  |_| |__|  |__|  |_| \__\ |__|  \__/        
                                                                              
                      - O R C A' S   B I G   F R I E N D -                    
                                      &                                       
                       - I N T E G R A L  F E E D E R -                       
                                                                              
 v1 FN, 2020, v2 2021                                                         
------------------------------------------------------------------------------


Reading SHARK input file C3_neg.SHARKINP.tmp ... ok
----------------------
SHARK INTEGRAL PACKAGE
----------------------

Number of atoms                             ...     14
Number of basis functions                   ...    137
Number of shells                            ...     65
Maximum angular momentum                    ...      2
Integral batch strategy                     ... SHARK/LIBINT Hybrid
RI-J (if used) integral strategy            ... SPLIT-RIJ (Revised 2003 algorithm where possible)
Printlevel                                  ...      1
Contraction scheme used                     ... SEGMENTED contraction
Coulomb Range Separation                    ... NOT USED
Exchange Range Separation                   ... Long Range
   Mu parameter                             ...  0.250000
   Scaling (regular/separated)              ...  0.195728  0.804272
Finite Nucleus Model                        ... NOT USED
Auxiliary Coulomb fitting basis             ... AVAILABLE
   # of basis functions in Aux-J            ...    422
   # of shells in Aux-J                     ...    142
   Maximum angular momentum in Aux-J        ...      4
Auxiliary J/K fitting basis                 ... NOT available
Auxiliary Correlation fitting basis         ... NOT available
Auxiliary 'external' fitting basis          ... NOT available
Integral threshold                          ...     2.500000e-11
Primitive cut-off                           ...     2.500000e-12
Primitive pair pre-selection threshold      ...     2.500000e-12

Calculating pre-screening integrals         ... done (  0.0 sec) Dimension = 65
Organizing shell pair data                  ... done (  0.0 sec)
Shell pair information
Total number of shell pairs                 ...      2145
Shell pairs after pre-screening             ...      2058
Total number of primitive shell pairs       ...      7997
Primitive shell pairs kept                  ...      5698
          la=0 lb=0:    632 shell pairs
          la=1 lb=0:    758 shell pairs
          la=1 lb=1:    247 shell pairs
          la=2 lb=0:    244 shell pairs
          la=2 lb=1:    150 shell pairs
          la=2 lb=2:     27 shell pairs

Calculating one electron integrals          ... done (  0.0 sec)
Calculating RI/J V-Matrix + Cholesky decomp.... done (  0.0 sec)
Calculating Nuclear repulsion               ... done (  0.0 sec) ENN=    452.385865372396 Eh

SHARK setup successfully completed in   0.2 seconds

Maximum memory used throughout the entire GTOINT-calculation: 8.9 MB


           ************************************************************
           *        Program running with 18 parallel MPI-processes    *
           *              working on a common directory               *
           ************************************************************
-------------------------------------------------------------------------------
                                 ORCA SCF
-------------------------------------------------------------------------------

------------
SCF SETTINGS
------------
Hamiltonian:
 Density Functional     Method          .... DFT(GTOs)
 Exchange Functional    Exchange        .... WB97X-D3
 Correlation Functional Correlation     .... WB97X-D3
 Gradients option       PostSCFGGA      .... off
 Hybrid DFT is turned on
   Fraction HF Exchange ScalHFX         ....  0.195728
   Scaling of DF-GGA-X  ScalDFX         ....  0.000000
   Scaling of DF-GGA-C  ScalDFC         ....  1.000000
   Scaling of DF-LDA-C  ScalLDAC        ....  1.000000
   Perturbative correction              ....  0.000000
   Density functional embedding theory  .... OFF
 Long-range corrected/Screened/Range-Separated Hybrid DFT is turned on
   Amount of maximum screened exact exchange              ....  0.804272
   Range separation parameter mu (erf(mu*r12)/r12)        ....  0.250000
 RI-approximation to the Coulomb term is turned on
   Number of AuxJ basis functions       .... 422
   RIJ-COSX (HFX calculated with COS-X)).... on


General Settings:
 Integral files         IntName         .... C3_neg
 Hartree-Fock type      HFTyp           .... RHF
 Total Charge           Charge          ....    0
 Multiplicity           Mult            ....    1
 Number of Electrons    NEL             ....   66
 Basis Dimension        Dim             ....  137
 Nuclear Repulsion      ENuc            ....    452.3858653724 Eh

Convergence Acceleration:
 DIIS                   CNVDIIS         .... on
   Start iteration      DIISMaxIt       ....    12
   Startup error        DIISStart       ....  0.200000
   # of expansion vecs  DIISMaxEq       ....     5
   Bias factor          DIISBfac        ....   1.050
   Max. coefficient     DIISMaxC        ....  10.000
 Trust-Rad. Augm. Hess. CNVTRAH         .... auto
   Auto Start mean grad. ratio tolernc. ....  1.125000
   Auto Start start iteration           ....    20
   Auto Start num. interpolation iter.  ....    10
   Max. Number of Micro iterations      ....    16
   Max. Number of Macro iterations      .... Maxiter - #DIIS iter
   Number of Davidson start vectors     ....     2
   Converg. threshold I  (grad. norm)   ....   1.000e-05
   Converg. threshold II (energy diff.) ....   1.000e-08
   Grad. Scal. Fac. for Micro threshold ....   0.100
   Minimum threshold for Micro iter.    ....   0.010
   NR start threshold (gradient norm)   ....   0.001
   Initial trust radius                 ....   0.400
   Minimum AH scaling param. (alpha)    ....   1.000
   Maximum AH scaling param. (alpha)    .... 1000.000
   Orbital update algorithm             .... Taylor
   White noise on init. David. guess    .... on
   Maximum white noise                  ....   0.010
   Quad. conv. algorithm                .... NR
 SOSCF                  CNVSOSCF        .... on
   Start iteration      SOSCFMaxIt      ....   150
   Startup grad/error   SOSCFStart      ....  0.003300
 Level Shifting         CNVShift        .... on
   Level shift para.    LevelShift      ....    0.2500
   Turn off err/grad.   ShiftErr        ....    0.0010
 Zerner damping         CNVZerner       .... off
 Static damping         CNVDamp         .... on
   Fraction old density DampFac         ....    0.7000
   Max. Damping (<1)    DampMax         ....    0.9800
   Min. Damping (>=0)   DampMin         ....    0.0000
   Turn off err/grad.   DampErr         ....    0.1000
 Fernandez-Rico         CNVRico         .... off

SCF Procedure:
 Maximum # iterations   MaxIter         ....   150
 SCF integral mode      SCFMode         .... Direct
   Integral package                     .... SHARK and LIBINT hybrid scheme
 Reset frequency        DirectResetFreq ....    20
 Integral Threshold     Thresh          ....  2.500e-11 Eh
 Primitive CutOff       TCut            ....  2.500e-12 Eh

Convergence Tolerance:
 Convergence Check Mode ConvCheckMode   .... Total+1el-Energy
 Convergence forced     ConvForced      .... 0
 Energy Change          TolE            ....  1.000e-08 Eh
 1-El. energy change                    ....  1.000e-05 Eh
 Orbital Gradient       TolG            ....  1.000e-05
 Orbital Rotation angle TolX            ....  1.000e-05
 DIIS Error             TolErr          ....  5.000e-07


Diagonalization of the overlap matrix:
Smallest eigenvalue                        ... 2.168e-03
Time for diagonalization                   ...    0.005 sec
Threshold for overlap eigenvalues          ... 1.000e-08
Number of eigenvalues below threshold      ... 0
Time for construction of square roots      ...    0.011 sec
Total time needed                          ...    0.017 sec

Time for model grid setup =    0.053 sec

------------------------------
INITIAL GUESS: MODEL POTENTIAL
------------------------------
Loading Hartree-Fock densities                     ... done
Calculating cut-offs                               ... done
Initializing the effective Hamiltonian             ... done
Setting up the integral package (SHARK)            ... done
Starting the Coulomb interaction                   ... done (   0.0 sec)
Reading the grid                                   ... done
Mapping shells                                     ... done
Starting the XC term evaluation                    ... done (   0.0 sec)
  promolecular density results
     # of electrons  =     65.993091953
     EX              =    -68.766644544
     EC              =     -2.329374183
     EX+EC           =    -71.096018727
Transforming the Hamiltonian                       ... done (   0.0 sec)
Diagonalizing the Hamiltonian                      ... done (   0.0 sec)
Back transforming the eigenvectors                 ... done (   0.0 sec)
Now organizing SCF variables                       ... done
                      ------------------
                      INITIAL GUESS DONE (   0.1 sec)
                      ------------------
-------------------
DFT GRID GENERATION
-------------------

General Integration Accuracy     IntAcc      ... 4.388
Radial Grid Type                 RadialGrid  ... OptM3 with GC (2021)
Angular Grid (max. ang.)         AngularGrid ... 4 (Lebedev-302)
Angular grid pruning method      GridPruning ... 4 (adaptive)
Weight generation scheme         WeightScheme... Becke
Basis function cutoff            BFCut       ... 1.0000e-11
Integration weight cutoff        WCut        ... 1.0000e-14
Angular grids for H and He will be reduced by one unit
Partially contracted basis set               ... off
Rotationally invariant grid construction     ... off

Total number of grid points                  ...    66152
Total number of batches                      ...     1041
Average number of points per batch           ...       63
Average number of grid points per atom       ...     4725
Time for grid setup =    0.352 sec

--------------------
COSX GRID GENERATION
--------------------

GRIDX 1
-------
General Integration Accuracy     IntAcc      ... 3.816
Radial Grid Type                 RadialGrid  ... OptM3 with GC (2021)
Angular Grid (max. ang.)         AngularGrid ... 1 (Lebedev-50)
Angular grid pruning method      GridPruning ... 4 (adaptive)
Weight generation scheme         WeightScheme... Becke
Basis function cutoff            BFCut       ... 1.0000e-11
Integration weight cutoff        WCut        ... 1.0000e-14
Angular grids for H and He will be reduced by one unit
Partially contracted basis set               ... on
Rotationally invariant grid construction     ... off

Total number of grid points                  ...     8370
Total number of batches                      ...      140
Average number of points per batch           ...       59
Average number of grid points per atom       ...      598
UseSFitting                                  ... on

GRIDX 2
-------
General Integration Accuracy     IntAcc      ... 4.020
Radial Grid Type                 RadialGrid  ... OptM3 with GC (2021)
Angular Grid (max. ang.)         AngularGrid ... 2 (Lebedev-110)
Angular grid pruning method      GridPruning ... 4 (adaptive)
Weight generation scheme         WeightScheme... Becke
Basis function cutoff            BFCut       ... 1.0000e-11
Integration weight cutoff        WCut        ... 1.0000e-14
Angular grids for H and He will be reduced by one unit
Partially contracted basis set               ... on
Rotationally invariant grid construction     ... off

Total number of grid points                  ...    18203
Total number of batches                      ...      293
Average number of points per batch           ...       62
Average number of grid points per atom       ...     1300
UseSFitting                                  ... on

GRIDX 3
-------
General Integration Accuracy     IntAcc      ... 4.338
Radial Grid Type                 RadialGrid  ... OptM3 with GC (2021)
Angular Grid (max. ang.)         AngularGrid ... 3 (Lebedev-194)
Angular grid pruning method      GridPruning ... 4 (adaptive)
Weight generation scheme         WeightScheme... Becke
Basis function cutoff            BFCut       ... 1.0000e-11
Integration weight cutoff        WCut        ... 1.0000e-14
Angular grids for H and He will be reduced by one unit
Partially contracted basis set               ... on
Rotationally invariant grid construction     ... off

Total number of grid points                  ...    40541
Total number of batches                      ...      640
Average number of points per batch           ...       63
Average number of grid points per atom       ...     2896
UseSFitting                                  ... on

Time for X-Grid setup             =    0.235 sec

--------------
SCF ITERATIONS
--------------
ITER       Energy         Delta-E        Max-DP      RMS-DP      [F,P]     Damp
               ***  Starting incremental Fock matrix formation  ***
  0   -766.0395836804   0.000000000000 0.17651701  0.00354940  0.2887266 0.7000
  1   -766.2043416221  -0.164757941718 0.09694557  0.00222244  0.1253267 0.7000
                               ***Turning on DIIS***
  2   -766.2715165684  -0.067174946279 0.09542400  0.00331948  0.0509926 0.0000
  3   -766.3841577169  -0.112641148447 0.08750454  0.00163335  0.0643399 0.0000
  4   -766.4035016122  -0.019343895302 0.01013378  0.00029691  0.0098988 0.0000
                      *** Initiating the SOSCF procedure ***
                           *** Shutting down DIIS ***
                      *** Re-Reading the Fockian *** 
                      *** Removing any level shift *** 
ITER      Energy       Delta-E        Grad      Rot      Max-DP    RMS-DP
  5   -766.40409797  -0.0005963576  0.000599  0.000599  0.002356  0.000078
               *** Restarting incremental Fock matrix formation ***
  6   -766.40411175  -0.0000137784  0.000235  0.000409  0.000987  0.000047
  7   -766.40411585  -0.0000040993  0.000182  0.000353  0.000557  0.000028
  8   -766.40411718  -0.0000013290  0.000048  0.000056  0.000328  0.000008
  9   -766.40411731  -0.0000001298  0.000022  0.000021  0.000137  0.000003
 10   -766.40411734  -0.0000000315  0.000014  0.000013  0.000036  0.000002
 11   -766.40411734  -0.0000000058  0.000004  0.000004  0.000023  0.000000
                  ***Gradient check signals convergence***
              ***Rediagonalizing the Fockian in SOSCF/NRSCF***

               *****************************************************
               *                     SUCCESS                       *
               *           SCF CONVERGED AFTER  12 CYCLES          *
               *****************************************************

Old exchange energy                            =    -20.794648548 Eh
New exchange energy                            =    -20.794685045 Eh
Exchange energy change after final integration =     -0.000036497 Eh
Total energy after final integration           =   -766.404153838 Eh
Final COS-X integration done in                =     0.765 sec

----------------
TOTAL SCF ENERGY
----------------

Total Energy       :         -766.40415384 Eh          -20854.91727 eV

Components:
Nuclear Repulsion  :          452.38586537 Eh           12310.04523 eV
Electronic Energy  :        -1218.79001921 Eh          -33164.96250 eV
One Electron Energy:        -1951.31030428 Eh          -53097.85282 eV
Two Electron Energy:          732.52028507 Eh           19932.89033 eV
Max COSX asymmetry :            0.00000481 Eh               0.00013 eV

Virial components:
Potential Energy   :        -1529.17603111 Eh          -41610.99527 eV
Kinetic Energy     :          762.77187727 Eh           20756.07800 eV
Virial Ratio       :            2.00476194


DFT components:
N(Alpha)           :       33.000020736463 electrons
N(Beta)            :       33.000020736463 electrons
N(Total)           :       66.000041472926 electrons
E(XC)              :      -51.516555370069 Eh       
DFET-embed. en.    :        0.000000000000 Eh       

---------------
SCF CONVERGENCE
---------------

  Last Energy change         ...    2.1431e-09  Tolerance :   1.0000e-08
  Last MAX-Density change    ...    3.9968e-15  Tolerance :   1.0000e-07
  Last RMS-Density change    ...    6.7568e-17  Tolerance :   5.0000e-09
  Last Orbital Gradient      ...    2.1439e-06  Tolerance :   1.0000e-05
  Last Orbital Rotation      ...    1.8117e-06  Tolerance :   1.0000e-05

             **** THE GBW FILE WAS UPDATED (C3_neg.gbw) ****
             **** DENSITY C3_neg.scfp WAS UPDATED ****
             **** ENERGY FILE WAS UPDATED (C3_neg.en.tmp) ****
             **** THE GBW FILE WAS UPDATED (C3_neg.gbw) ****
             **** DENSITY C3_neg.scfp WAS UPDATED ****
----------------
ORBITAL ENERGIES
----------------

  NO   OCC          E(Eh)            E(eV) 
   0   2.0000     -89.213837     -2427.6319 
   1   2.0000     -24.909210      -677.8141 
   2   2.0000     -19.248157      -523.7690 
   3   2.0000     -19.227118      -523.1965 
   4   2.0000     -10.343167      -281.4519 
   5   2.0000     -10.317856      -280.7631 
   6   2.0000     -10.285589      -279.8851 
   7   2.0000      -8.296750      -225.7661 
   8   2.0000      -6.260022      -170.3438 
   9   2.0000      -6.253110      -170.1558 
  10   2.0000      -6.252078      -170.1277 
  11   2.0000      -1.488048       -40.4918 
  12   2.0000      -1.220633       -33.2151 
  13   2.0000      -1.108537       -30.1648 
  14   2.0000      -0.942872       -25.6568 
  15   2.0000      -0.861093       -23.4315 
  16   2.0000      -0.816444       -22.2166 
  17   2.0000      -0.743868       -20.2417 
  18   2.0000      -0.692923       -18.8554 
  19   2.0000      -0.690014       -18.7762 
  20   2.0000      -0.640701       -17.4344 
  21   2.0000      -0.595982       -16.2175 
  22   2.0000      -0.579036       -15.7564 
  23   2.0000      -0.561055       -15.2671 
  24   2.0000      -0.538990       -14.6667 
  25   2.0000      -0.524804       -14.2806 
  26   2.0000      -0.483157       -13.1474 
  27   2.0000      -0.478520       -13.0212 
  28   2.0000      -0.471862       -12.8400 
  29   2.0000      -0.447366       -12.1735 
  30   2.0000      -0.420209       -11.4345 
  31   2.0000      -0.402547       -10.9539 
  32   2.0000      -0.390522       -10.6266 
  33   0.0000       0.111488         3.0338 
  34   0.0000       0.139134         3.7860 
  35   0.0000       0.155336         4.2269 
  36   0.0000       0.166748         4.5375 
  37   0.0000       0.183265         4.9869 
  38   0.0000       0.186542         5.0761 
  39   0.0000       0.208275         5.6674 
  40   0.0000       0.220066         5.9883 
  41   0.0000       0.228780         6.2254 
  42   0.0000       0.242117         6.5883 
  43   0.0000       0.250308         6.8112 
  44   0.0000       0.299153         8.1404 
  45   0.0000       0.333947         9.0872 
  46   0.0000       0.460961        12.5434 
  47   0.0000       0.483871        13.1668 
  48   0.0000       0.513168        13.9640 
  49   0.0000       0.529728        14.4146 
  50   0.0000       0.535215        14.5640 
  51   0.0000       0.554645        15.0927 
  52   0.0000       0.628580        17.1045 
  53   0.0000       0.640440        17.4272 
  54   0.0000       0.688524        18.7357 
  55   0.0000       0.713969        19.4281 
  56   0.0000       0.717440        19.5225 
  57   0.0000       0.722605        19.6631 
  58   0.0000       0.740469        20.1492 
  59   0.0000       0.753935        20.5156 
  60   0.0000       0.768654        20.9161 
  61   0.0000       0.776575        21.1317 
  62   0.0000       0.781261        21.2592 
  63   0.0000       0.798182        21.7196 
  64   0.0000       0.806256        21.9394 
  65   0.0000       0.813187        22.1279 
  66   0.0000       0.823181        22.3999 
  67   0.0000       0.870857        23.6972 
  68   0.0000       0.925008        25.1708 
  69   0.0000       0.946592        25.7581 
  70   0.0000       0.969682        26.3864 
  71   0.0000       1.012730        27.5578 
  72   0.0000       1.065599        28.9964 
  73   0.0000       1.078541        29.3486 
  74   0.0000       1.112651        30.2768 
  75   0.0000       1.143579        31.1184 
  76   0.0000       1.167961        31.7818 
  77   0.0000       1.207733        32.8641 
  78   0.0000       1.228682        33.4341 
  79   0.0000       1.233560        33.5669 
  80   0.0000       1.264730        34.4151 
  81   0.0000       1.306371        35.5481 
  82   0.0000       1.368270        37.2325 
  83   0.0000       1.381684        37.5975 
  84   0.0000       1.409215        38.3467 
  85   0.0000       1.434242        39.0277 
  86   0.0000       1.456763        39.6405 
  87   0.0000       1.510234        41.0956 
  88   0.0000       1.604319        43.6557 
  89   0.0000       1.619326        44.0641 
  90   0.0000       1.690014        45.9876 
  91   0.0000       1.747657        47.5562 
  92   0.0000       1.810117        49.2558 
  93   0.0000       1.831408        49.8351 
  94   0.0000       1.859574        50.6016 
  95   0.0000       1.872477        50.9527 
  96   0.0000       1.894200        51.5438 
  97   0.0000       1.902500        51.7697 
  98   0.0000       1.943562        52.8870 
  99   0.0000       1.964218        53.4491 
 100   0.0000       1.970516        53.6205 
 101   0.0000       1.994333        54.2685 
 102   0.0000       2.013166        54.7810 
 103   0.0000       2.065627        56.2086 
 104   0.0000       2.089921        56.8696 
 105   0.0000       2.183661        59.4204 
 106   0.0000       2.259825        61.4930 
 107   0.0000       2.302454        62.6530 
 108   0.0000       2.411878        65.6305 
 109   0.0000       2.445440        66.5438 
 110   0.0000       2.500910        68.0532 
 111   0.0000       2.520184        68.5777 
 112   0.0000       2.659287        72.3629 
 113   0.0000       2.699137        73.4473 
 114   0.0000       2.710367        73.7528 
 115   0.0000       2.716743        73.9263 
 116   0.0000       2.721373        74.0523 
 117   0.0000       2.737935        74.5030 
 118   0.0000       2.755685        74.9860 
 119   0.0000       2.771869        75.4264 
 120   0.0000       2.825170        76.8768 
 121   0.0000       2.867353        78.0246 
 122   0.0000       2.898125        78.8620 
 123   0.0000       2.956029        80.4376 
 124   0.0000       3.016773        82.0906 
 125   0.0000       3.029576        82.4389 
 126   0.0000       3.038249        82.6750 
 127   0.0000       3.051976        83.0485 
 128   0.0000       3.075482        83.6881 
 129   0.0000       3.105712        84.5107 
 130   0.0000       3.130876        85.1955 
 131   0.0000       3.171269        86.2946 
 132   0.0000       3.239305        88.1460 
 133   0.0000       3.299936        89.7958 
 134   0.0000       3.350390        91.1687 
 135   0.0000       3.537941        96.2723 
 136   0.0000       3.762457       102.3817 

                    ********************************
                    * MULLIKEN POPULATION ANALYSIS *
                    ********************************

-----------------------
MULLIKEN ATOMIC CHARGES
-----------------------
   0 C :   -0.023711
   1 C :   -0.130093
   2 C :   -0.103206
   3 S :    0.940126
   4 H :    0.081291
   5 H :    0.109039
   6 O :   -0.422189
   7 O :   -0.488260
   8 H :    0.041509
   9 H :    0.054083
  10 F :   -0.176146
  11 H :    0.032640
  12 H :    0.050341
  13 H :    0.034574
Sum of atomic charges:    0.0000000

--------------------------------
MULLIKEN REDUCED ORBITAL CHARGES
--------------------------------
  0 C s       :     2.986480  s :     2.986480
      pz      :     1.009929  p :     3.008078
      px      :     1.019224
      py      :     0.978925
      dz2     :     0.006575  d :     0.029153
      dxz     :     0.004563
      dyz     :     0.006539
      dx2y2   :     0.008799
      dxy     :     0.002677
  1 C s       :     3.068603  s :     3.068603
      pz      :     1.031732  p :     3.024728
      px      :     0.943081
      py      :     1.049916
      dz2     :     0.006337  d :     0.036761
      dxz     :     0.009110
      dyz     :     0.006314
      dx2y2   :     0.010028
      dxy     :     0.004972
  2 C s       :     3.075690  s :     3.075690
      pz      :     1.076217  p :     2.993847
      px      :     1.010458
      py      :     0.907172
      dz2     :     0.005569  d :     0.033668
      dxz     :     0.007086
      dyz     :     0.006206
      dx2y2   :     0.006661
      dxy     :     0.008146
  3 S s       :     5.315982  s :     5.315982
      pz      :     2.929179  p :     8.914248
      px      :     2.938051
      py      :     3.047018
      dz2     :     0.183025  d :     0.829645
      dxz     :     0.192084
      dyz     :     0.142568
      dx2y2   :     0.123212
      dxy     :     0.188756
  4 H s       :     0.895622  s :     0.895622
      pz      :     0.012149  p :     0.023087
      px      :     0.004008
      py      :     0.006930
  5 H s       :     0.868000  s :     0.868000
      pz      :     0.010072  p :     0.022961
      px      :     0.006891
      py      :     0.005998
  6 O s       :     3.832113  s :     3.832113
      pz      :     1.621237  p :     4.570486
      px      :     1.321560
      py      :     1.627689
      dz2     :     0.002920  d :     0.019589
      dxz     :     0.005569
      dyz     :     0.001259
      dx2y2   :     0.004932
      dxy     :     0.004909
  7 O s       :     3.862581  s :     3.862581
      pz      :     1.251413  p :     4.608605
      px      :     1.690157
      py      :     1.667035
      dz2     :     0.006683  d :     0.017074
      dxz     :     0.003945
      dyz     :     0.004926
      dx2y2   :     0.000785
      dxy     :     0.000734
  8 H s       :     0.935874  s :     0.935874
      pz      :     0.010957  p :     0.022616
      px      :     0.006947
      py      :     0.004713
  9 H s       :     0.923408  s :     0.923408
      pz      :     0.006454  p :     0.022510
      px      :     0.004625
      py      :     0.011431
 10 F s       :     3.900099  s :     3.900099
      pz      :     1.779985  p :     5.264040
      px      :     1.706785
      py      :     1.777270
      dz2     :     0.001810  d :     0.012007
      dxz     :     0.002847
      dyz     :     0.002181
      dx2y2   :     0.002242
      dxy     :     0.002927
 11 H s       :     0.941783  s :     0.941783
      pz      :     0.006604  p :     0.025577
      px      :     0.006388
      py      :     0.012585
 12 H s       :     0.925082  s :     0.925082
      pz      :     0.012560  p :     0.024576
      px      :     0.007337
      py      :     0.004679
 13 H s       :     0.940697  s :     0.940697
      pz      :     0.005214  p :     0.024729
      px      :     0.014725
      py      :     0.004791


                     *******************************
                     * LOEWDIN POPULATION ANALYSIS *
                     *******************************

----------------------
LOEWDIN ATOMIC CHARGES
----------------------
   0 C :   -0.060106
   1 C :   -0.058822
   2 C :   -0.148473
   3 S :    1.162423
   4 H :    0.036303
   5 H :    0.054414
   6 O :   -0.470844
   7 O :   -0.530032
   8 H :    0.026390
   9 H :    0.037392
  10 F :   -0.117400
  11 H :    0.012015
  12 H :    0.029750
  13 H :    0.026990

-------------------------------
LOEWDIN REDUCED ORBITAL CHARGES
-------------------------------
  0 C s       :     2.815753  s :     2.815753
      pz      :     1.059710  p :     3.168998
      px      :     1.072653
      py      :     1.036634
      dz2     :     0.015705  d :     0.075355
      dxz     :     0.011751
      dyz     :     0.018118
      dx2y2   :     0.022906
      dxy     :     0.006876
  1 C s       :     2.833077  s :     2.833077
      pz      :     1.065406  p :     3.135965
      px      :     1.005392
      py      :     1.065167
      dz2     :     0.013817  d :     0.089780
      dxz     :     0.022217
      dyz     :     0.016856
      dx2y2   :     0.026050
      dxy     :     0.010840
  2 C s       :     2.899087  s :     2.899087
      pz      :     1.102699  p :     3.168872
      px      :     1.064729
      py      :     1.001444
      dz2     :     0.013569  d :     0.080515
      dxz     :     0.015689
      dyz     :     0.015672
      dx2y2   :     0.017167
      dxy     :     0.018418
  3 S s       :     5.030804  s :     5.030804
      pz      :     2.887121  p :     8.729862
      px      :     2.895758
      py      :     2.946982
      dz2     :     0.236060  d :     1.076911
      dxz     :     0.250571
      dyz     :     0.182640
      dx2y2   :     0.158300
      dxy     :     0.249341
  4 H s       :     0.891046  s :     0.891046
      pz      :     0.034559  p :     0.072651
      px      :     0.014115
      py      :     0.023976
  5 H s       :     0.873865  s :     0.873865
      pz      :     0.028950  p :     0.071721
      px      :     0.022204
      py      :     0.020566
  6 O s       :     3.671338  s :     3.671338
      pz      :     1.661233  p :     4.768269
      px      :     1.457370
      py      :     1.649666
      dz2     :     0.003997  d :     0.031238
      dxz     :     0.009814
      dyz     :     0.001813
      dx2y2   :     0.008858
      dxy     :     0.006756
  7 O s       :     3.707908  s :     3.707908
      pz      :     1.389665  p :     4.794966
      px      :     1.713494
      py      :     1.691806
      dz2     :     0.012157  d :     0.027158
      dxz     :     0.005145
      dyz     :     0.007982
      dx2y2   :     0.000941
      dxy     :     0.000934
  8 H s       :     0.905868  s :     0.905868
      pz      :     0.031564  p :     0.067742
      px      :     0.021608
      py      :     0.014570
  9 H s       :     0.895732  s :     0.895732
      pz      :     0.018733  p :     0.066876
      px      :     0.014516
      py      :     0.033627
 10 F s       :     3.760518  s :     3.760518
      pz      :     1.802843  p :     5.338766
      px      :     1.741047
      py      :     1.794876
      dz2     :     0.002320  d :     0.018116
      dxz     :     0.004795
      dyz     :     0.003454
      dx2y2   :     0.002712
      dxy     :     0.004836
 11 H s       :     0.915918  s :     0.915918
      pz      :     0.019180  p :     0.072067
      px      :     0.016986
      py      :     0.035901
 12 H s       :     0.899889  s :     0.899889
      pz      :     0.036128  p :     0.070360
      px      :     0.020002
      py      :     0.014230
 13 H s       :     0.903398  s :     0.903398
      pz      :     0.014849  p :     0.069613
      px      :     0.040534
      py      :     0.014230


                      *****************************
                      * MAYER POPULATION ANALYSIS *
                      *****************************

  NA   - Mulliken gross atomic population
  ZA   - Total nuclear charge
  QA   - Mulliken gross atomic charge
  VA   - Mayer's total valence
  BVA  - Mayer's bonded valence
  FA   - Mayer's free valence

  ATOM       NA         ZA         QA         VA         BVA        FA
  0 C      6.0237     6.0000    -0.0237     4.0060     4.0060    -0.0000
  1 C      6.1301     6.0000    -0.1301     4.0746     4.0746    -0.0000
  2 C      6.1032     6.0000    -0.1032     3.9360     3.9360     0.0000
  3 S     15.0599    16.0000     0.9401     5.5168     5.5168     0.0000
  4 H      0.9187     1.0000     0.0813     0.9873     0.9873     0.0000
  5 H      0.8910     1.0000     0.1090     0.9917     0.9917     0.0000
  6 O      8.4222     8.0000    -0.4222     1.9885     1.9885     0.0000
  7 O      8.4883     8.0000    -0.4883     1.9060     1.9060     0.0000
  8 H      0.9585     1.0000     0.0415     0.9749     0.9749     0.0000
  9 H      0.9459     1.0000     0.0541     0.9787     0.9787     0.0000
 10 F      9.1761     9.0000    -0.1761     1.1390     1.1390    -0.0000
 11 H      0.9674     1.0000     0.0326     1.0170     1.0170    -0.0000
 12 H      0.9497     1.0000     0.0503     0.9953     0.9953     0.0000
 13 H      0.9654     1.0000     0.0346     0.9889     0.9889     0.0000

  Mayer bond orders larger than 0.100000
B(  0-C ,  1-C ) :   1.0908 B(  0-C , 11-H ) :   0.9613 B(  0-C , 12-H ) :   0.9757 
B(  0-C , 13-H ) :   0.9689 B(  1-C ,  2-C ) :   1.0242 B(  1-C ,  8-H ) :   0.9599 
B(  1-C ,  9-H ) :   0.9513 B(  2-C ,  3-S ) :   0.9305 B(  2-C ,  4-H ) :   0.9415 
B(  2-C ,  5-H ) :   0.9357 B(  3-S ,  6-O ) :   1.8064 B(  3-S ,  7-O ) :   1.7044 
B(  3-S , 10-F ) :   1.0080 

-------
TIMINGS
-------

Total SCF time: 0 days 0 hours 0 min 6 sec 

Total time                  ....       6.635 sec
Sum of individual times     ....       6.458 sec  ( 97.3%)

Fock matrix formation       ....       5.674 sec  ( 85.5%)
  Split-RI-J                ....       0.527 sec  (  9.3% of F)
  Chain of spheres X        ....       4.470 sec  ( 78.8% of F)
  XC integration            ....       0.632 sec  ( 11.1% of F)
    Basis function eval.    ....       0.194 sec  ( 30.7% of XC)
    Density eval.           ....       0.100 sec  ( 15.9% of XC)
    XC-Functional eval.     ....       0.078 sec  ( 12.4% of XC)
    XC-Potential eval.      ....       0.088 sec  ( 13.9% of XC)
Diagonalization             ....       0.036 sec  (  0.5%)
Density matrix formation    ....       0.006 sec  (  0.1%)
Population analysis         ....       0.007 sec  (  0.1%)
Initial guess               ....       0.036 sec  (  0.5%)
Orbital Transformation      ....       0.000 sec  (  0.0%)
Orbital Orthonormalization  ....       0.000 sec  (  0.0%)
DIIS solution               ....       0.028 sec  (  0.4%)
SOSCF solution              ....       0.034 sec  (  0.5%)
Grid generation             ....       0.639 sec  (  9.6%)

Maximum memory used throughout the entire SCF-calculation: 50.0 MB


-------------------------------------------------------------------------------
                          DFT DISPERSION CORRECTION                            
                                                                               
                              DFTD3 V3.1  Rev 1                                
                              USING zero damping                               
-------------------------------------------------------------------------------
The omegaB97X-D3 functional is recognized. Fit by Chai et al.
Active option DFTDOPT                   ...         3   

molecular C6(AA) [au] = 2097.104155 


            DFT-D V3
 parameters
 s6 scaling factor         :     1.0000 
 rs6 scaling factor        :     1.2810 
 s8 scaling factor         :     1.0000 
 rs8 scaling factor        :     1.0940 
 Damping factor alpha6     :    14.0000 
 Damping factor alpha8     :    16.0000 
 ad hoc parameters k1-k3   :    16.0000     1.3333    -4.0000 

 Edisp/kcal,au: -2.897053954243  -0.004616748854 
 E6   /kcal   :  -0.998389844 
 E8   /kcal   :  -1.898664110 
 % E8         :  65.537754554 

-------------------------   ----------------
Dispersion correction           -0.004616749
-------------------------   ----------------


-------------------------   --------------------
FINAL SINGLE POINT ENERGY      -766.408770587171
-------------------------   --------------------


                            ***************************************
                            *     ORCA property calculations      *
                            ***************************************

                                    ---------------------
                                    Active property flags
                                    ---------------------
   (+) Dipole Moment


------------------------------------------------------------------------------
                       ORCA ELECTRIC PROPERTIES CALCULATION
------------------------------------------------------------------------------

Dipole Moment Calculation                       ... on
Quadrupole Moment Calculation                   ... off
Polarizability Calculation                      ... off
GBWName                                         ... C3_neg.gbw
Electron density file                           ... C3_neg.scfp
The origin for moment calculation is the CENTER OF MASS  = (-1.313700,  0.736795 -7.840397)

-------------
DIPOLE MOMENT
-------------
                                X             Y             Z
Electronic contribution:     -8.03611      -6.21477      -6.03958
Nuclear contribution   :      9.41919       7.02624       5.62986
                        -----------------------------------------
Total Dipole Moment    :      1.38308       0.81147      -0.40973
                        -----------------------------------------
Magnitude (a.u.)       :      1.65507
Magnitude (Debye)      :      4.20686



--------------------
Rotational spectrum 
--------------------
 
Rotational constants in cm-1:     0.128702     0.057313     0.054552 
Rotational constants in MHz :  3858.395793  1718.208003  1635.420361 

 Dipole components along the rotational axes: 
x,y,z [a.u.] :     1.255207     0.676992    -0.839878 
x,y,z [Debye]:     3.190484     1.720778    -2.134801 

 

Timings for individual modules:

Sum of individual times         ...        7.591 sec (=   0.127 min)
GTO integral calculation        ...        0.585 sec (=   0.010 min)   7.7 %
SCF iterations                  ...        7.006 sec (=   0.117 min)  92.3 %
                             ****ORCA TERMINATED NORMALLY****
TOTAL RUN TIME: 0 days 0 hours 0 minutes 8 seconds 140 msec
