
                                        *****************
                                        * O   R   C   A *
                                        *****************

                                            #,                                       
                                            ###                                      
                                            ####                                     
                                            #####                                    
                                            ######                                   
                                           ########,                                 
                                     ,,################,,,,,                         
                               ,,#################################,,                 
                          ,,##########################################,,             
                       ,#########################################, ''#####,          
                    ,#############################################,,   '####,        
                  ,##################################################,,,,####,       
                ,###########''''           ''''###############################       
              ,#####''   ,,,,##########,,,,          '''####'''          '####       
            ,##' ,,,,###########################,,,                        '##       
           ' ,,###''''                  '''############,,,                           
         ,,##''                                '''############,,,,        ,,,,,,###''
      ,#''                                            '''#######################'''  
     '                                                          ''''####''''         
             ,#######,   #######,   ,#######,      ##                                
            ,#'     '#,  ##    ##  ,#'     '#,    #''#        ######   ,####,        
            ##       ##  ##   ,#'  ##            #'  '#       #        #'  '#        
            ##       ##  #######   ##           ,######,      #####,   #    #        
            '#,     ,#'  ##    ##  '#,     ,#' ,#      #,         ##   #,  ,#        
             '#######'   ##     ##  '#######'  #'      '#     #####' # '####'        



                  #######################################################
                  #                        -***-                        #
                  #          Department of theory and spectroscopy      #
                  #    Directorship and core code : Frank Neese         #
                  #        Max Planck Institute fuer Kohlenforschung    #
                  #                Kaiser Wilhelm Platz 1               #
                  #                 D-45470 Muelheim/Ruhr               #
                  #                      Germany                        #
                  #                                                     #
                  #                  All rights reserved                #
                  #                        -***-                        #
                  #######################################################


                         Program Version 5.0.0 -  RELEASE  -
                                (SVN: $Rev: 19529$)
                ($Date: 2021-06-28 11:36:33 +0200 (Mo, 28 Jun 2021) $)


 With contributions from (in alphabetic order):
   Daniel Aravena         : Magnetic Suceptibility
   Michael Atanasov       : Ab Initio Ligand Field Theory (pilot matlab implementation)
   Alexander A. Auer      : GIAO ZORA, VPT2 properties, NMR spectrum
   Ute Becker             : Parallelization
   Giovanni Bistoni       : ED, misc. LED, open-shell LED, HFLD
   Martin Brehm           : Molecular dynamics
   Dmytro Bykov           : SCF Hessian
   Vijay G. Chilkuri      : MRCI spin determinant printing, contributions to CSF-ICE
   Dipayan Datta          : RHF DLPNO-CCSD density
   Achintya Kumar Dutta   : EOM-CC, STEOM-CC
   Dmitry Ganyushin       : Spin-Orbit,Spin-Spin,Magnetic field MRCI
   Miquel Garcia          : C-PCM Hessian, Gaussian charge scheme
   Yang Guo               : DLPNO-NEVPT2, F12-NEVPT2, CIM, IAO-localization
   Andreas Hansen         : Spin unrestricted coupled pair/coupled cluster methods
   Benjamin Helmich-Paris : MC-RPA, TRAH-SCF, COSX integrals
   Lee Huntington         : MR-EOM, pCC
   Robert Izsak           : Overlap fitted RIJCOSX, COSX-SCS-MP3, EOM
   Marcus Kettner         : VPT2
   Christian Kollmar      : KDIIS, OOCD, Brueckner-CCSD(T), CCSD density, CASPT2, CASPT2-K
   Simone Kossmann        : Meta GGA functionals, TD-DFT gradient, OOMP2, MP2 Hessian
   Martin Krupicka        : Initial AUTO-CI
   Lucas Lang             : DCDCAS
   Marvin Lechner         : AUTO-CI (C++ implementation), FIC-MRCC
   Dagmar Lenk            : GEPOL surface, SMD
   Dimitrios Liakos       : Extrapolation schemes; Compound Job, initial MDCI parallelization
   Dimitrios Manganas     : Further ROCIS development; embedding schemes
   Dimitrios Pantazis     : SARC Basis sets
   Anastasios Papadopoulos: AUTO-CI, single reference methods and gradients
   Taras Petrenko         : DFT Hessian,TD-DFT gradient, ASA, ECA, R-Raman, ABS, FL, XAS/XES, NRVS
   Peter Pinski           : DLPNO-MP2, DLPNO-MP2 Gradient
   Christoph Reimann      : Effective Core Potentials
   Marius Retegan         : Local ZFS, SOC
   Christoph Riplinger    : Optimizer, TS searches, QM/MM, DLPNO-CCSD(T), (RO)-DLPNO pert. Triples
   Tobias Risthaus        : Range-separated hybrids, TD-DFT gradient, RPA, STAB
   Michael Roemelt        : Original ROCIS implementation
   Masaaki Saitow         : Open-shell DLPNO-CCSD energy and density
   Barbara Sandhoefer     : DKH picture change effects
   Avijit Sen             : IP-ROCIS
   Kantharuban Sivalingam : CASSCF convergence, NEVPT2, FIC-MRCI
   Bernardo de Souza      : ESD, SOC TD-DFT
   Georgi Stoychev        : AutoAux, RI-MP2 NMR
   Willem Van den Heuvel  : Paramagnetic NMR
   Boris Wezisla          : Elementary symmetry handling
   Frank Wennmohs         : Technical directorship


 We gratefully acknowledge several colleagues who have allowed us to
 interface, adapt or use parts of their codes:
   Stefan Grimme, W. Hujo, H. Kruse, P. Pracht,  : VdW corrections, initial TS optimization,
                  C. Bannwarth, S. Ehlert          DFT functionals, gCP, sTDA/sTD-DF
   Ed Valeev, F. Pavosevic, A. Kumar             : LibInt (2-el integral package), F12 methods
   Garnet Chan, S. Sharma, J. Yang, R. Olivares  : DMRG
   Ulf Ekstrom                                   : XCFun DFT Library
   Mihaly Kallay                                 : mrcc  (arbitrary order and MRCC methods)
   Jiri Pittner, Ondrej Demel                    : Mk-CCSD
   Frank Weinhold                                : gennbo (NPA and NBO analysis)
   Christopher J. Cramer and Donald G. Truhlar   : smd solvation model
   Lars Goerigk                                  : TD-DFT with DH, B97 family of functionals
   V. Asgeirsson, H. Jonsson                     : NEB implementation
   FAccTs GmbH                                   : IRC, NEB, NEB-TS, DLPNO-Multilevel, CI-OPT
                                                   MM, QMMM, 2- and 3-layer-ONIOM, Crystal-QMMM,
                                                   LR-CPCM, SF, NACMEs, symmetry and pop. for TD-DFT,
                                                   nearIR, NL-DFT gradient (VV10), updates on ESD,
                                                   ML-optimized integration grids
   S Lehtola, MJT Oliveira, MAL Marques          : LibXC Library
   Liviu Ungur et al                             : ANISO software


 Your calculation uses the libint2 library for the computation of 2-el integrals
 For citations please refer to: http://libint.valeyev.net

 Your ORCA version has been built with support for libXC version: 5.1.0
 For citations please refer to: https://tddft.org/programs/libxc/

 This ORCA versions uses:
   CBLAS   interface :  Fast vector & matrix operations
   LAPACKE interface :  Fast linear algebra routines
   SCALAPACK package :  Parallel linear algebra routines
   Shared memory     :  Shared parallel matrices
   BLAS/LAPACK       :  OpenBLAS 0.3.15  USE64BITINT DYNAMIC_ARCH NO_AFFINITY Haswell SINGLE_THREADED
        Core in use  :  Haswell
   Copyright (c) 2011-2014, The OpenBLAS Project


Your calculation utilizes the atom-pairwise dispersion correction
with the zero-damping scheme (D30)
Cite in your paper:
S.Grimme, J.Antony, S.Ehrlich and H.Krieg, J.Chem.Phys., 132, (2010), 154104 
   

XCFun DFT library Copyright 2009-2010 Ulf Ekstrom and contributors.
See http://admol.org/xcfun for more information.
This is free software; see the source code for copying conditions.
There is ABSOLUTELY NO WARRANTY; not even for MERCHANTABILITY or FITNESS FOR A PARTICULAR PURPOSE.
For details see the documentation.
Scientific users of this library should cite U. Ekstrom, L. Visscher, R. Bast, A. J. Thorvaldsen and K. Ruud;
J.Chem.Theor.Comp. 2010, DOI: 10.1021/ct100117s
XCFun Version 0.99 

================================================================================

----- Orbital basis set information -----
Your calculation utilizes the basis: def2-SVPD
   F. Weigend and R. Ahlrichs, Phys. Chem. Chem. Phys. 7, 3297 (2005).
   D. Rappoport and F. Furche, J. Chem. Phys. 133 134105 (2010).

----- AuxJ basis set information -----
Your calculation utilizes the auxiliary basis: def2/J
   F. Weigend, Phys. Chem. Chem. Phys. 8, 1057 (2006).

================================================================================
                                        WARNINGS
                       Please study these warnings very carefully!
================================================================================


WARNING: Minnesota functionals are quite sensitive to the integration grid.
         see SE Wheeler, KN Houk, JCTC 2010, 6, 395,
             N Mardirossian, M Head-Gordon, JCTC 2016, 12, 4303.
         DEFGRID3 seems to be a minimum grid for reliable results with these functionals!
  ===> : Please increase the integration grid!


INFO   : the flag for use of the SHARK integral package has been found!

================================================================================
                                       INPUT FILE
================================================================================
NAME = 18Feb_SVPD_M062X_C1_wt_wb97_typm1_pos.com
|  1> !M062X D3Zero RIJCOSX def2-SVPD def2/J TightSCF 
|  2> *xyz 0 1
|  3> C          3.38093        2.08304       -3.35013
|  4> C          4.53592        1.18245       -3.42852
|  5> C          4.67196        0.12227       -4.22060
|  6> N          5.86602       -0.50785       -4.22428
|  7> N          3.69888       -0.31284       -4.98699
|  8> H          2.73141       -0.05009       -4.84900
|  9> H          3.89005       -1.05517       -5.64373
| 10> H          5.25193        1.30346       -2.72101
| 11> H          6.69516       -0.06232       -3.85160
| 12> H          5.97538       -1.39688       -4.69141
| 13> H          2.69962        1.85926       -4.14426
| 14> H          3.71221        3.09654       -3.43937
| 15> H          2.88835        1.95032       -2.40957
| 16> *
| 17> 
| 18> %MaxCore 64000
| 19> 
| 20> %pal nprocs 8
| 21> end  
| 22> 
| 23> %scf
| 24>   MaxIter 150
| 25> end
| 26> 
| 27> 
| 28>                          ****END OF INPUT****
================================================================================

                       ****************************
                       * Single Point Calculation *
                       ****************************

---------------------------------
CARTESIAN COORDINATES (ANGSTROEM)
---------------------------------
  C      3.380930    2.083040   -3.350130
  C      4.535920    1.182450   -3.428520
  C      4.671960    0.122270   -4.220600
  N      5.866020   -0.507850   -4.224280
  N      3.698880   -0.312840   -4.986990
  H      2.731410   -0.050090   -4.849000
  H      3.890050   -1.055170   -5.643730
  H      5.251930    1.303460   -2.721010
  H      6.695160   -0.062320   -3.851600
  H      5.975380   -1.396880   -4.691410
  H      2.699620    1.859260   -4.144260
  H      3.712210    3.096540   -3.439370
  H      2.888350    1.950320   -2.409570

----------------------------
CARTESIAN COORDINATES (A.U.)
----------------------------
  NO LB      ZA    FRAG     MASS         X           Y           Z
   0 C     6.0000    0    12.011    6.389032    3.936375   -6.330828
   1 C     6.0000    0    12.011    8.571647    2.234507   -6.478964
   2 C     6.0000    0    12.011    8.828725    0.231057   -7.975778
   3 N     7.0000    0    14.007   11.085171   -0.959697   -7.982732
   4 N     7.0000    0    14.007    6.989870   -0.591182   -9.424045
   5 H     1.0000    0     1.008    5.161617   -0.094656   -9.163282
   6 H     1.0000    0     1.008    7.351129   -1.993982  -10.665104
   7 H     1.0000    0     1.008    9.924709    2.463182   -5.141964
   8 H     1.0000    0     1.008   12.652019   -0.117768   -7.278469
   9 H     1.0000    0     1.008   11.291832   -2.639721   -8.865480
  10 H     1.0000    0     1.008    5.101542    3.513492   -7.831516
  11 H     1.0000    0     1.008    7.015060    5.851613   -6.499467
  12 H     1.0000    0     1.008    5.458190    3.685571   -4.553427

--------------------------------
INTERNAL COORDINATES (ANGSTROEM)
--------------------------------
 C      0   0   0     0.000000000000     0.00000000     0.00000000
 C      1   0   0     1.466700119418     0.00000000     0.00000000
 C      2   1   0     1.330368084554   126.98938656     0.00000000
 N      3   2   1     1.350127416357   117.64459308   174.24709975
 N      3   2   1     1.312843871372   122.40398904   354.61462441
 H      5   3   2     1.011966898421   122.88508084   342.67073608
 H      5   3   2     1.009409344815   118.89240317   173.11235798
 H      2   1   3     1.013846211365   116.45877876   188.90566997
 H      4   3   2     1.012353941515   121.19466995   343.47510404
 H      4   3   2     1.010219969809   120.51230720   170.23250373
 H      1   2   3     1.070001524018   109.47108775   351.09458151
 H      1   2   3     1.069996479433   109.47145425   231.09421920
 H      1   2   3     1.070001293644   109.47143333   111.09416317

---------------------------
INTERNAL COORDINATES (A.U.)
---------------------------
 C      0   0   0     0.000000000000     0.00000000     0.00000000
 C      1   0   0     2.771661546289     0.00000000     0.00000000
 C      2   1   0     2.514031337117   126.98938656     0.00000000
 N      3   2   1     2.551371062814   117.64459308   174.24709975
 N      3   2   1     2.480915373491   122.40398904   354.61462441
 H      5   3   2     1.912340294610   122.88508084   342.67073608
 H      5   3   2     1.907507218721   118.89240317   173.11235798
 H      2   1   3     1.915891681394   116.45877876   188.90566997
 H      4   3   2     1.913071700058   121.19466995   343.47510404
 H      4   3   2     1.909039077956   120.51230720   170.23250373
 H      1   2   3     2.022009843272   109.47108775   351.09458151
 H      1   2   3     2.022000310389   109.47145425   231.09421920
 H      1   2   3     2.022009407929   109.47143333   111.09416317

---------------------
BASIS SET INFORMATION
---------------------
There are 3 groups of distinct atoms

 Group   1 Type C   : 8s4p2d contracted to 4s2p2d pattern {5111/31/11}
 Group   2 Type N   : 8s4p2d contracted to 4s2p2d pattern {5111/31/11}
 Group   3 Type H   : 4s2p contracted to 2s2p pattern {31/11}

Atom   0C    basis set group =>   1
Atom   1C    basis set group =>   1
Atom   2C    basis set group =>   1
Atom   3N    basis set group =>   2
Atom   4N    basis set group =>   2
Atom   5H    basis set group =>   3
Atom   6H    basis set group =>   3
Atom   7H    basis set group =>   3
Atom   8H    basis set group =>   3
Atom   9H    basis set group =>   3
Atom  10H    basis set group =>   3
Atom  11H    basis set group =>   3
Atom  12H    basis set group =>   3
---------------------------------
AUXILIARY/J BASIS SET INFORMATION
---------------------------------
There are 3 groups of distinct atoms

 Group   1 Type C   : 12s5p4d2f1g contracted to 6s4p3d1f1g pattern {711111/2111/211/2/1}
 Group   2 Type N   : 12s5p4d2f1g contracted to 6s4p3d1f1g pattern {711111/2111/211/2/1}
 Group   3 Type H   : 5s2p1d contracted to 3s1p1d pattern {311/2/1}

Atom   0C    basis set group =>   1
Atom   1C    basis set group =>   1
Atom   2C    basis set group =>   1
Atom   3N    basis set group =>   2
Atom   4N    basis set group =>   2
Atom   5H    basis set group =>   3
Atom   6H    basis set group =>   3
Atom   7H    basis set group =>   3
Atom   8H    basis set group =>   3
Atom   9H    basis set group =>   3
Atom  10H    basis set group =>   3
Atom  11H    basis set group =>   3
Atom  12H    basis set group =>   3


           ************************************************************
           *        Program running with 8 parallel MPI-processes     *
           *              working on a common directory               *
           ************************************************************
------------------------------------------------------------------------------
                           ORCA GTO INTEGRAL CALCULATION
                           -- RI-GTO INTEGRALS CHOSEN --
------------------------------------------------------------------------------
------------------------------------------------------------------------------
                   ___                                                        
                  /   \      - P O W E R E D   B Y -                         
                 /     \                                                     
                 |  |  |   _    _      __       _____    __    __             
                 |  |  |  | |  | |    /  \     |  _  \  |  |  /  |          
                  \  \/   | |  | |   /    \    | | | |  |  | /  /          
                 / \  \   | |__| |  /  /\  \   | |_| |  |  |/  /          
                |  |  |   |  __  | /  /__\  \  |    /   |      \           
                |  |  |   | |  | | |   __   |  |    \   |  |\   \          
                \     /   | |  | | |  |  |  |  | |\  \  |  | \   \       
                 \___/    |_|  |_| |__|  |__|  |_| \__\ |__|  \__/        
                                                                              
                      - O R C A' S   B I G   F R I E N D -                    
                                      &                                       
                       - I N T E G R A L  F E E D E R -                       
                                                                              
 v1 FN, 2020, v2 2021                                                         
------------------------------------------------------------------------------


Reading SHARK input file 18Feb_SVPD_M062X_C1_wt_wb97_typm1_pos.SHARKINP.tmp ... ok
----------------------
SHARK INTEGRAL PACKAGE
----------------------

Number of atoms                             ...     13
Number of basis functions                   ...    164
Number of shells                            ...     72
Maximum angular momentum                    ...      2
Integral batch strategy                     ... SHARK/LIBINT Hybrid
RI-J (if used) integral strategy            ... SPLIT-RIJ (Revised 2003 algorithm where possible)
Printlevel                                  ...      1
Contraction scheme used                     ... SEGMENTED contraction
Coulomb Range Separation                    ... NOT USED
Exchange Range Separation                   ... NOT USED
Finite Nucleus Model                        ... NOT USED
Auxiliary Coulomb fitting basis             ... AVAILABLE
   # of basis functions in Aux-J            ...    333
   # of shells in Aux-J                     ...    115
   Maximum angular momentum in Aux-J        ...      4
Auxiliary J/K fitting basis                 ... NOT available
Auxiliary Correlation fitting basis         ... NOT available
Auxiliary 'external' fitting basis          ... NOT available
Integral threshold                          ...     2.500000e-11
Primitive cut-off                           ...     2.500000e-12
Primitive pair pre-selection threshold      ...     2.500000e-12

Calculating pre-screening integrals         ... done (  0.0 sec) Dimension = 72
Organizing shell pair data                  ... done (  0.0 sec)
Shell pair information
Total number of shell pairs                 ...      2628
Shell pairs after pre-screening             ...      2604
Total number of primitive shell pairs       ...      7110
Primitive shell pairs kept                  ...      5996
          la=0 lb=0:    657 shell pairs
          la=1 lb=0:    927 shell pairs
          la=1 lb=1:    347 shell pairs
          la=2 lb=0:    358 shell pairs
          la=2 lb=1:    260 shell pairs
          la=2 lb=2:     55 shell pairs

Calculating one electron integrals          ... done (  0.0 sec)
Calculating RI/J V-Matrix + Cholesky decomp.... done (  0.0 sec)
Calculating Nuclear repulsion               ... done (  0.0 sec) ENN=    183.369013360810 Eh

SHARK setup successfully completed in   0.2 seconds

Maximum memory used throughout the entire GTOINT-calculation: 8.9 MB


           ************************************************************
           *        Program running with 8 parallel MPI-processes     *
           *              working on a common directory               *
           ************************************************************
-------------------------------------------------------------------------------
                                 ORCA SCF
-------------------------------------------------------------------------------

------------
SCF SETTINGS
------------
Hamiltonian:
 Density Functional     Method          .... DFT(GTOs)
 Exchange Functional    Exchange        .... M062X
 Correlation Functional Correlation     .... M062X
 Gradients option       PostSCFGGA      .... off
 Hybrid DFT is turned on
   Fraction HF Exchange ScalHFX         ....  0.540000
   Scaling of DF-GGA-X  ScalDFX         ....  0.460000
   Scaling of DF-GGA-C  ScalDFC         ....  1.000000
   Scaling of DF-LDA-C  ScalLDAC        ....  1.000000
   Perturbative correction              ....  0.000000
   Density functional embedding theory  .... OFF
 RI-approximation to the Coulomb term is turned on
   Number of AuxJ basis functions       .... 333
   RIJ-COSX (HFX calculated with COS-X)).... on


General Settings:
 Integral files         IntName         .... 18Feb_SVPD_M062X_C1_wt_wb97_typm1_pos
 Hartree-Fock type      HFTyp           .... RHF
 Total Charge           Charge          ....    0
 Multiplicity           Mult            ....    1
 Number of Electrons    NEL             ....   40
 Basis Dimension        Dim             ....  164
 Nuclear Repulsion      ENuc            ....    183.3690133608 Eh

Convergence Acceleration:
 DIIS                   CNVDIIS         .... on
   Start iteration      DIISMaxIt       ....    12
   Startup error        DIISStart       ....  0.200000
   # of expansion vecs  DIISMaxEq       ....     5
   Bias factor          DIISBfac        ....   1.050
   Max. coefficient     DIISMaxC        ....  10.000
 Trust-Rad. Augm. Hess. CNVTRAH         .... auto
   Auto Start mean grad. ratio tolernc. ....  1.125000
   Auto Start start iteration           ....    20
   Auto Start num. interpolation iter.  ....    10
   Max. Number of Micro iterations      ....    16
   Max. Number of Macro iterations      .... Maxiter - #DIIS iter
   Number of Davidson start vectors     ....     2
   Converg. threshold I  (grad. norm)   ....   1.000e-05
   Converg. threshold II (energy diff.) ....   1.000e-08
   Grad. Scal. Fac. for Micro threshold ....   0.100
   Minimum threshold for Micro iter.    ....   0.010
   NR start threshold (gradient norm)   ....   0.001
   Initial trust radius                 ....   0.400
   Minimum AH scaling param. (alpha)    ....   1.000
   Maximum AH scaling param. (alpha)    .... 1000.000
   Orbital update algorithm             .... Taylor
   White noise on init. David. guess    .... on
   Maximum white noise                  ....   0.010
   Quad. conv. algorithm                .... NR
 SOSCF                  CNVSOSCF        .... on
   Start iteration      SOSCFMaxIt      ....   150
   Startup grad/error   SOSCFStart      ....  0.003300
 Level Shifting         CNVShift        .... on
   Level shift para.    LevelShift      ....    0.2500
   Turn off err/grad.   ShiftErr        ....    0.0010
 Zerner damping         CNVZerner       .... off
 Static damping         CNVDamp         .... on
   Fraction old density DampFac         ....    0.7000
   Max. Damping (<1)    DampMax         ....    0.9800
   Min. Damping (>=0)   DampMin         ....    0.0000
   Turn off err/grad.   DampErr         ....    0.1000
 Fernandez-Rico         CNVRico         .... off

SCF Procedure:
 Maximum # iterations   MaxIter         ....   150
 SCF integral mode      SCFMode         .... Direct
   Integral package                     .... SHARK and LIBINT hybrid scheme
 Reset frequency        DirectResetFreq ....    20
 Integral Threshold     Thresh          ....  2.500e-11 Eh
 Primitive CutOff       TCut            ....  2.500e-12 Eh

Convergence Tolerance:
 Convergence Check Mode ConvCheckMode   .... Total+1el-Energy
 Convergence forced     ConvForced      .... 0
 Energy Change          TolE            ....  1.000e-08 Eh
 1-El. energy change                    ....  1.000e-05 Eh
 Orbital Gradient       TolG            ....  1.000e-05
 Orbital Rotation angle TolX            ....  1.000e-05
 DIIS Error             TolErr          ....  5.000e-07


Diagonalization of the overlap matrix:
Smallest eigenvalue                        ... 4.344e-05
Time for diagonalization                   ...    0.008 sec
Threshold for overlap eigenvalues          ... 1.000e-08
Number of eigenvalues below threshold      ... 0
Time for construction of square roots      ...    0.008 sec
Total time needed                          ...    0.017 sec

Time for model grid setup =    0.055 sec

------------------------------
INITIAL GUESS: MODEL POTENTIAL
------------------------------
Loading Hartree-Fock densities                     ... done
Calculating cut-offs                               ... done
Initializing the effective Hamiltonian             ... done
Setting up the integral package (SHARK)            ... done
Starting the Coulomb interaction                   ... done (   0.0 sec)
Reading the grid                                   ... done
Mapping shells                                     ... done
Starting the XC term evaluation                    ... done (   0.0 sec)
  promolecular density results
     # of electrons  =     39.993420085
     EX              =    -30.871521013
     EC              =     -1.312833236
     EX+EC           =    -32.184354249
Transforming the Hamiltonian                       ... done (   0.0 sec)
Diagonalizing the Hamiltonian                      ... done (   0.0 sec)
Back transforming the eigenvectors                 ... done (   0.0 sec)
Now organizing SCF variables                       ... done
                      ------------------
                      INITIAL GUESS DONE (   0.1 sec)
                      ------------------
-------------------
DFT GRID GENERATION
-------------------

General Integration Accuracy     IntAcc      ... 4.388
Radial Grid Type                 RadialGrid  ... OptM3 with GC (2021)
Angular Grid (max. ang.)         AngularGrid ... 4 (Lebedev-302)
Angular grid pruning method      GridPruning ... 4 (adaptive)
Weight generation scheme         WeightScheme... Becke
Basis function cutoff            BFCut       ... 1.0000e-11
Integration weight cutoff        WCut        ... 1.0000e-14
Angular grids for H and He will be reduced by one unit
Partially contracted basis set               ... off
Rotationally invariant grid construction     ... off

Total number of grid points                  ...    57720
Total number of batches                      ...      908
Average number of points per batch           ...       63
Average number of grid points per atom       ...     4440
Time for grid setup =    0.309 sec

--------------------
COSX GRID GENERATION
--------------------

GRIDX 1
-------
General Integration Accuracy     IntAcc      ... 3.816
Radial Grid Type                 RadialGrid  ... OptM3 with GC (2021)
Angular Grid (max. ang.)         AngularGrid ... 1 (Lebedev-50)
Angular grid pruning method      GridPruning ... 4 (adaptive)
Weight generation scheme         WeightScheme... Becke
Basis function cutoff            BFCut       ... 1.0000e-11
Integration weight cutoff        WCut        ... 1.0000e-14
Angular grids for H and He will be reduced by one unit
Partially contracted basis set               ... on
Rotationally invariant grid construction     ... off

Total number of grid points                  ...     7216
Total number of batches                      ...      121
Average number of points per batch           ...       59
Average number of grid points per atom       ...      555
UseSFitting                                  ... on

GRIDX 2
-------
General Integration Accuracy     IntAcc      ... 4.020
Radial Grid Type                 RadialGrid  ... OptM3 with GC (2021)
Angular Grid (max. ang.)         AngularGrid ... 2 (Lebedev-110)
Angular grid pruning method      GridPruning ... 4 (adaptive)
Weight generation scheme         WeightScheme... Becke
Basis function cutoff            BFCut       ... 1.0000e-11
Integration weight cutoff        WCut        ... 1.0000e-14
Angular grids for H and He will be reduced by one unit
Partially contracted basis set               ... on
Rotationally invariant grid construction     ... off

Total number of grid points                  ...    15973
Total number of batches                      ...      257
Average number of points per batch           ...       62
Average number of grid points per atom       ...     1229
UseSFitting                                  ... on

GRIDX 3
-------
General Integration Accuracy     IntAcc      ... 4.338
Radial Grid Type                 RadialGrid  ... OptM3 with GC (2021)
Angular Grid (max. ang.)         AngularGrid ... 3 (Lebedev-194)
Angular grid pruning method      GridPruning ... 4 (adaptive)
Weight generation scheme         WeightScheme... Becke
Basis function cutoff            BFCut       ... 1.0000e-11
Integration weight cutoff        WCut        ... 1.0000e-14
Angular grids for H and He will be reduced by one unit
Partially contracted basis set               ... on
Rotationally invariant grid construction     ... off

Total number of grid points                  ...    36641
Total number of batches                      ...      581
Average number of points per batch           ...       63
Average number of grid points per atom       ...     2819
UseSFitting                                  ... on

Time for X-Grid setup             =    0.238 sec

--------------
SCF ITERATIONS
--------------
ITER       Energy         Delta-E        Max-DP      RMS-DP      [F,P]     Damp
               ***  Starting incremental Fock matrix formation  ***
  0   -228.0711792544   0.000000000000 0.18000482  0.00352671  0.2152913 0.7000
  1   -228.1860297289  -0.114850474542 0.11390233  0.00245748  0.1173771 0.7000
                               ***Turning on DIIS***
  2   -228.2395990870  -0.053569358119 0.20276718  0.00475047  0.0514799 0.0000
  3   -228.3167919258  -0.077192838726 0.06640581  0.00161738  0.0547108 0.0000
  4   -228.3349014336  -0.018109507814 0.02051970  0.00048319  0.0093689 0.0000
                      *** Initiating the SOSCF procedure ***
                           *** Shutting down DIIS ***
                      *** Re-Reading the Fockian *** 
                      *** Removing any level shift *** 
ITER      Energy       Delta-E        Grad      Rot      Max-DP    RMS-DP
  5   -228.33547942  -0.0005779883  0.001031  0.001031  0.006367  0.000168
               *** Restarting incremental Fock matrix formation ***
  6   -228.33556059  -0.0000811638  0.000465  0.001181  0.004914  0.000179
  7   -228.33556656  -0.0000059707  0.000214  0.000540  0.001111  0.000055
  8   -228.33556842  -0.0000018630  0.000052  0.000104  0.000541  0.000028
  9   -228.33556852  -0.0000000972  0.000050  0.000078  0.000149  0.000007
 10   -228.33556857  -0.0000000529  0.000010  0.000015  0.000109  0.000005
                  ***Gradient check signals convergence***
              ***Rediagonalizing the Fockian in SOSCF/NRSCF***

               *****************************************************
               *                     SUCCESS                       *
               *           SCF CONVERGED AFTER  11 CYCLES          *
               *****************************************************

Old exchange energy                            =    -17.115432721 Eh
New exchange energy                            =    -17.115411237 Eh
Exchange energy change after final integration =      0.000021484 Eh
Total energy after final integration           =   -228.335547087 Eh
Final COS-X integration done in                =     0.865 sec

----------------
TOTAL SCF ENERGY
----------------

Total Energy       :         -228.33554709 Eh           -6213.32612 eV

Components:
Nuclear Repulsion  :          183.36901336 Eh            4989.72453 eV
Electronic Energy  :         -411.70456045 Eh          -11203.05064 eV
One Electron Energy:         -670.55948578 Eh          -18246.85126 eV
Two Electron Energy:          258.85492533 Eh            7043.80062 eV
Max COSX asymmetry :            0.00000978 Eh               0.00027 eV

Virial components:
Potential Energy   :         -454.72719983 Eh          -12373.75618 eV
Kinetic Energy     :          226.39165274 Eh            6160.43006 eV
Virial Ratio       :            2.00858642


DFT components:
N(Alpha)           :       19.999982948084 electrons
N(Beta)            :       19.999982948084 electrons
N(Total)           :       39.999965896169 electrons
E(XC)              :      -15.969017444275 Eh       
DFET-embed. en.    :        0.000000000000 Eh       

---------------
SCF CONVERGENCE
---------------

  Last Energy change         ...   -1.0473e-09  Tolerance :   1.0000e-08
  Last MAX-Density change    ...    3.9968e-15  Tolerance :   1.0000e-07
  Last RMS-Density change    ...    4.5860e-17  Tolerance :   5.0000e-09
  Last Orbital Gradient      ...    2.0628e-06  Tolerance :   1.0000e-05
  Last Orbital Rotation      ...    3.2665e-06  Tolerance :   1.0000e-05

             **** THE GBW FILE WAS UPDATED (18Feb_SVPD_M062X_C1_wt_wb97_typm1_pos.gbw) ****
             **** DENSITY 18Feb_SVPD_M062X_C1_wt_wb97_typm1_pos.scfp WAS UPDATED ****
             **** ENERGY FILE WAS UPDATED (18Feb_SVPD_M062X_C1_wt_wb97_typm1_pos.en.tmp) ****
             **** THE GBW FILE WAS UPDATED (18Feb_SVPD_M062X_C1_wt_wb97_typm1_pos.gbw) ****
             **** DENSITY 18Feb_SVPD_M062X_C1_wt_wb97_typm1_pos.scfp WAS UPDATED ****
----------------
ORBITAL ENERGIES
----------------

  NO   OCC          E(Eh)            E(eV) 
   0   2.0000     -14.763012      -401.7220 
   1   2.0000     -14.755458      -401.5164 
   2   2.0000     -10.593425      -288.2618 
   3   2.0000     -10.514277      -286.1080 
   4   2.0000     -10.473559      -285.0000 
   5   2.0000      -1.059072       -28.8188 
   6   2.0000      -0.959200       -26.1011 
   7   2.0000      -0.836980       -22.7754 
   8   2.0000      -0.738605       -20.0985 
   9   2.0000      -0.661977       -18.0133 
  10   2.0000      -0.617102       -16.7922 
  11   2.0000      -0.576917       -15.6987 
  12   2.0000      -0.547643       -14.9021 
  13   2.0000      -0.494981       -13.4691 
  14   2.0000      -0.472293       -12.8517 
  15   2.0000      -0.440497       -11.9865 
  16   2.0000      -0.423153       -11.5146 
  17   2.0000      -0.401516       -10.9258 
  18   2.0000      -0.328074        -8.9273 
  19   2.0000      -0.207205        -5.6383 
  20   0.0000       0.036719         0.9992 
  21   0.0000       0.063787         1.7357 
  22   0.0000       0.073074         1.9884 
  23   0.0000       0.103096         2.8054 
  24   0.0000       0.106212         2.8902 
  25   0.0000       0.111948         3.0463 
  26   0.0000       0.117431         3.1955 
  27   0.0000       0.154058         4.1921 
  28   0.0000       0.156992         4.2720 
  29   0.0000       0.163141         4.4393 
  30   0.0000       0.173728         4.7274 
  31   0.0000       0.186200         5.0668 
  32   0.0000       0.199415         5.4263 
  33   0.0000       0.211246         5.7483 
  34   0.0000       0.219002         5.9593 
  35   0.0000       0.229075         6.2334 
  36   0.0000       0.245568         6.6823 
  37   0.0000       0.252741         6.8774 
  38   0.0000       0.280265         7.6264 
  39   0.0000       0.292422         7.9572 
  40   0.0000       0.295436         8.0392 
  41   0.0000       0.302731         8.2377 
  42   0.0000       0.307426         8.3655 
  43   0.0000       0.330692         8.9986 
  44   0.0000       0.336993         9.1701 
  45   0.0000       0.340596         9.2681 
  46   0.0000       0.347117         9.4455 
  47   0.0000       0.355608         9.6766 
  48   0.0000       0.364669         9.9231 
  49   0.0000       0.370741        10.0884 
  50   0.0000       0.381395        10.3783 
  51   0.0000       0.385452        10.4887 
  52   0.0000       0.401838        10.9346 
  53   0.0000       0.409871        11.1531 
  54   0.0000       0.422236        11.4896 
  55   0.0000       0.432203        11.7609 
  56   0.0000       0.435580        11.8527 
  57   0.0000       0.450877        12.2690 
  58   0.0000       0.456038        12.4094 
  59   0.0000       0.468698        12.7539 
  60   0.0000       0.477309        12.9882 
  61   0.0000       0.481668        13.1069 
  62   0.0000       0.493687        13.4339 
  63   0.0000       0.507219        13.8021 
  64   0.0000       0.513087        13.9618 
  65   0.0000       0.515182        14.0188 
  66   0.0000       0.520436        14.1618 
  67   0.0000       0.543795        14.7974 
  68   0.0000       0.555632        15.1195 
  69   0.0000       0.558369        15.1940 
  70   0.0000       0.571834        15.5604 
  71   0.0000       0.584227        15.8976 
  72   0.0000       0.593847        16.1594 
  73   0.0000       0.614918        16.7328 
  74   0.0000       0.625576        17.0228 
  75   0.0000       0.641115        17.4456 
  76   0.0000       0.659011        17.9326 
  77   0.0000       0.674856        18.3638 
  78   0.0000       0.687637        18.7115 
  79   0.0000       0.700014        19.0483 
  80   0.0000       0.712045        19.3757 
  81   0.0000       0.718732        19.5577 
  82   0.0000       0.762633        20.7523 
  83   0.0000       0.765576        20.8324 
  84   0.0000       0.780976        21.2514 
  85   0.0000       0.797291        21.6954 
  86   0.0000       0.818551        22.2739 
  87   0.0000       0.919834        25.0300 
  88   0.0000       0.962329        26.1863 
  89   0.0000       0.984456        26.7884 
  90   0.0000       1.030346        28.0371 
  91   0.0000       1.042190        28.3594 
  92   0.0000       1.064604        28.9693 
  93   0.0000       1.084400        29.5080 
  94   0.0000       1.093484        29.7552 
  95   0.0000       1.104305        30.0497 
  96   0.0000       1.144594        31.1460 
  97   0.0000       1.151136        31.3240 
  98   0.0000       1.193154        32.4674 
  99   0.0000       1.199048        32.6278 
 100   0.0000       1.221866        33.2487 
 101   0.0000       1.230228        33.4762 
 102   0.0000       1.248755        33.9804 
 103   0.0000       1.257854        34.2279 
 104   0.0000       1.287924        35.0462 
 105   0.0000       1.311872        35.6978 
 106   0.0000       1.372410        37.3452 
 107   0.0000       1.383952        37.6592 
 108   0.0000       1.425987        38.8031 
 109   0.0000       1.560763        42.4705 
 110   0.0000       1.602738        43.6127 
 111   0.0000       1.617209        44.0065 
 112   0.0000       1.630192        44.3598 
 113   0.0000       1.643204        44.7138 
 114   0.0000       1.697198        46.1831 
 115   0.0000       1.723953        46.9111 
 116   0.0000       1.736054        47.2404 
 117   0.0000       1.760257        47.8990 
 118   0.0000       1.780901        48.4608 
 119   0.0000       1.801282        49.0154 
 120   0.0000       1.811872        49.3035 
 121   0.0000       1.890783        51.4508 
 122   0.0000       1.922645        52.3178 
 123   0.0000       1.934895        52.6512 
 124   0.0000       1.952216        53.1225 
 125   0.0000       2.010075        54.6969 
 126   0.0000       2.028416        55.1960 
 127   0.0000       2.067229        56.2522 
 128   0.0000       2.074358        56.4462 
 129   0.0000       2.079411        56.5837 
 130   0.0000       2.118524        57.6480 
 131   0.0000       2.123424        57.7813 
 132   0.0000       2.142477        58.2998 
 133   0.0000       2.152145        58.5628 
 134   0.0000       2.193692        59.6934 
 135   0.0000       2.211349        60.1739 
 136   0.0000       2.251303        61.2611 
 137   0.0000       2.311552        62.9005 
 138   0.0000       2.318802        63.0978 
 139   0.0000       2.369082        64.4660 
 140   0.0000       2.438532        66.3558 
 141   0.0000       2.461996        66.9943 
 142   0.0000       2.492373        67.8209 
 143   0.0000       2.532433        68.9110 
 144   0.0000       2.556403        69.5633 
 145   0.0000       2.599594        70.7386 
 146   0.0000       2.653891        72.2161 
 147   0.0000       2.675858        72.8138 
 148   0.0000       2.710812        73.7649 
 149   0.0000       2.754716        74.9596 
 150   0.0000       2.835246        77.1510 
 151   0.0000       2.876479        78.2730 
 152   0.0000       2.928469        79.6877 
 153   0.0000       2.989677        81.3532 
 154   0.0000       3.074181        83.6527 
 155   0.0000       3.140511        85.4576 
 156   0.0000       3.200702        87.0955 
 157   0.0000       3.254112        88.5489 
 158   0.0000       3.302696        89.8709 
 159   0.0000       3.342084        90.9427 
 160   0.0000       3.387552        92.1800 
 161   0.0000       3.406291        92.6899 
 162   0.0000       3.729188       101.4764 
 163   0.0000       3.773848       102.6916 

                    ********************************
                    * MULLIKEN POPULATION ANALYSIS *
                    ********************************

-----------------------
MULLIKEN ATOMIC CHARGES
-----------------------
   0 C :    0.895272
   1 C :   -0.752670
   2 C :    1.126552
   3 N :   -0.093869
   4 N :   -0.043820
   5 H :   -0.085429
   6 H :   -0.201169
   7 H :   -0.396873
   8 H :   -0.083518
   9 H :   -0.106251
  10 H :   -0.195292
  11 H :   -0.012642
  12 H :   -0.050290
Sum of atomic charges:    0.0000000

--------------------------------
MULLIKEN REDUCED ORBITAL CHARGES
--------------------------------
  0 C s       :     2.255486  s :     2.255486
      pz      :     0.906111  p :     2.846019
      px      :     0.980611
      py      :     0.959297
      dz2     :    -0.017204  d :     0.003223
      dxz     :    -0.023463
      dyz     :     0.009816
      dx2y2   :     0.038343
      dxy     :    -0.004269
  1 C s       :     3.264129  s :     3.264129
      pz      :     0.955614  p :     3.001308
      px      :     0.953344
      py      :     1.092350
      dz2     :     0.047059  d :     0.487233
      dxz     :     0.183936
      dyz     :     0.018035
      dx2y2   :     0.143934
      dxy     :     0.094270
  2 C s       :     2.704947  s :     2.704947
      pz      :     0.792825  p :     2.117598
      px      :     0.551182
      py      :     0.773591
      dz2     :     0.108894  d :     0.050904
      dxz     :     0.006529
      dyz     :     0.011981
      dx2y2   :    -0.067463
      dxy     :    -0.009039
  3 N s       :     3.386096  s :     3.386096
      pz      :     1.532992  p :     3.701575
      px      :     1.035817
      py      :     1.132765
      dz2     :     0.010857  d :     0.006199
      dxz     :     0.005069
      dyz     :     0.005261
      dx2y2   :    -0.011928
      dxy     :    -0.003061
  4 N s       :     3.330754  s :     3.330754
      pz      :     1.323598  p :     3.701783
      px      :     1.024431
      py      :     1.353754
      dz2     :     0.011792  d :     0.011283
      dxz     :     0.007906
      dyz     :     0.006325
      dx2y2   :    -0.021485
      dxy     :     0.006745
  5 H s       :     1.052353  s :     1.052353
      pz      :     0.004014  p :     0.033076
      px      :    -0.006248
      py      :     0.035310
  6 H s       :     1.151032  s :     1.151032
      pz      :     0.054829  p :     0.050137
      px      :    -0.028924
      py      :     0.024233
  7 H s       :     1.319561  s :     1.319561
      pz      :     0.036897  p :     0.077312
      px      :     0.027385
      py      :     0.013030
  8 H s       :     1.040248  s :     1.040248
      pz      :     0.053460  p :     0.043270
      px      :     0.005334
      py      :    -0.015524
  9 H s       :     1.057476  s :     1.057476
      pz      :     0.045327  p :     0.048775
      px      :    -0.011124
      py      :     0.014572
 10 H s       :     1.057808  s :     1.057808
      pz      :     0.057613  p :     0.137484
      px      :     0.019468
      py      :     0.060402
 11 H s       :     0.970380  s :     0.970380
      pz      :    -0.028605  p :     0.042263
      px      :     0.023534
      py      :     0.047333
 12 H s       :     1.022961  s :     1.022961
      pz      :     0.045798  p :     0.027329
      px      :    -0.001945
      py      :    -0.016523


                     *******************************
                     * LOEWDIN POPULATION ANALYSIS *
                     *******************************

----------------------
LOEWDIN ATOMIC CHARGES
----------------------
   0 C :    0.100065
   1 C :   -0.064008
   2 C :   -0.228157
   3 N :    0.165441
   4 N :    0.180515
   5 H :    0.000687
   6 H :   -0.004672
   7 H :   -0.053985
   8 H :    0.003767
   9 H :   -0.015189
  10 H :   -0.041460
  11 H :   -0.021781
  12 H :   -0.021224

-------------------------------
LOEWDIN REDUCED ORBITAL CHARGES
-------------------------------
  0 C s       :     2.694651  s :     2.694651
      pz      :     0.922390  p :     2.777483
      px      :     0.930126
      py      :     0.924968
      dz2     :     0.053349  d :     0.427801
      dxz     :     0.122377
      dyz     :     0.037905
      dx2y2   :     0.138782
      dxy     :     0.075387
  1 C s       :     2.694970  s :     2.694970
      pz      :     0.932250  p :     2.756139
      px      :     0.906501
      py      :     0.917389
      dz2     :     0.083127  d :     0.612899
      dxz     :     0.139330
      dyz     :     0.094751
      dx2y2   :     0.165843
      dxy     :     0.129848
  2 C s       :     2.627736  s :     2.627736
      pz      :     0.823847  p :     2.516397
      px      :     0.828595
      py      :     0.863955
      dz2     :     0.219899  d :     1.084024
      dxz     :     0.232061
      dyz     :     0.151364
      dx2y2   :     0.233330
      dxy     :     0.247370
  3 N s       :     2.929017  s :     2.929017
      pz      :     1.341286  p :     3.557234
      px      :     1.076323
      py      :     1.139625
      dz2     :     0.028780  d :     0.348308
      dxz     :     0.074118
      dyz     :     0.040384
      dx2y2   :     0.114614
      dxy     :     0.090411
  4 N s       :     2.917771  s :     2.917771
      pz      :     1.238419  p :     3.543765
      px      :     1.071711
      py      :     1.233636
      dz2     :     0.080537  d :     0.357949
      dxz     :     0.062834
      dyz     :     0.063838
      dx2y2   :     0.088102
      dxy     :     0.062638
  5 H s       :     0.642648  s :     0.642648
      pz      :     0.096316  p :     0.356665
      px      :     0.138053
      py      :     0.122296
  6 H s       :     0.661883  s :     0.661883
      pz      :     0.127779  p :     0.342789
      px      :     0.076344
      py      :     0.138666
  7 H s       :     0.757758  s :     0.757758
      pz      :     0.105678  p :     0.296226
      px      :     0.109454
      py      :     0.081095
  8 H s       :     0.652450  s :     0.652450
      pz      :     0.125063  p :     0.343783
      px      :     0.120196
      py      :     0.098524
  9 H s       :     0.665751  s :     0.665751
      pz      :     0.135084  p :     0.349438
      px      :     0.072635
      py      :     0.141719
 10 H s       :     0.735459  s :     0.735459
      pz      :     0.114996  p :     0.306001
      px      :     0.094007
      py      :     0.096997
 11 H s       :     0.744721  s :     0.744721
      pz      :     0.073702  p :     0.277060
      px      :     0.078376
      py      :     0.124983
 12 H s       :     0.746018  s :     0.746018
      pz      :     0.117019  p :     0.275206
      px      :     0.084344
      py      :     0.073843


                      *****************************
                      * MAYER POPULATION ANALYSIS *
                      *****************************

  NA   - Mulliken gross atomic population
  ZA   - Total nuclear charge
  QA   - Mulliken gross atomic charge
  VA   - Mayer's total valence
  BVA  - Mayer's bonded valence
  FA   - Mayer's free valence

  ATOM       NA         ZA         QA         VA         BVA        FA
  0 C      5.1047     6.0000     0.8953     3.4521     3.4521    -0.0000
  1 C      6.7527     6.0000    -0.7527     5.1614     5.1614     0.0000
  2 C      4.8734     6.0000     1.1266     2.7877     2.7877     0.0000
  3 N      7.0939     7.0000    -0.0939     3.7406     3.7406    -0.0000
  4 N      7.0438     7.0000    -0.0438     3.7935     3.7935    -0.0000
  5 H      1.0854     1.0000    -0.0854     0.9348     0.9348    -0.0000
  6 H      1.2012     1.0000    -0.2012     0.9501     0.9501     0.0000
  7 H      1.3969     1.0000    -0.3969     1.1448     1.1448     0.0000
  8 H      1.0835     1.0000    -0.0835     0.9160     0.9160     0.0000
  9 H      1.1063     1.0000    -0.1063     0.9340     0.9340    -0.0000
 10 H      1.1953     1.0000    -0.1953     1.2912     1.2912    -0.0000
 11 H      1.0126     1.0000    -0.0126     1.0385     1.0385    -0.0000
 12 H      1.0503     1.0000    -0.0503     0.9806     0.9806    -0.0000

  Mayer bond orders larger than 0.100000
B(  0-C ,  1-C ) :   1.1367 B(  0-C ,  7-H ) :   0.1505 B(  0-C , 10-H ) :   0.7871 
B(  0-C , 11-H ) :   0.7174 B(  0-C , 12-H ) :   0.7125 B(  1-C ,  2-C ) :   1.5842 
B(  1-C ,  3-N ) :   0.4353 B(  1-C ,  4-N ) :   0.2831 B(  1-C ,  7-H ) :   0.9516 
B(  1-C , 10-H ) :   0.3887 B(  1-C , 11-H ) :   0.2013 B(  1-C , 12-H ) :   0.1827 
B(  2-C ,  3-N ) :   0.7015 B(  2-C ,  4-N ) :   0.9441 B(  2-C ,  5-H ) :  -0.1001 
B(  2-C ,  6-H ) :  -0.1593 B(  2-C ,  7-H ) :   0.1442 B(  2-C ,  8-H ) :  -0.1529 
B(  2-C , 10-H ) :  -0.1077 B(  3-N ,  4-N ) :   0.1201 B(  3-N ,  8-H ) :   1.2108 
B(  3-N ,  9-H ) :   1.1439 B(  4-N ,  5-H ) :   1.1637 B(  4-N ,  6-H ) :   1.2840 
B(  5-H ,  6-H ) :  -0.1840 B(  8-H ,  9-H ) :  -0.1662 B( 10-H , 11-H ) :   0.1354 


-------
TIMINGS
-------

Total SCF time: 0 days 0 hours 0 min 8 sec 

Total time                  ....       8.998 sec
Sum of individual times     ....       8.803 sec  ( 97.8%)

Fock matrix formation       ....       8.025 sec  ( 89.2%)
  Split-RI-J                ....       0.645 sec  (  8.0% of F)
  Chain of spheres X        ....       4.599 sec  ( 57.3% of F)
  XC integration            ....       2.745 sec  ( 34.2% of F)
    Basis function eval.    ....       0.430 sec  ( 15.7% of XC)
    Density eval.           ....       0.822 sec  ( 30.0% of XC)
    XC-Functional eval.     ....       0.187 sec  (  6.8% of XC)
    XC-Potential eval.      ....       1.141 sec  ( 41.6% of XC)
Diagonalization             ....       0.043 sec  (  0.5%)
Density matrix formation    ....       0.005 sec  (  0.1%)
Population analysis         ....       0.007 sec  (  0.1%)
Initial guess               ....       0.066 sec  (  0.7%)
Orbital Transformation      ....       0.000 sec  (  0.0%)
Orbital Orthonormalization  ....       0.000 sec  (  0.0%)
DIIS solution               ....       0.026 sec  (  0.3%)
SOSCF solution              ....       0.029 sec  (  0.3%)
Grid generation             ....       0.602 sec  (  6.7%)

Maximum memory used throughout the entire SCF-calculation: 51.0 MB


-------------------------------------------------------------------------------
                          DFT DISPERSION CORRECTION                            
                                                                               
                              DFTD3 V3.1  Rev 1                                
                              USING zero damping                               
-------------------------------------------------------------------------------
The M062X functional is recognized
Active option DFTDOPT                   ...         3   

molecular C6(AA) [au] = 1311.710408 


            DFT-D V3
 parameters
 s6 scaling factor         :     1.0000 
 rs6 scaling factor        :     1.6190 
 s8 scaling factor         :     0.0000 
 rs8 scaling factor        :     1.0000 
 Damping factor alpha6     :    14.0000 
 Damping factor alpha8     :    16.0000 
 ad hoc parameters k1-k3   :    16.0000     1.3333    -4.0000 

 Edisp/kcal,au: -0.109208089359  -0.000174034150 
 E6   /kcal   :  -0.109208089 
 E8   /kcal   :  -0.000000000 
 % E8         :   0.000000000 

-------------------------   ----------------
Dispersion correction           -0.000174034
-------------------------   ----------------


-------------------------   --------------------
FINAL SINGLE POINT ENERGY      -228.335721120938
-------------------------   --------------------


                            ***************************************
                            *     ORCA property calculations      *
                            ***************************************

                                    ---------------------
                                    Active property flags
                                    ---------------------
   (+) Dipole Moment


------------------------------------------------------------------------------
                       ORCA ELECTRIC PROPERTIES CALCULATION
------------------------------------------------------------------------------

Dipole Moment Calculation                       ... on
Quadrupole Moment Calculation                   ... off
Polarizability Calculation                      ... off
GBWName                                         ... 18Feb_SVPD_M062X_C1_wt_wb97_typm1_pos.gbw
Electron density file                           ... 18Feb_SVPD_M062X_C1_wt_wb97_typm1_pos.scfp
The origin for moment calculation is the CENTER OF MASS  = ( 8.367369,  0.914196 -7.681920)

-------------
DIPOLE MOMENT
-------------
                                X             Y             Z
Electronic contribution:      1.56420      -2.45154      -1.21834
Nuclear contribution   :     -1.47697       1.65537       0.71722
                        -----------------------------------------
Total Dipole Moment    :      0.08724      -0.79617      -0.50113
                        -----------------------------------------
Magnitude (a.u.)       :      0.94479
Magnitude (Debye)      :      2.40146



--------------------
Rotational spectrum 
--------------------
 
Rotational constants in cm-1:     0.321284     0.131400     0.095192 
Rotational constants in MHz :  9631.850868  3939.260061  2853.789421 

 Dipole components along the rotational axes: 
x,y,z [a.u.] :    -0.830904    -0.446941     0.049671 
x,y,z [Debye]:    -2.111990    -1.136034     0.126253 

 

Timings for individual modules:

Sum of individual times         ...        9.794 sec (=   0.163 min)
GTO integral calculation        ...        0.493 sec (=   0.008 min)   5.0 %
SCF iterations                  ...        9.300 sec (=   0.155 min)  95.0 %
                             ****ORCA TERMINATED NORMALLY****
TOTAL RUN TIME: 0 days 0 hours 0 minutes 10 seconds 319 msec
