
                                        *****************
                                        * O   R   C   A *
                                        *****************

                                            #,                                       
                                            ###                                      
                                            ####                                     
                                            #####                                    
                                            ######                                   
                                           ########,                                 
                                     ,,################,,,,,                         
                               ,,#################################,,                 
                          ,,##########################################,,             
                       ,#########################################, ''#####,          
                    ,#############################################,,   '####,        
                  ,##################################################,,,,####,       
                ,###########''''           ''''###############################       
              ,#####''   ,,,,##########,,,,          '''####'''          '####       
            ,##' ,,,,###########################,,,                        '##       
           ' ,,###''''                  '''############,,,                           
         ,,##''                                '''############,,,,        ,,,,,,###''
      ,#''                                            '''#######################'''  
     '                                                          ''''####''''         
             ,#######,   #######,   ,#######,      ##                                
            ,#'     '#,  ##    ##  ,#'     '#,    #''#        ######   ,####,        
            ##       ##  ##   ,#'  ##            #'  '#       #        #'  '#        
            ##       ##  #######   ##           ,######,      #####,   #    #        
            '#,     ,#'  ##    ##  '#,     ,#' ,#      #,         ##   #,  ,#        
             '#######'   ##     ##  '#######'  #'      '#     #####' # '####'        



                  #######################################################
                  #                        -***-                        #
                  #          Department of theory and spectroscopy      #
                  #    Directorship and core code : Frank Neese         #
                  #        Max Planck Institute fuer Kohlenforschung    #
                  #                Kaiser Wilhelm Platz 1               #
                  #                 D-45470 Muelheim/Ruhr               #
                  #                      Germany                        #
                  #                                                     #
                  #                  All rights reserved                #
                  #                        -***-                        #
                  #######################################################


                         Program Version 5.0.0 -  RELEASE  -
                                (SVN: $Rev: 19529$)
                ($Date: 2021-06-28 11:36:33 +0200 (Mo, 28 Jun 2021) $)


 With contributions from (in alphabetic order):
   Daniel Aravena         : Magnetic Suceptibility
   Michael Atanasov       : Ab Initio Ligand Field Theory (pilot matlab implementation)
   Alexander A. Auer      : GIAO ZORA, VPT2 properties, NMR spectrum
   Ute Becker             : Parallelization
   Giovanni Bistoni       : ED, misc. LED, open-shell LED, HFLD
   Martin Brehm           : Molecular dynamics
   Dmytro Bykov           : SCF Hessian
   Vijay G. Chilkuri      : MRCI spin determinant printing, contributions to CSF-ICE
   Dipayan Datta          : RHF DLPNO-CCSD density
   Achintya Kumar Dutta   : EOM-CC, STEOM-CC
   Dmitry Ganyushin       : Spin-Orbit,Spin-Spin,Magnetic field MRCI
   Miquel Garcia          : C-PCM Hessian, Gaussian charge scheme
   Yang Guo               : DLPNO-NEVPT2, F12-NEVPT2, CIM, IAO-localization
   Andreas Hansen         : Spin unrestricted coupled pair/coupled cluster methods
   Benjamin Helmich-Paris : MC-RPA, TRAH-SCF, COSX integrals
   Lee Huntington         : MR-EOM, pCC
   Robert Izsak           : Overlap fitted RIJCOSX, COSX-SCS-MP3, EOM
   Marcus Kettner         : VPT2
   Christian Kollmar      : KDIIS, OOCD, Brueckner-CCSD(T), CCSD density, CASPT2, CASPT2-K
   Simone Kossmann        : Meta GGA functionals, TD-DFT gradient, OOMP2, MP2 Hessian
   Martin Krupicka        : Initial AUTO-CI
   Lucas Lang             : DCDCAS
   Marvin Lechner         : AUTO-CI (C++ implementation), FIC-MRCC
   Dagmar Lenk            : GEPOL surface, SMD
   Dimitrios Liakos       : Extrapolation schemes; Compound Job, initial MDCI parallelization
   Dimitrios Manganas     : Further ROCIS development; embedding schemes
   Dimitrios Pantazis     : SARC Basis sets
   Anastasios Papadopoulos: AUTO-CI, single reference methods and gradients
   Taras Petrenko         : DFT Hessian,TD-DFT gradient, ASA, ECA, R-Raman, ABS, FL, XAS/XES, NRVS
   Peter Pinski           : DLPNO-MP2, DLPNO-MP2 Gradient
   Christoph Reimann      : Effective Core Potentials
   Marius Retegan         : Local ZFS, SOC
   Christoph Riplinger    : Optimizer, TS searches, QM/MM, DLPNO-CCSD(T), (RO)-DLPNO pert. Triples
   Tobias Risthaus        : Range-separated hybrids, TD-DFT gradient, RPA, STAB
   Michael Roemelt        : Original ROCIS implementation
   Masaaki Saitow         : Open-shell DLPNO-CCSD energy and density
   Barbara Sandhoefer     : DKH picture change effects
   Avijit Sen             : IP-ROCIS
   Kantharuban Sivalingam : CASSCF convergence, NEVPT2, FIC-MRCI
   Bernardo de Souza      : ESD, SOC TD-DFT
   Georgi Stoychev        : AutoAux, RI-MP2 NMR
   Willem Van den Heuvel  : Paramagnetic NMR
   Boris Wezisla          : Elementary symmetry handling
   Frank Wennmohs         : Technical directorship


 We gratefully acknowledge several colleagues who have allowed us to
 interface, adapt or use parts of their codes:
   Stefan Grimme, W. Hujo, H. Kruse, P. Pracht,  : VdW corrections, initial TS optimization,
                  C. Bannwarth, S. Ehlert          DFT functionals, gCP, sTDA/sTD-DF
   Ed Valeev, F. Pavosevic, A. Kumar             : LibInt (2-el integral package), F12 methods
   Garnet Chan, S. Sharma, J. Yang, R. Olivares  : DMRG
   Ulf Ekstrom                                   : XCFun DFT Library
   Mihaly Kallay                                 : mrcc  (arbitrary order and MRCC methods)
   Jiri Pittner, Ondrej Demel                    : Mk-CCSD
   Frank Weinhold                                : gennbo (NPA and NBO analysis)
   Christopher J. Cramer and Donald G. Truhlar   : smd solvation model
   Lars Goerigk                                  : TD-DFT with DH, B97 family of functionals
   V. Asgeirsson, H. Jonsson                     : NEB implementation
   FAccTs GmbH                                   : IRC, NEB, NEB-TS, DLPNO-Multilevel, CI-OPT
                                                   MM, QMMM, 2- and 3-layer-ONIOM, Crystal-QMMM,
                                                   LR-CPCM, SF, NACMEs, symmetry and pop. for TD-DFT,
                                                   nearIR, NL-DFT gradient (VV10), updates on ESD,
                                                   ML-optimized integration grids
   S Lehtola, MJT Oliveira, MAL Marques          : LibXC Library
   Liviu Ungur et al                             : ANISO software


 Your calculation uses the libint2 library for the computation of 2-el integrals
 For citations please refer to: http://libint.valeyev.net

 Your ORCA version has been built with support for libXC version: 5.1.0
 For citations please refer to: https://tddft.org/programs/libxc/

 This ORCA versions uses:
   CBLAS   interface :  Fast vector & matrix operations
   LAPACKE interface :  Fast linear algebra routines
   SCALAPACK package :  Parallel linear algebra routines
   Shared memory     :  Shared parallel matrices
   BLAS/LAPACK       :  OpenBLAS 0.3.15  USE64BITINT DYNAMIC_ARCH NO_AFFINITY Haswell SINGLE_THREADED
        Core in use  :  Haswell
   Copyright (c) 2011-2014, The OpenBLAS Project


Your calculation utilizes the atom-pairwise dispersion correction
with the zero-damping scheme (D30)
Cite in your paper:
S.Grimme, J.Antony, S.Ehrlich and H.Krieg, J.Chem.Phys., 132, (2010), 154104 
   

XCFun DFT library Copyright 2009-2010 Ulf Ekstrom and contributors.
See http://admol.org/xcfun for more information.
This is free software; see the source code for copying conditions.
There is ABSOLUTELY NO WARRANTY; not even for MERCHANTABILITY or FITNESS FOR A PARTICULAR PURPOSE.
For details see the documentation.
Scientific users of this library should cite U. Ekstrom, L. Visscher, R. Bast, A. J. Thorvaldsen and K. Ruud;
J.Chem.Theor.Comp. 2010, DOI: 10.1021/ct100117s
XCFun Version 0.99 

================================================================================

----- Orbital basis set information -----
Your calculation utilizes the basis: def2-SVPD
   F. Weigend and R. Ahlrichs, Phys. Chem. Chem. Phys. 7, 3297 (2005).
   D. Rappoport and F. Furche, J. Chem. Phys. 133 134105 (2010).

----- AuxJ basis set information -----
Your calculation utilizes the auxiliary basis: def2/J
   F. Weigend, Phys. Chem. Chem. Phys. 8, 1057 (2006).

================================================================================
                                        WARNINGS
                       Please study these warnings very carefully!
================================================================================


WARNING: Minnesota functionals are quite sensitive to the integration grid.
         see SE Wheeler, KN Houk, JCTC 2010, 6, 395,
             N Mardirossian, M Head-Gordon, JCTC 2016, 12, 4303.
         DEFGRID3 seems to be a minimum grid for reliable results with these functionals!
  ===> : Please increase the integration grid!


INFO   : the flag for use of the SHARK integral package has been found!

================================================================================
                                       INPUT FILE
================================================================================
NAME = 18Feb_SVPD_M062X_C3_wt_wb97_typm1_pos.com
|  1> !M062X D3Zero RIJCOSX def2-SVPD def2/J TightSCF 
|  2> *xyz 0 1
|  3> C          3.38093        2.08304       -3.35013
|  4> N          4.53592        1.18245       -3.42852
|  5> C          4.67196        0.12227       -4.22060
|  6> N          5.86602       -0.50785       -4.22428
|  7> C          3.69888       -0.31284       -4.98699
|  8> H          2.73141       -0.05009       -4.84900
|  9> H          3.89005       -1.05517       -5.64373
| 10> H          5.25193        1.30346       -2.72101
| 11> H          6.69516       -0.06232       -3.85160
| 12> H          5.97538       -1.39688       -4.69141
| 13> H          2.69962        1.85926       -4.14426
| 14> H          3.71221        3.09654       -3.43937
| 15> H          2.88835        1.95032       -2.40957
| 16> *
| 17> 
| 18> %MaxCore 64000
| 19> 
| 20> %pal nprocs 8
| 21> end  
| 22> 
| 23> %scf
| 24>   MaxIter 150
| 25> end
| 26> 
| 27> 
| 28>                          ****END OF INPUT****
================================================================================

                       ****************************
                       * Single Point Calculation *
                       ****************************

---------------------------------
CARTESIAN COORDINATES (ANGSTROEM)
---------------------------------
  C      3.380930    2.083040   -3.350130
  N      4.535920    1.182450   -3.428520
  C      4.671960    0.122270   -4.220600
  N      5.866020   -0.507850   -4.224280
  C      3.698880   -0.312840   -4.986990
  H      2.731410   -0.050090   -4.849000
  H      3.890050   -1.055170   -5.643730
  H      5.251930    1.303460   -2.721010
  H      6.695160   -0.062320   -3.851600
  H      5.975380   -1.396880   -4.691410
  H      2.699620    1.859260   -4.144260
  H      3.712210    3.096540   -3.439370
  H      2.888350    1.950320   -2.409570

----------------------------
CARTESIAN COORDINATES (A.U.)
----------------------------
  NO LB      ZA    FRAG     MASS         X           Y           Z
   0 C     6.0000    0    12.011    6.389032    3.936375   -6.330828
   1 N     7.0000    0    14.007    8.571647    2.234507   -6.478964
   2 C     6.0000    0    12.011    8.828725    0.231057   -7.975778
   3 N     7.0000    0    14.007   11.085171   -0.959697   -7.982732
   4 C     6.0000    0    12.011    6.989870   -0.591182   -9.424045
   5 H     1.0000    0     1.008    5.161617   -0.094656   -9.163282
   6 H     1.0000    0     1.008    7.351129   -1.993982  -10.665104
   7 H     1.0000    0     1.008    9.924709    2.463182   -5.141964
   8 H     1.0000    0     1.008   12.652019   -0.117768   -7.278469
   9 H     1.0000    0     1.008   11.291832   -2.639721   -8.865480
  10 H     1.0000    0     1.008    5.101542    3.513492   -7.831516
  11 H     1.0000    0     1.008    7.015060    5.851613   -6.499467
  12 H     1.0000    0     1.008    5.458190    3.685571   -4.553427

--------------------------------
INTERNAL COORDINATES (ANGSTROEM)
--------------------------------
 C      0   0   0     0.000000000000     0.00000000     0.00000000
 N      1   0   0     1.466700119418     0.00000000     0.00000000
 C      2   1   0     1.330368084554   126.98938656     0.00000000
 N      3   2   1     1.350127416357   117.64459308   174.24709975
 C      3   2   1     1.312843871372   122.40398904   354.61462441
 H      5   3   2     1.011966898421   122.88508084   342.67073608
 H      5   3   2     1.009409344815   118.89240317   173.11235798
 H      2   1   3     1.013846211365   116.45877876   188.90566997
 H      4   3   2     1.012353941515   121.19466995   343.47510404
 H      4   3   2     1.010219969809   120.51230720   170.23250373
 H      1   2   3     1.070001524018   109.47108775   351.09458151
 H      1   2   3     1.069996479433   109.47145425   231.09421920
 H      1   2   3     1.070001293644   109.47143333   111.09416317

---------------------------
INTERNAL COORDINATES (A.U.)
---------------------------
 C      0   0   0     0.000000000000     0.00000000     0.00000000
 N      1   0   0     2.771661546289     0.00000000     0.00000000
 C      2   1   0     2.514031337117   126.98938656     0.00000000
 N      3   2   1     2.551371062814   117.64459308   174.24709975
 C      3   2   1     2.480915373491   122.40398904   354.61462441
 H      5   3   2     1.912340294610   122.88508084   342.67073608
 H      5   3   2     1.907507218721   118.89240317   173.11235798
 H      2   1   3     1.915891681394   116.45877876   188.90566997
 H      4   3   2     1.913071700058   121.19466995   343.47510404
 H      4   3   2     1.909039077956   120.51230720   170.23250373
 H      1   2   3     2.022009843272   109.47108775   351.09458151
 H      1   2   3     2.022000310389   109.47145425   231.09421920
 H      1   2   3     2.022009407929   109.47143333   111.09416317

---------------------
BASIS SET INFORMATION
---------------------
There are 3 groups of distinct atoms

 Group   1 Type C   : 8s4p2d contracted to 4s2p2d pattern {5111/31/11}
 Group   2 Type N   : 8s4p2d contracted to 4s2p2d pattern {5111/31/11}
 Group   3 Type H   : 4s2p contracted to 2s2p pattern {31/11}

Atom   0C    basis set group =>   1
Atom   1N    basis set group =>   2
Atom   2C    basis set group =>   1
Atom   3N    basis set group =>   2
Atom   4C    basis set group =>   1
Atom   5H    basis set group =>   3
Atom   6H    basis set group =>   3
Atom   7H    basis set group =>   3
Atom   8H    basis set group =>   3
Atom   9H    basis set group =>   3
Atom  10H    basis set group =>   3
Atom  11H    basis set group =>   3
Atom  12H    basis set group =>   3
---------------------------------
AUXILIARY/J BASIS SET INFORMATION
---------------------------------
There are 3 groups of distinct atoms

 Group   1 Type C   : 12s5p4d2f1g contracted to 6s4p3d1f1g pattern {711111/2111/211/2/1}
 Group   2 Type N   : 12s5p4d2f1g contracted to 6s4p3d1f1g pattern {711111/2111/211/2/1}
 Group   3 Type H   : 5s2p1d contracted to 3s1p1d pattern {311/2/1}

Atom   0C    basis set group =>   1
Atom   1N    basis set group =>   2
Atom   2C    basis set group =>   1
Atom   3N    basis set group =>   2
Atom   4C    basis set group =>   1
Atom   5H    basis set group =>   3
Atom   6H    basis set group =>   3
Atom   7H    basis set group =>   3
Atom   8H    basis set group =>   3
Atom   9H    basis set group =>   3
Atom  10H    basis set group =>   3
Atom  11H    basis set group =>   3
Atom  12H    basis set group =>   3


           ************************************************************
           *        Program running with 8 parallel MPI-processes     *
           *              working on a common directory               *
           ************************************************************
------------------------------------------------------------------------------
                           ORCA GTO INTEGRAL CALCULATION
                           -- RI-GTO INTEGRALS CHOSEN --
------------------------------------------------------------------------------
------------------------------------------------------------------------------
                   ___                                                        
                  /   \      - P O W E R E D   B Y -                         
                 /     \                                                     
                 |  |  |   _    _      __       _____    __    __             
                 |  |  |  | |  | |    /  \     |  _  \  |  |  /  |          
                  \  \/   | |  | |   /    \    | | | |  |  | /  /          
                 / \  \   | |__| |  /  /\  \   | |_| |  |  |/  /          
                |  |  |   |  __  | /  /__\  \  |    /   |      \           
                |  |  |   | |  | | |   __   |  |    \   |  |\   \          
                \     /   | |  | | |  |  |  |  | |\  \  |  | \   \       
                 \___/    |_|  |_| |__|  |__|  |_| \__\ |__|  \__/        
                                                                              
                      - O R C A' S   B I G   F R I E N D -                    
                                      &                                       
                       - I N T E G R A L  F E E D E R -                       
                                                                              
 v1 FN, 2020, v2 2021                                                         
------------------------------------------------------------------------------


Reading SHARK input file 18Feb_SVPD_M062X_C3_wt_wb97_typm1_pos.SHARKINP.tmp ... ok
----------------------
SHARK INTEGRAL PACKAGE
----------------------

Number of atoms                             ...     13
Number of basis functions                   ...    164
Number of shells                            ...     72
Maximum angular momentum                    ...      2
Integral batch strategy                     ... SHARK/LIBINT Hybrid
RI-J (if used) integral strategy            ... SPLIT-RIJ (Revised 2003 algorithm where possible)
Printlevel                                  ...      1
Contraction scheme used                     ... SEGMENTED contraction
Coulomb Range Separation                    ... NOT USED
Exchange Range Separation                   ... NOT USED
Finite Nucleus Model                        ... NOT USED
Auxiliary Coulomb fitting basis             ... AVAILABLE
   # of basis functions in Aux-J            ...    333
   # of shells in Aux-J                     ...    115
   Maximum angular momentum in Aux-J        ...      4
Auxiliary J/K fitting basis                 ... NOT available
Auxiliary Correlation fitting basis         ... NOT available
Auxiliary 'external' fitting basis          ... NOT available
Integral threshold                          ...     2.500000e-11
Primitive cut-off                           ...     2.500000e-12
Primitive pair pre-selection threshold      ...     2.500000e-12

Calculating pre-screening integrals         ... done (  0.0 sec) Dimension = 72
Organizing shell pair data                  ... done (  0.0 sec)
Shell pair information
Total number of shell pairs                 ...      2628
Shell pairs after pre-screening             ...      2604
Total number of primitive shell pairs       ...      7110
Primitive shell pairs kept                  ...      5998
          la=0 lb=0:    657 shell pairs
          la=1 lb=0:    927 shell pairs
          la=1 lb=1:    347 shell pairs
          la=2 lb=0:    358 shell pairs
          la=2 lb=1:    260 shell pairs
          la=2 lb=2:     55 shell pairs

Calculating one electron integrals          ... done (  0.0 sec)
Calculating RI/J V-Matrix + Cholesky decomp.... done (  0.0 sec)
Calculating Nuclear repulsion               ... done (  0.0 sec) ENN=    184.361852569727 Eh

SHARK setup successfully completed in   0.2 seconds

Maximum memory used throughout the entire GTOINT-calculation: 8.9 MB


           ************************************************************
           *        Program running with 8 parallel MPI-processes     *
           *              working on a common directory               *
           ************************************************************
-------------------------------------------------------------------------------
                                 ORCA SCF
-------------------------------------------------------------------------------

------------
SCF SETTINGS
------------
Hamiltonian:
 Density Functional     Method          .... DFT(GTOs)
 Exchange Functional    Exchange        .... M062X
 Correlation Functional Correlation     .... M062X
 Gradients option       PostSCFGGA      .... off
 Hybrid DFT is turned on
   Fraction HF Exchange ScalHFX         ....  0.540000
   Scaling of DF-GGA-X  ScalDFX         ....  0.460000
   Scaling of DF-GGA-C  ScalDFC         ....  1.000000
   Scaling of DF-LDA-C  ScalLDAC        ....  1.000000
   Perturbative correction              ....  0.000000
   Density functional embedding theory  .... OFF
 RI-approximation to the Coulomb term is turned on
   Number of AuxJ basis functions       .... 333
   RIJ-COSX (HFX calculated with COS-X)).... on


General Settings:
 Integral files         IntName         .... 18Feb_SVPD_M062X_C3_wt_wb97_typm1_pos
 Hartree-Fock type      HFTyp           .... RHF
 Total Charge           Charge          ....    0
 Multiplicity           Mult            ....    1
 Number of Electrons    NEL             ....   40
 Basis Dimension        Dim             ....  164
 Nuclear Repulsion      ENuc            ....    184.3618525697 Eh

Convergence Acceleration:
 DIIS                   CNVDIIS         .... on
   Start iteration      DIISMaxIt       ....    12
   Startup error        DIISStart       ....  0.200000
   # of expansion vecs  DIISMaxEq       ....     5
   Bias factor          DIISBfac        ....   1.050
   Max. coefficient     DIISMaxC        ....  10.000
 Trust-Rad. Augm. Hess. CNVTRAH         .... auto
   Auto Start mean grad. ratio tolernc. ....  1.125000
   Auto Start start iteration           ....    20
   Auto Start num. interpolation iter.  ....    10
   Max. Number of Micro iterations      ....    16
   Max. Number of Macro iterations      .... Maxiter - #DIIS iter
   Number of Davidson start vectors     ....     2
   Converg. threshold I  (grad. norm)   ....   1.000e-05
   Converg. threshold II (energy diff.) ....   1.000e-08
   Grad. Scal. Fac. for Micro threshold ....   0.100
   Minimum threshold for Micro iter.    ....   0.010
   NR start threshold (gradient norm)   ....   0.001
   Initial trust radius                 ....   0.400
   Minimum AH scaling param. (alpha)    ....   1.000
   Maximum AH scaling param. (alpha)    .... 1000.000
   Orbital update algorithm             .... Taylor
   White noise on init. David. guess    .... on
   Maximum white noise                  ....   0.010
   Quad. conv. algorithm                .... NR
 SOSCF                  CNVSOSCF        .... on
   Start iteration      SOSCFMaxIt      ....   150
   Startup grad/error   SOSCFStart      ....  0.003300
 Level Shifting         CNVShift        .... on
   Level shift para.    LevelShift      ....    0.2500
   Turn off err/grad.   ShiftErr        ....    0.0010
 Zerner damping         CNVZerner       .... off
 Static damping         CNVDamp         .... on
   Fraction old density DampFac         ....    0.7000
   Max. Damping (<1)    DampMax         ....    0.9800
   Min. Damping (>=0)   DampMin         ....    0.0000
   Turn off err/grad.   DampErr         ....    0.1000
 Fernandez-Rico         CNVRico         .... off

SCF Procedure:
 Maximum # iterations   MaxIter         ....   150
 SCF integral mode      SCFMode         .... Direct
   Integral package                     .... SHARK and LIBINT hybrid scheme
 Reset frequency        DirectResetFreq ....    20
 Integral Threshold     Thresh          ....  2.500e-11 Eh
 Primitive CutOff       TCut            ....  2.500e-12 Eh

Convergence Tolerance:
 Convergence Check Mode ConvCheckMode   .... Total+1el-Energy
 Convergence forced     ConvForced      .... 0
 Energy Change          TolE            ....  1.000e-08 Eh
 1-El. energy change                    ....  1.000e-05 Eh
 Orbital Gradient       TolG            ....  1.000e-05
 Orbital Rotation angle TolX            ....  1.000e-05
 DIIS Error             TolErr          ....  5.000e-07


Diagonalization of the overlap matrix:
Smallest eigenvalue                        ... 6.892e-05
Time for diagonalization                   ...    0.008 sec
Threshold for overlap eigenvalues          ... 1.000e-08
Number of eigenvalues below threshold      ... 0
Time for construction of square roots      ...    0.008 sec
Total time needed                          ...    0.017 sec

Time for model grid setup =    0.055 sec

------------------------------
INITIAL GUESS: MODEL POTENTIAL
------------------------------
Loading Hartree-Fock densities                     ... done
Calculating cut-offs                               ... done
Initializing the effective Hamiltonian             ... done
Setting up the integral package (SHARK)            ... done
Starting the Coulomb interaction                   ... done (   0.0 sec)
Reading the grid                                   ... done
Mapping shells                                     ... done
Starting the XC term evaluation                    ... done (   0.0 sec)
  promolecular density results
     # of electrons  =     39.993826811
     EX              =    -30.863755589
     EC              =     -1.312016151
     EX+EC           =    -32.175771740
Transforming the Hamiltonian                       ... done (   0.0 sec)
Diagonalizing the Hamiltonian                      ... done (   0.0 sec)
Back transforming the eigenvectors                 ... done (   0.0 sec)
Now organizing SCF variables                       ... done
                      ------------------
                      INITIAL GUESS DONE (   0.1 sec)
                      ------------------
-------------------
DFT GRID GENERATION
-------------------

General Integration Accuracy     IntAcc      ... 4.388
Radial Grid Type                 RadialGrid  ... OptM3 with GC (2021)
Angular Grid (max. ang.)         AngularGrid ... 4 (Lebedev-302)
Angular grid pruning method      GridPruning ... 4 (adaptive)
Weight generation scheme         WeightScheme... Becke
Basis function cutoff            BFCut       ... 1.0000e-11
Integration weight cutoff        WCut        ... 1.0000e-14
Angular grids for H and He will be reduced by one unit
Partially contracted basis set               ... off
Rotationally invariant grid construction     ... off

Total number of grid points                  ...    57725
Total number of batches                      ...      910
Average number of points per batch           ...       63
Average number of grid points per atom       ...     4440
Time for grid setup =    0.313 sec

--------------------
COSX GRID GENERATION
--------------------

GRIDX 1
-------
General Integration Accuracy     IntAcc      ... 3.816
Radial Grid Type                 RadialGrid  ... OptM3 with GC (2021)
Angular Grid (max. ang.)         AngularGrid ... 1 (Lebedev-50)
Angular grid pruning method      GridPruning ... 4 (adaptive)
Weight generation scheme         WeightScheme... Becke
Basis function cutoff            BFCut       ... 1.0000e-11
Integration weight cutoff        WCut        ... 1.0000e-14
Angular grids for H and He will be reduced by one unit
Partially contracted basis set               ... on
Rotationally invariant grid construction     ... off

Total number of grid points                  ...     7218
Total number of batches                      ...      121
Average number of points per batch           ...       59
Average number of grid points per atom       ...      555
UseSFitting                                  ... on

GRIDX 2
-------
General Integration Accuracy     IntAcc      ... 4.020
Radial Grid Type                 RadialGrid  ... OptM3 with GC (2021)
Angular Grid (max. ang.)         AngularGrid ... 2 (Lebedev-110)
Angular grid pruning method      GridPruning ... 4 (adaptive)
Weight generation scheme         WeightScheme... Becke
Basis function cutoff            BFCut       ... 1.0000e-11
Integration weight cutoff        WCut        ... 1.0000e-14
Angular grids for H and He will be reduced by one unit
Partially contracted basis set               ... on
Rotationally invariant grid construction     ... off

Total number of grid points                  ...    15977
Total number of batches                      ...      257
Average number of points per batch           ...       62
Average number of grid points per atom       ...     1229
UseSFitting                                  ... on

GRIDX 3
-------
General Integration Accuracy     IntAcc      ... 4.338
Radial Grid Type                 RadialGrid  ... OptM3 with GC (2021)
Angular Grid (max. ang.)         AngularGrid ... 3 (Lebedev-194)
Angular grid pruning method      GridPruning ... 4 (adaptive)
Weight generation scheme         WeightScheme... Becke
Basis function cutoff            BFCut       ... 1.0000e-11
Integration weight cutoff        WCut        ... 1.0000e-14
Angular grids for H and He will be reduced by one unit
Partially contracted basis set               ... on
Rotationally invariant grid construction     ... off

Total number of grid points                  ...    36647
Total number of batches                      ...      580
Average number of points per batch           ...       63
Average number of grid points per atom       ...     2819
UseSFitting                                  ... on

Time for X-Grid setup             =    0.242 sec

--------------
SCF ITERATIONS
--------------
ITER       Energy         Delta-E        Max-DP      RMS-DP      [F,P]     Damp
               ***  Starting incremental Fock matrix formation  ***
  0   -228.0867141237   0.000000000000 0.10419413  0.00333097  0.2291174 0.7000
  1   -228.1895562303  -0.102842106584 0.06545880  0.00248260  0.1306778 0.7000
                               ***Turning on DIIS***
  2   -228.2386942305  -0.049138000219 0.17244188  0.00505935  0.0595729 0.0000
  3   -228.3098986776  -0.071204447091 0.05240827  0.00157033  0.0627194 0.0000
  4   -228.3258199087  -0.015921231165 0.01500401  0.00051711  0.0110483 0.0000
                      *** Initiating the SOSCF procedure ***
                           *** Shutting down DIIS ***
                      *** Re-Reading the Fockian *** 
                      *** Removing any level shift *** 
ITER      Energy       Delta-E        Grad      Rot      Max-DP    RMS-DP
  5   -228.32633800  -0.0005180890  0.000852  0.000852  0.004533  0.000190
               *** Restarting incremental Fock matrix formation ***
  6   -228.32643658  -0.0000985815  0.000307  0.000767  0.003431  0.000174
  7   -228.32644219  -0.0000056082  0.000337  0.000692  0.001316  0.000055
  8   -228.32644550  -0.0000033142  0.000047  0.000105  0.000477  0.000025
  9   -228.32644561  -0.0000001047  0.000029  0.000042  0.000191  0.000006
 10   -228.32644568  -0.0000000735  0.000005  0.000015  0.000037  0.000002
                  ***Gradient check signals convergence***
              ***Rediagonalizing the Fockian in SOSCF/NRSCF***

               *****************************************************
               *                     SUCCESS                       *
               *           SCF CONVERGED AFTER  11 CYCLES          *
               *****************************************************

Old exchange energy                            =    -17.112479019 Eh
New exchange energy                            =    -17.112477489 Eh
Exchange energy change after final integration =      0.000001530 Eh
Total energy after final integration           =   -228.326444152 Eh
Final COS-X integration done in                =     0.861 sec

----------------
TOTAL SCF ENERGY
----------------

Total Energy       :         -228.32644415 Eh           -6213.07841 eV

Components:
Nuclear Repulsion  :          184.36185257 Eh            5016.74105 eV
Electronic Energy  :         -412.68829672 Eh          -11229.81947 eV
One Electron Energy:         -672.26901412 Eh          -18293.36989 eV
Two Electron Energy:          259.58071740 Eh            7063.55042 eV
Max COSX asymmetry :            0.00000531 Eh               0.00014 eV

Virial components:
Potential Energy   :         -454.69585161 Eh          -12372.90315 eV
Kinetic Energy     :          226.36940746 Eh            6159.82474 eV
Virial Ratio       :            2.00864532


DFT components:
N(Alpha)           :       19.999975584235 electrons
N(Beta)            :       19.999975584235 electrons
N(Total)           :       39.999951168470 electrons
E(XC)              :      -15.964831021188 Eh       
DFET-embed. en.    :        0.000000000000 Eh       

---------------
SCF CONVERGENCE
---------------

  Last Energy change         ...   -1.4050e-09  Tolerance :   1.0000e-08
  Last MAX-Density change    ...    4.4409e-15  Tolerance :   1.0000e-07
  Last RMS-Density change    ...    5.3317e-17  Tolerance :   5.0000e-09
  Last Orbital Gradient      ...    1.7035e-06  Tolerance :   1.0000e-05
  Last Orbital Rotation      ...    3.2641e-06  Tolerance :   1.0000e-05

             **** THE GBW FILE WAS UPDATED (18Feb_SVPD_M062X_C3_wt_wb97_typm1_pos.gbw) ****
             **** DENSITY 18Feb_SVPD_M062X_C3_wt_wb97_typm1_pos.scfp WAS UPDATED ****
             **** ENERGY FILE WAS UPDATED (18Feb_SVPD_M062X_C3_wt_wb97_typm1_pos.en.tmp) ****
             **** THE GBW FILE WAS UPDATED (18Feb_SVPD_M062X_C3_wt_wb97_typm1_pos.gbw) ****
             **** DENSITY 18Feb_SVPD_M062X_C3_wt_wb97_typm1_pos.scfp WAS UPDATED ****
----------------
ORBITAL ENERGIES
----------------

  NO   OCC          E(Eh)            E(eV) 
   0   2.0000     -14.762659      -401.7124 
   1   2.0000     -14.757797      -401.5801 
   2   2.0000     -10.597352      -288.3686 
   3   2.0000     -10.575965      -287.7866 
   4   2.0000     -10.463358      -284.7224 
   5   2.0000      -1.061283       -28.8790 
   6   2.0000      -0.969183       -26.3728 
   7   2.0000      -0.809368       -22.0240 
   8   2.0000      -0.780298       -21.2330 
   9   2.0000      -0.643060       -17.4985 
  10   2.0000      -0.619363       -16.8537 
  11   2.0000      -0.587828       -15.9956 
  12   2.0000      -0.524415       -14.2701 
  13   2.0000      -0.507182       -13.8011 
  14   2.0000      -0.484466       -13.1830 
  15   2.0000      -0.452013       -12.2999 
  16   2.0000      -0.447765       -12.1843 
  17   2.0000      -0.423035       -11.5114 
  18   2.0000      -0.309958        -8.4344 
  19   2.0000      -0.221344        -6.0231 
  20   0.0000       0.037861         1.0302 
  21   0.0000       0.057947         1.5768 
  22   0.0000       0.071450         1.9443 
  23   0.0000       0.101407         2.7594 
  24   0.0000       0.107549         2.9266 
  25   0.0000       0.113504         3.0886 
  26   0.0000       0.121549         3.3075 
  27   0.0000       0.135715         3.6930 
  28   0.0000       0.159080         4.3288 
  29   0.0000       0.165683         4.5085 
  30   0.0000       0.173001         4.7076 
  31   0.0000       0.187393         5.0992 
  32   0.0000       0.193527         5.2661 
  33   0.0000       0.211980         5.7683 
  34   0.0000       0.216670         5.8959 
  35   0.0000       0.229442         6.2434 
  36   0.0000       0.252299         6.8654 
  37   0.0000       0.257595         7.0095 
  38   0.0000       0.277364         7.5475 
  39   0.0000       0.280416         7.6305 
  40   0.0000       0.293161         7.9773 
  41   0.0000       0.299154         8.1404 
  42   0.0000       0.307756         8.3745 
  43   0.0000       0.321698         8.7538 
  44   0.0000       0.331942         9.0326 
  45   0.0000       0.338659         9.2154 
  46   0.0000       0.350222         9.5300 
  47   0.0000       0.357595         9.7306 
  48   0.0000       0.363639         9.8951 
  49   0.0000       0.376175        10.2362 
  50   0.0000       0.377946        10.2844 
  51   0.0000       0.384935        10.4746 
  52   0.0000       0.390817        10.6347 
  53   0.0000       0.400706        10.9038 
  54   0.0000       0.420305        11.4371 
  55   0.0000       0.424064        11.5394 
  56   0.0000       0.430626        11.7179 
  57   0.0000       0.444819        12.1041 
  58   0.0000       0.457674        12.4539 
  59   0.0000       0.467661        12.7257 
  60   0.0000       0.470439        12.8013 
  61   0.0000       0.482285        13.1236 
  62   0.0000       0.487644        13.2695 
  63   0.0000       0.498583        13.5671 
  64   0.0000       0.503487        13.7006 
  65   0.0000       0.513408        13.9705 
  66   0.0000       0.526428        14.3248 
  67   0.0000       0.531256        14.4562 
  68   0.0000       0.548378        14.9221 
  69   0.0000       0.569974        15.5098 
  70   0.0000       0.577040        15.7021 
  71   0.0000       0.585050        15.9200 
  72   0.0000       0.596909        16.2427 
  73   0.0000       0.601275        16.3615 
  74   0.0000       0.616990        16.7891 
  75   0.0000       0.635929        17.3045 
  76   0.0000       0.638794        17.3825 
  77   0.0000       0.654651        17.8140 
  78   0.0000       0.691329        18.8120 
  79   0.0000       0.698135        18.9972 
  80   0.0000       0.718816        19.5600 
  81   0.0000       0.725163        19.7327 
  82   0.0000       0.750565        20.4239 
  83   0.0000       0.765873        20.8405 
  84   0.0000       0.775282        21.0965 
  85   0.0000       0.794357        21.6155 
  86   0.0000       0.829190        22.5634 
  87   0.0000       0.949621        25.8405 
  88   0.0000       0.973310        26.4851 
  89   0.0000       0.985404        26.8142 
  90   0.0000       1.006205        27.3802 
  91   0.0000       1.006395        27.3854 
  92   0.0000       1.025539        27.9063 
  93   0.0000       1.052323        28.6352 
  94   0.0000       1.064777        28.9741 
  95   0.0000       1.081694        29.4344 
  96   0.0000       1.126895        30.6644 
  97   0.0000       1.132559        30.8185 
  98   0.0000       1.175532        31.9878 
  99   0.0000       1.178813        32.0771 
 100   0.0000       1.203051        32.7367 
 101   0.0000       1.235801        33.6279 
 102   0.0000       1.266474        34.4625 
 103   0.0000       1.288923        35.0734 
 104   0.0000       1.310134        35.6506 
 105   0.0000       1.329640        36.1814 
 106   0.0000       1.374076        37.3905 
 107   0.0000       1.401391        38.1338 
 108   0.0000       1.413277        38.4572 
 109   0.0000       1.573987        42.8304 
 110   0.0000       1.602863        43.6161 
 111   0.0000       1.611073        43.8395 
 112   0.0000       1.627732        44.2928 
 113   0.0000       1.640491        44.6400 
 114   0.0000       1.680464        45.7278 
 115   0.0000       1.721285        46.8386 
 116   0.0000       1.736192        47.2442 
 117   0.0000       1.757323        47.8192 
 118   0.0000       1.787161        48.6311 
 119   0.0000       1.821987        49.5788 
 120   0.0000       1.854998        50.4771 
 121   0.0000       1.895524        51.5798 
 122   0.0000       1.922251        52.3071 
 123   0.0000       1.939750        52.7833 
 124   0.0000       1.972549        53.6758 
 125   0.0000       1.989220        54.1294 
 126   0.0000       2.024600        55.0922 
 127   0.0000       2.058093        56.0036 
 128   0.0000       2.062448        56.1221 
 129   0.0000       2.081624        56.6439 
 130   0.0000       2.100996        57.1710 
 131   0.0000       2.134062        58.0708 
 132   0.0000       2.162689        58.8498 
 133   0.0000       2.174727        59.1773 
 134   0.0000       2.190495        59.6064 
 135   0.0000       2.227719        60.6193 
 136   0.0000       2.257077        61.4182 
 137   0.0000       2.326077        63.2958 
 138   0.0000       2.338102        63.6230 
 139   0.0000       2.414697        65.7073 
 140   0.0000       2.454794        66.7983 
 141   0.0000       2.474946        67.3467 
 142   0.0000       2.486658        67.6654 
 143   0.0000       2.525001        68.7088 
 144   0.0000       2.559142        69.6378 
 145   0.0000       2.603915        70.8561 
 146   0.0000       2.626201        71.4626 
 147   0.0000       2.685149        73.0666 
 148   0.0000       2.707669        73.6794 
 149   0.0000       2.744415        74.6793 
 150   0.0000       2.831459        77.0479 
 151   0.0000       2.866773        78.0089 
 152   0.0000       2.938027        79.9478 
 153   0.0000       2.977823        81.0307 
 154   0.0000       3.098817        84.3231 
 155   0.0000       3.112179        84.6867 
 156   0.0000       3.200545        87.0912 
 157   0.0000       3.248167        88.3871 
 158   0.0000       3.258615        88.6714 
 159   0.0000       3.332512        90.6823 
 160   0.0000       3.367521        91.6349 
 161   0.0000       3.408429        92.7481 
 162   0.0000       3.710205       100.9598 
 163   0.0000       3.752364       102.1070 

                    ********************************
                    * MULLIKEN POPULATION ANALYSIS *
                    ********************************

-----------------------
MULLIKEN ATOMIC CHARGES
-----------------------
   0 C :    1.132207
   1 N :   -0.606087
   2 C :    1.016704
   3 N :   -0.076702
   4 C :    0.096546
   5 H :   -0.202595
   6 H :   -0.399037
   7 H :   -0.361711
   8 H :   -0.176068
   9 H :   -0.020156
  10 H :   -0.137473
  11 H :   -0.119847
  12 H :   -0.145779
Sum of atomic charges:   -0.0000000

--------------------------------
MULLIKEN REDUCED ORBITAL CHARGES
--------------------------------
  0 C s       :     2.378744  s :     2.378744
      pz      :     0.865353  p :     2.513665
      px      :     0.806805
      py      :     0.841508
      dz2     :    -0.034437  d :    -0.024616
      dxz     :     0.014315
      dyz     :    -0.014172
      dx2y2   :     0.005403
      dxy     :     0.004275
  1 N s       :     3.501731  s :     3.501731
      pz      :     1.304963  p :     3.844142
      px      :     1.249799
      py      :     1.289379
      dz2     :     0.036823  d :     0.260214
      dxz     :     0.054882
      dyz     :     0.029963
      dx2y2   :     0.086597
      dxy     :     0.051948
  2 C s       :     2.607057  s :     2.607057
      pz      :     0.753296  p :     2.065819
      px      :     0.532035
      py      :     0.780488
      dz2     :     0.179451  d :     0.310419
      dxz     :    -0.000095
      dyz     :     0.072867
      dx2y2   :     0.088823
      dxy     :    -0.030627
  3 N s       :     3.354984  s :     3.354984
      pz      :     1.535663  p :     3.715163
      px      :     1.028538
      py      :     1.150962
      dz2     :     0.009282  d :     0.006554
      dxz     :     0.006186
      dyz     :     0.000246
      dx2y2   :    -0.001572
      dxy     :    -0.007588
  4 C s       :     3.126841  s :     3.126841
      pz      :     0.948454  p :     2.647804
      px      :     0.787805
      py      :     0.911545
      dz2     :     0.034881  d :     0.128810
      dxz     :     0.015033
      dyz     :     0.027319
      dx2y2   :     0.073551
      dxy     :    -0.021975
  5 H s       :     1.197555  s :     1.197555
      pz      :    -0.003284  p :     0.005040
      px      :     0.019847
      py      :    -0.011523
  6 H s       :     1.338975  s :     1.338975
      pz      :     0.042744  p :     0.060063
      px      :    -0.017889
      py      :     0.035208
  7 H s       :     1.286059  s :     1.286059
      pz      :     0.034964  p :     0.075653
      px      :     0.026659
      py      :     0.014030
  8 H s       :     1.112081  s :     1.112081
      pz      :     0.056189  p :     0.063988
      px      :     0.028360
      py      :    -0.020561
  9 H s       :     0.997677  s :     0.997677
      pz      :     0.041978  p :     0.022480
      px      :    -0.018664
      py      :    -0.000834
 10 H s       :     1.015722  s :     1.015722
      pz      :     0.052729  p :     0.121751
      px      :     0.019591
      py      :     0.049430
 11 H s       :     1.100196  s :     1.100196
      pz      :    -0.058633  p :     0.019651
      px      :     0.043910
      py      :     0.034374
 12 H s       :     1.128711  s :     1.128711
      pz      :     0.038031  p :     0.017069
      px      :    -0.007910
      py      :    -0.013053


                     *******************************
                     * LOEWDIN POPULATION ANALYSIS *
                     *******************************

----------------------
LOEWDIN ATOMIC CHARGES
----------------------
   0 C :    0.231648
   1 N :   -0.065332
   2 C :   -0.238927
   3 N :    0.169772
   4 C :    0.152142
   5 H :   -0.104185
   6 H :   -0.098270
   7 H :    0.019466
   8 H :   -0.010981
   9 H :    0.002881
  10 H :   -0.026045
  11 H :   -0.016739
  12 H :   -0.015429

-------------------------------
LOEWDIN REDUCED ORBITAL CHARGES
-------------------------------
  0 C s       :     2.683220  s :     2.683220
      pz      :     0.939342  p :     2.656699
      px      :     0.843387
      py      :     0.873970
      dz2     :     0.056884  d :     0.428433
      dxz     :     0.114108
      dyz     :     0.039196
      dx2y2   :     0.133748
      dxy     :     0.084498
  1 N s       :     2.912795  s :     2.912795
      pz      :     1.215555  p :     3.533838
      px      :     1.129704
      py      :     1.188579
      dz2     :     0.099184  d :     0.618699
      dxz     :     0.128019
      dyz     :     0.103302
      dx2y2   :     0.151597
      dxy     :     0.136598
  2 C s       :     2.630925  s :     2.630925
      pz      :     0.810545  p :     2.506286
      px      :     0.881291
      py      :     0.814450
      dz2     :     0.221342  d :     1.101716
      dxz     :     0.222430
      dyz     :     0.168232
      dx2y2   :     0.238425
      dxy     :     0.251287
  3 N s       :     2.930433  s :     2.930433
      pz      :     1.339728  p :     3.554706
      px      :     1.078882
      py      :     1.136096
      dz2     :     0.029287  d :     0.345089
      dxz     :     0.074408
      dyz     :     0.037114
      dx2y2   :     0.111905
      dxy     :     0.092374
  4 C s       :     2.721695  s :     2.721695
      pz      :     0.941924  p :     2.797189
      px      :     0.926782
      py      :     0.928483
      dz2     :     0.057925  d :     0.328974
      dxz     :     0.063729
      dyz     :     0.059306
      dx2y2   :     0.088897
      dxy     :     0.059117
  5 H s       :     0.760698  s :     0.760698
      pz      :     0.102286  p :     0.343488
      px      :     0.119149
      py      :     0.122053
  6 H s       :     0.771544  s :     0.771544
      pz      :     0.115758  p :     0.326726
      px      :     0.080800
      py      :     0.130169
  7 H s       :     0.656047  s :     0.656047
      pz      :     0.121306  p :     0.324487
      px      :     0.119140
      py      :     0.084041
  8 H s       :     0.665230  s :     0.665230
      pz      :     0.126664  p :     0.345751
      px      :     0.120342
      py      :     0.098745
  9 H s       :     0.653292  s :     0.653292
      pz      :     0.130029  p :     0.343827
      px      :     0.074956
      py      :     0.138842
 10 H s       :     0.724523  s :     0.724523
      pz      :     0.121894  p :     0.301522
      px      :     0.081206
      py      :     0.098422
 11 H s       :     0.756467  s :     0.756467
      pz      :     0.074059  p :     0.260273
      px      :     0.068366
      py      :     0.117848
 12 H s       :     0.756295  s :     0.756295
      pz      :     0.119135  p :     0.259134
      px      :     0.073497
      py      :     0.066502


                      *****************************
                      * MAYER POPULATION ANALYSIS *
                      *****************************

  NA   - Mulliken gross atomic population
  ZA   - Total nuclear charge
  QA   - Mulliken gross atomic charge
  VA   - Mayer's total valence
  BVA  - Mayer's bonded valence
  FA   - Mayer's free valence

  ATOM       NA         ZA         QA         VA         BVA        FA
  0 C      4.8678     6.0000     1.1322     3.2258     3.2258     0.0000
  1 N      7.6061     7.0000    -0.6061     4.2188     4.2188    -0.0000
  2 C      4.9833     6.0000     1.0167     3.0394     3.0394     0.0000
  3 N      7.0767     7.0000    -0.0767     3.7061     3.7061    -0.0000
  4 C      5.9035     6.0000     0.0965     3.8634     3.8634    -0.0000
  5 H      1.2026     1.0000    -0.2026     1.0522     1.0522    -0.0000
  6 H      1.3990     1.0000    -0.3990     1.0653     1.0653     0.0000
  7 H      1.3617     1.0000    -0.3617     1.0185     1.0185    -0.0000
  8 H      1.1761     1.0000    -0.1761     1.0066     1.0066    -0.0000
  9 H      1.0202     1.0000    -0.0202     0.8488     0.8488     0.0000
 10 H      1.1375     1.0000    -0.1375     1.2028     1.2028     0.0000
 11 H      1.1198     1.0000    -0.1198     0.9737     0.9737     0.0000
 12 H      1.1458     1.0000    -0.1458     0.9835     0.9835    -0.0000

  Mayer bond orders larger than 0.100000
B(  0-C ,  1-N ) :   0.8948 B(  0-C ,  7-H ) :  -0.1619 B(  0-C , 10-H ) :   0.8658 
B(  0-C , 11-H ) :   0.7852 B(  0-C , 12-H ) :   0.7954 B(  1-N ,  2-C ) :   0.9004 
B(  1-N ,  3-N ) :   0.1736 B(  1-N ,  4-C ) :   0.3067 B(  1-N ,  7-H ) :   1.3816 
B(  1-N , 10-H ) :   0.1593 B(  1-N , 11-H ) :   0.1867 B(  1-N , 12-H ) :   0.1914 
B(  2-C ,  3-N ) :   0.8302 B(  2-C ,  4-C ) :   1.5315 B(  2-C ,  5-H ) :   0.1101 
B(  2-C ,  6-H ) :   0.1243 B(  2-C ,  7-H ) :  -0.2445 B(  2-C ,  8-H ) :  -0.1307 
B(  3-N ,  4-C ) :   0.2438 B(  3-N ,  8-H ) :   1.2382 B(  3-N ,  9-H ) :   1.1402 
B(  4-C ,  5-H ) :   0.7585 B(  4-C ,  6-H ) :   0.9614 B(  8-H ,  9-H ) :  -0.1738 


-------
TIMINGS
-------

Total SCF time: 0 days 0 hours 0 min 8 sec 

Total time                  ....       8.791 sec
Sum of individual times     ....       8.613 sec  ( 98.0%)

Fock matrix formation       ....       7.829 sec  ( 89.1%)
  Split-RI-J                ....       0.556 sec  (  7.1% of F)
  Chain of spheres X        ....       4.517 sec  ( 57.7% of F)
  XC integration            ....       2.721 sec  ( 34.8% of F)
    Basis function eval.    ....       0.453 sec  ( 16.7% of XC)
    Density eval.           ....       0.843 sec  ( 31.0% of XC)
    XC-Functional eval.     ....       0.194 sec  (  7.1% of XC)
    XC-Potential eval.      ....       1.138 sec  ( 41.8% of XC)
Diagonalization             ....       0.041 sec  (  0.5%)
Density matrix formation    ....       0.004 sec  (  0.1%)
Population analysis         ....       0.007 sec  (  0.1%)
Initial guess               ....       0.067 sec  (  0.8%)
Orbital Transformation      ....       0.000 sec  (  0.0%)
Orbital Orthonormalization  ....       0.000 sec  (  0.0%)
DIIS solution               ....       0.026 sec  (  0.3%)
SOSCF solution              ....       0.029 sec  (  0.3%)
Grid generation             ....       0.610 sec  (  6.9%)

Maximum memory used throughout the entire SCF-calculation: 51.0 MB


-------------------------------------------------------------------------------
                          DFT DISPERSION CORRECTION                            
                                                                               
                              DFTD3 V3.1  Rev 1                                
                              USING zero damping                               
-------------------------------------------------------------------------------
The M062X functional is recognized
Active option DFTDOPT                   ...         3   

molecular C6(AA) [au] = 1312.240543 


            DFT-D V3
 parameters
 s6 scaling factor         :     1.0000 
 rs6 scaling factor        :     1.6190 
 s8 scaling factor         :     0.0000 
 rs8 scaling factor        :     1.0000 
 Damping factor alpha6     :    14.0000 
 Damping factor alpha8     :    16.0000 
 ad hoc parameters k1-k3   :    16.0000     1.3333    -4.0000 

 Edisp/kcal,au: -0.108071810973  -0.000172223375 
 E6   /kcal   :  -0.108071811 
 E8   /kcal   :  -0.000000000 
 % E8         :   0.000000000 

-------------------------   ----------------
Dispersion correction           -0.000172223
-------------------------   ----------------


-------------------------   --------------------
FINAL SINGLE POINT ENERGY      -228.326616374965
-------------------------   --------------------


                            ***************************************
                            *     ORCA property calculations      *
                            ***************************************

                                    ---------------------
                                    Active property flags
                                    ---------------------
   (+) Dipole Moment


------------------------------------------------------------------------------
                       ORCA ELECTRIC PROPERTIES CALCULATION
------------------------------------------------------------------------------

Dipole Moment Calculation                       ... on
Quadrupole Moment Calculation                   ... off
Polarizability Calculation                      ... off
GBWName                                         ... 18Feb_SVPD_M062X_C3_wt_wb97_typm1_pos.gbw
Electron density file                           ... 18Feb_SVPD_M062X_C3_wt_wb97_typm1_pos.scfp
The origin for moment calculation is the CENTER OF MASS  = ( 8.411152,  0.992410 -7.600401)

-------------
DIPOLE MOMENT
-------------
                                X             Y             Z
Electronic contribution:      2.29705      -1.01034       0.23222
Nuclear contribution   :     -1.64651       1.35250       0.40156
                        -----------------------------------------
Total Dipole Moment    :      0.65055       0.34216       0.63377
                        -----------------------------------------
Magnitude (a.u.)       :      0.97054
Magnitude (Debye)      :      2.46693



--------------------
Rotational spectrum 
--------------------
 
Rotational constants in cm-1:     0.339624     0.131069     0.096565 
Rotational constants in MHz : 10181.679558  3929.342810  2894.941560 

 Dipole components along the rotational axes: 
x,y,z [a.u.] :     0.122505     0.960124     0.071488 
x,y,z [Debye]:     0.311383     2.440441     0.181707 

 

Timings for individual modules:

Sum of individual times         ...        9.643 sec (=   0.161 min)
GTO integral calculation        ...        0.519 sec (=   0.009 min)   5.4 %
SCF iterations                  ...        9.125 sec (=   0.152 min)  94.6 %
                             ****ORCA TERMINATED NORMALLY****
TOTAL RUN TIME: 0 days 0 hours 0 minutes 10 seconds 163 msec
