
                                        *****************
                                        * O   R   C   A *
                                        *****************

                                            #,                                       
                                            ###                                      
                                            ####                                     
                                            #####                                    
                                            ######                                   
                                           ########,                                 
                                     ,,################,,,,,                         
                               ,,#################################,,                 
                          ,,##########################################,,             
                       ,#########################################, ''#####,          
                    ,#############################################,,   '####,        
                  ,##################################################,,,,####,       
                ,###########''''           ''''###############################       
              ,#####''   ,,,,##########,,,,          '''####'''          '####       
            ,##' ,,,,###########################,,,                        '##       
           ' ,,###''''                  '''############,,,                           
         ,,##''                                '''############,,,,        ,,,,,,###''
      ,#''                                            '''#######################'''  
     '                                                          ''''####''''         
             ,#######,   #######,   ,#######,      ##                                
            ,#'     '#,  ##    ##  ,#'     '#,    #''#        ######   ,####,        
            ##       ##  ##   ,#'  ##            #'  '#       #        #'  '#        
            ##       ##  #######   ##           ,######,      #####,   #    #        
            '#,     ,#'  ##    ##  '#,     ,#' ,#      #,         ##   #,  ,#        
             '#######'   ##     ##  '#######'  #'      '#     #####' # '####'        



                  #######################################################
                  #                        -***-                        #
                  #          Department of theory and spectroscopy      #
                  #    Directorship and core code : Frank Neese         #
                  #        Max Planck Institute fuer Kohlenforschung    #
                  #                Kaiser Wilhelm Platz 1               #
                  #                 D-45470 Muelheim/Ruhr               #
                  #                      Germany                        #
                  #                                                     #
                  #                  All rights reserved                #
                  #                        -***-                        #
                  #######################################################


                         Program Version 5.0.0 -  RELEASE  -
                                (SVN: $Rev: 19529$)
                ($Date: 2021-06-28 11:36:33 +0200 (Mo, 28 Jun 2021) $)


 With contributions from (in alphabetic order):
   Daniel Aravena         : Magnetic Suceptibility
   Michael Atanasov       : Ab Initio Ligand Field Theory (pilot matlab implementation)
   Alexander A. Auer      : GIAO ZORA, VPT2 properties, NMR spectrum
   Ute Becker             : Parallelization
   Giovanni Bistoni       : ED, misc. LED, open-shell LED, HFLD
   Martin Brehm           : Molecular dynamics
   Dmytro Bykov           : SCF Hessian
   Vijay G. Chilkuri      : MRCI spin determinant printing, contributions to CSF-ICE
   Dipayan Datta          : RHF DLPNO-CCSD density
   Achintya Kumar Dutta   : EOM-CC, STEOM-CC
   Dmitry Ganyushin       : Spin-Orbit,Spin-Spin,Magnetic field MRCI
   Miquel Garcia          : C-PCM Hessian, Gaussian charge scheme
   Yang Guo               : DLPNO-NEVPT2, F12-NEVPT2, CIM, IAO-localization
   Andreas Hansen         : Spin unrestricted coupled pair/coupled cluster methods
   Benjamin Helmich-Paris : MC-RPA, TRAH-SCF, COSX integrals
   Lee Huntington         : MR-EOM, pCC
   Robert Izsak           : Overlap fitted RIJCOSX, COSX-SCS-MP3, EOM
   Marcus Kettner         : VPT2
   Christian Kollmar      : KDIIS, OOCD, Brueckner-CCSD(T), CCSD density, CASPT2, CASPT2-K
   Simone Kossmann        : Meta GGA functionals, TD-DFT gradient, OOMP2, MP2 Hessian
   Martin Krupicka        : Initial AUTO-CI
   Lucas Lang             : DCDCAS
   Marvin Lechner         : AUTO-CI (C++ implementation), FIC-MRCC
   Dagmar Lenk            : GEPOL surface, SMD
   Dimitrios Liakos       : Extrapolation schemes; Compound Job, initial MDCI parallelization
   Dimitrios Manganas     : Further ROCIS development; embedding schemes
   Dimitrios Pantazis     : SARC Basis sets
   Anastasios Papadopoulos: AUTO-CI, single reference methods and gradients
   Taras Petrenko         : DFT Hessian,TD-DFT gradient, ASA, ECA, R-Raman, ABS, FL, XAS/XES, NRVS
   Peter Pinski           : DLPNO-MP2, DLPNO-MP2 Gradient
   Christoph Reimann      : Effective Core Potentials
   Marius Retegan         : Local ZFS, SOC
   Christoph Riplinger    : Optimizer, TS searches, QM/MM, DLPNO-CCSD(T), (RO)-DLPNO pert. Triples
   Tobias Risthaus        : Range-separated hybrids, TD-DFT gradient, RPA, STAB
   Michael Roemelt        : Original ROCIS implementation
   Masaaki Saitow         : Open-shell DLPNO-CCSD energy and density
   Barbara Sandhoefer     : DKH picture change effects
   Avijit Sen             : IP-ROCIS
   Kantharuban Sivalingam : CASSCF convergence, NEVPT2, FIC-MRCI
   Bernardo de Souza      : ESD, SOC TD-DFT
   Georgi Stoychev        : AutoAux, RI-MP2 NMR
   Willem Van den Heuvel  : Paramagnetic NMR
   Boris Wezisla          : Elementary symmetry handling
   Frank Wennmohs         : Technical directorship


 We gratefully acknowledge several colleagues who have allowed us to
 interface, adapt or use parts of their codes:
   Stefan Grimme, W. Hujo, H. Kruse, P. Pracht,  : VdW corrections, initial TS optimization,
                  C. Bannwarth, S. Ehlert          DFT functionals, gCP, sTDA/sTD-DF
   Ed Valeev, F. Pavosevic, A. Kumar             : LibInt (2-el integral package), F12 methods
   Garnet Chan, S. Sharma, J. Yang, R. Olivares  : DMRG
   Ulf Ekstrom                                   : XCFun DFT Library
   Mihaly Kallay                                 : mrcc  (arbitrary order and MRCC methods)
   Jiri Pittner, Ondrej Demel                    : Mk-CCSD
   Frank Weinhold                                : gennbo (NPA and NBO analysis)
   Christopher J. Cramer and Donald G. Truhlar   : smd solvation model
   Lars Goerigk                                  : TD-DFT with DH, B97 family of functionals
   V. Asgeirsson, H. Jonsson                     : NEB implementation
   FAccTs GmbH                                   : IRC, NEB, NEB-TS, DLPNO-Multilevel, CI-OPT
                                                   MM, QMMM, 2- and 3-layer-ONIOM, Crystal-QMMM,
                                                   LR-CPCM, SF, NACMEs, symmetry and pop. for TD-DFT,
                                                   nearIR, NL-DFT gradient (VV10), updates on ESD,
                                                   ML-optimized integration grids
   S Lehtola, MJT Oliveira, MAL Marques          : LibXC Library
   Liviu Ungur et al                             : ANISO software


 Your calculation uses the libint2 library for the computation of 2-el integrals
 For citations please refer to: http://libint.valeyev.net

 Your ORCA version has been built with support for libXC version: 5.1.0
 For citations please refer to: https://tddft.org/programs/libxc/

 This ORCA versions uses:
   CBLAS   interface :  Fast vector & matrix operations
   LAPACKE interface :  Fast linear algebra routines
   SCALAPACK package :  Parallel linear algebra routines
   Shared memory     :  Shared parallel matrices
   BLAS/LAPACK       :  OpenBLAS 0.3.15  USE64BITINT DYNAMIC_ARCH NO_AFFINITY Haswell SINGLE_THREADED
        Core in use  :  Haswell
   Copyright (c) 2011-2014, The OpenBLAS Project


Your calculation utilizes the atom-pairwise dispersion correction
with the Becke-Johnson damping scheme (D3BJ)
Cite in your paper:
S.Grimme, S.Ehrlich, L.Goerigk, J Comput Chem, (2011), 32, 1456–1465 
S.Grimme, J.Antony, S.Ehrlich and H.Krieg, J.Chem.Phys., 132, (2010), 154104 
   

================================================================================

----- Orbital basis set information -----
Your calculation utilizes the basis: def2-SVPD
   F. Weigend and R. Ahlrichs, Phys. Chem. Chem. Phys. 7, 3297 (2005).
   D. Rappoport and F. Furche, J. Chem. Phys. 133 134105 (2010).

----- AuxJ basis set information -----
Your calculation utilizes the auxiliary basis: def2/J
   F. Weigend, Phys. Chem. Chem. Phys. 8, 1057 (2006).

================================================================================
                                        WARNINGS
                       Please study these warnings very carefully!
================================================================================



WARNING: Found flag for RIJCOSX approximation but no HF exchange needed!
  ===> : RIJCOSX  will be disabled and Split-RI-J is turned on

INFO   : the flag for use of the SHARK integral package has been found!

================================================================================
                                       INPUT FILE
================================================================================
NAME = SVPD_TPSS_C1_wt_dlpno_pos.com
|  1> !TPSS D3BJ RIJCOSX def2-SVPD def2/J TightSCF
|  2> *xyz 0 1
|  3> C         -2.16038       -1.36949       -3.46710
|  4> C         -3.03011       -1.91086       -4.54107
|  5> C         -2.04772        0.14658       -3.51177
|  6> H         -3.47744       -2.79151       -4.25710
|  7> H         -2.53801       -2.01786       -5.43808
|  8> H         -3.89159       -1.37604       -4.71437
|  9> H         -1.18444       -1.84400       -3.56639
| 10> H         -2.59819       -1.70838       -2.52848
| 11> H         -1.61525        0.44478       -4.44395
| 12> H         -1.42718        0.48198       -2.70720
| 13> H         -3.02145        0.57958       -3.41560
| 14> *
| 15> %MaxCore 64000
| 16> 
| 17> %pal nprocs 4
| 18> end  
| 19> 
| 20> %scf
| 21>   MaxIter 150
| 22> end
| 23> 
| 24> 
| 25>                          ****END OF INPUT****
================================================================================

                       ****************************
                       * Single Point Calculation *
                       ****************************

---------------------------------
CARTESIAN COORDINATES (ANGSTROEM)
---------------------------------
  C     -2.160380   -1.369490   -3.467100
  C     -3.030110   -1.910860   -4.541070
  C     -2.047720    0.146580   -3.511770
  H     -3.477440   -2.791510   -4.257100
  H     -2.538010   -2.017860   -5.438080
  H     -3.891590   -1.376040   -4.714370
  H     -1.184440   -1.844000   -3.566390
  H     -2.598190   -1.708380   -2.528480
  H     -1.615250    0.444780   -4.443950
  H     -1.427180    0.481980   -2.707200
  H     -3.021450    0.579580   -3.415600

----------------------------
CARTESIAN COORDINATES (A.U.)
----------------------------
  NO LB      ZA    FRAG     MASS         X           Y           Z
   0 C     6.0000    0    12.011   -4.082527   -2.587961   -6.551869
   1 C     6.0000    0    12.011   -5.726078   -3.611002   -8.581379
   2 C     6.0000    0    12.011   -3.869630    0.276996   -6.636284
   3 H     1.0000    0     1.008   -6.571409   -5.275189   -8.044753
   4 H     1.0000    0     1.008   -4.796144   -3.813203  -10.276482
   5 H     1.0000    0     1.008   -7.354039   -2.600339   -8.908868
   6 H     1.0000    0     1.008   -2.238267   -3.484655   -6.739500
   7 H     1.0000    0     1.008   -4.909868   -3.228370   -4.778135
   8 H     1.0000    0     1.008   -3.052380    0.840512   -8.397848
   9 H     1.0000    0     1.008   -2.696979    0.910810   -5.115867
  10 H     1.0000    0     1.008   -5.709713    1.095247   -6.454549

--------------------------------
INTERNAL COORDINATES (ANGSTROEM)
--------------------------------
 C      0   0   0     0.000000000000     0.00000000     0.00000000
 C      1   0   0     1.484224818112     0.00000000     0.00000000
 C      1   2   0     1.520906285542   112.68989898     0.00000000
 H      2   1   3     1.027758489286   111.57141282   208.68702051
 H      2   1   3     1.028707125522   112.86607625    82.75194771
 H      2   1   3     1.028694858935   115.02396937   318.31445448
 H      1   2   3     1.089714241350   107.46020485   236.88756357
 H      1   2   3     1.089739203938   105.92585088   122.05753436
 H      3   1   2     1.070006118347   109.47103197   298.90706596
 H      3   1   2     1.069998101167   109.47137598   178.90786579
 H      3   1   2     1.069994290546   109.47153035    58.90731461

---------------------------
INTERNAL COORDINATES (A.U.)
---------------------------
 C      0   0   0     0.000000000000     0.00000000     0.00000000
 C      1   0   0     2.804778427401     0.00000000     0.00000000
 C      1   2   0     2.874096355033   112.68989898     0.00000000
 H      2   1   3     1.942182076564   111.57141282   208.68702051
 H      2   1   3     1.943974739250   112.86607625    82.75194771
 H      2   1   3     1.943951558761   115.02396937   318.31445448
 H      1   2   3     2.059261480384   107.46020485   236.88756357
 H      1   2   3     2.059308652841   105.92585088   122.05753436
 H      3   1   2     2.022018525296   109.47103197   298.90706596
 H      3   1   2     2.022003375021   109.47137598   178.90786579
 H      3   1   2     2.021996173990   109.47153035    58.90731461

---------------------
BASIS SET INFORMATION
---------------------
There are 2 groups of distinct atoms

 Group   1 Type C   : 8s4p2d contracted to 4s2p2d pattern {5111/31/11}
 Group   2 Type H   : 4s2p contracted to 2s2p pattern {31/11}

Atom   0C    basis set group =>   1
Atom   1C    basis set group =>   1
Atom   2C    basis set group =>   1
Atom   3H    basis set group =>   2
Atom   4H    basis set group =>   2
Atom   5H    basis set group =>   2
Atom   6H    basis set group =>   2
Atom   7H    basis set group =>   2
Atom   8H    basis set group =>   2
Atom   9H    basis set group =>   2
Atom  10H    basis set group =>   2
---------------------------------
AUXILIARY/J BASIS SET INFORMATION
---------------------------------
There are 2 groups of distinct atoms

 Group   1 Type C   : 12s5p4d2f1g contracted to 6s4p3d1f1g pattern {711111/2111/211/2/1}
 Group   2 Type H   : 5s2p1d contracted to 3s1p1d pattern {311/2/1}

Atom   0C    basis set group =>   1
Atom   1C    basis set group =>   1
Atom   2C    basis set group =>   1
Atom   3H    basis set group =>   2
Atom   4H    basis set group =>   2
Atom   5H    basis set group =>   2
Atom   6H    basis set group =>   2
Atom   7H    basis set group =>   2
Atom   8H    basis set group =>   2
Atom   9H    basis set group =>   2
Atom  10H    basis set group =>   2


           ************************************************************
           *        Program running with 4 parallel MPI-processes     *
           *              working on a common directory               *
           ************************************************************
------------------------------------------------------------------------------
                           ORCA GTO INTEGRAL CALCULATION
                           -- RI-GTO INTEGRALS CHOSEN --
------------------------------------------------------------------------------
------------------------------------------------------------------------------
                   ___                                                        
                  /   \      - P O W E R E D   B Y -                         
                 /     \                                                     
                 |  |  |   _    _      __       _____    __    __             
                 |  |  |  | |  | |    /  \     |  _  \  |  |  /  |          
                  \  \/   | |  | |   /    \    | | | |  |  | /  /          
                 / \  \   | |__| |  /  /\  \   | |_| |  |  |/  /          
                |  |  |   |  __  | /  /__\  \  |    /   |      \           
                |  |  |   | |  | | |   __   |  |    \   |  |\   \          
                \     /   | |  | | |  |  |  |  | |\  \  |  | \   \       
                 \___/    |_|  |_| |__|  |__|  |_| \__\ |__|  \__/        
                                                                              
                      - O R C A' S   B I G   F R I E N D -                    
                                      &                                       
                       - I N T E G R A L  F E E D E R -                       
                                                                              
 v1 FN, 2020, v2 2021                                                         
------------------------------------------------------------------------------


Reading SHARK input file SVPD_TPSS_C1_wt_dlpno_pos.SHARKINP.tmp ... ok
----------------------
SHARK INTEGRAL PACKAGE
----------------------

Number of atoms                             ...     11
Number of basis functions                   ...    124
Number of shells                            ...     56
Maximum angular momentum                    ...      2
Integral batch strategy                     ... SHARK/LIBINT Hybrid
RI-J (if used) integral strategy            ... SPLIT-RIJ (Revised 2003 algorithm where possible)
Printlevel                                  ...      1
Contraction scheme used                     ... SEGMENTED contraction
Coulomb Range Separation                    ... NOT USED
Exchange Range Separation                   ... NOT USED
Finite Nucleus Model                        ... NOT USED
Auxiliary Coulomb fitting basis             ... AVAILABLE
   # of basis functions in Aux-J            ...    235
   # of shells in Aux-J                     ...     85
   Maximum angular momentum in Aux-J        ...      4
Auxiliary J/K fitting basis                 ... NOT available
Auxiliary Correlation fitting basis         ... NOT available
Auxiliary 'external' fitting basis          ... NOT available
Integral threshold                          ...     2.500000e-11
Primitive cut-off                           ...     2.500000e-12
Primitive pair pre-selection threshold      ...     2.500000e-12

Calculating pre-screening integrals         ... done (  0.0 sec) Dimension = 56
Organizing shell pair data                  ... done (  0.0 sec)
Shell pair information
Total number of shell pairs                 ...      1596
Shell pairs after pre-screening             ...      1595
Total number of primitive shell pairs       ...      4158
Primitive shell pairs kept                  ...      3745
          la=0 lb=0:    405 shell pairs
          la=1 lb=0:    616 shell pairs
          la=1 lb=1:    253 shell pairs
          la=2 lb=0:    168 shell pairs
          la=2 lb=1:    132 shell pairs
          la=2 lb=2:     21 shell pairs

Calculating one electron integrals          ... done (  0.0 sec)
Calculating RI/J V-Matrix + Cholesky decomp.... done (  0.0 sec)
Calculating Nuclear repulsion               ... done (  0.0 sec) ENN=     84.445958584945 Eh

SHARK setup successfully completed in   0.1 seconds

Maximum memory used throughout the entire GTOINT-calculation: 8.8 MB


           ************************************************************
           *        Program running with 4 parallel MPI-processes     *
           *              working on a common directory               *
           ************************************************************
-------------------------------------------------------------------------------
                                 ORCA SCF
-------------------------------------------------------------------------------

------------
SCF SETTINGS
------------
Hamiltonian:
 Density Functional     Method          .... DFT(GTOs)
 Exchange Functional    Exchange        .... TPSS
 Correlation Functional Correlation     .... TPSS
 LDA part of GGA corr.  LDAOpt          .... PW91-LDA
 Gradients option       PostSCFGGA      .... off
   Density functional embedding theory  .... OFF
   NL short-range parameter             ....  5.000000
 RI-approximation to the Coulomb term is turned on
   Number of AuxJ basis functions       .... 235


General Settings:
 Integral files         IntName         .... SVPD_TPSS_C1_wt_dlpno_pos
 Hartree-Fock type      HFTyp           .... RHF
 Total Charge           Charge          ....    0
 Multiplicity           Mult            ....    1
 Number of Electrons    NEL             ....   26
 Basis Dimension        Dim             ....  124
 Nuclear Repulsion      ENuc            ....     84.4459585849 Eh

Convergence Acceleration:
 DIIS                   CNVDIIS         .... on
   Start iteration      DIISMaxIt       ....    12
   Startup error        DIISStart       ....  0.200000
   # of expansion vecs  DIISMaxEq       ....     5
   Bias factor          DIISBfac        ....   1.050
   Max. coefficient     DIISMaxC        ....  10.000
 Trust-Rad. Augm. Hess. CNVTRAH         .... auto
   Auto Start mean grad. ratio tolernc. ....  1.125000
   Auto Start start iteration           ....    20
   Auto Start num. interpolation iter.  ....    10
   Max. Number of Micro iterations      ....    16
   Max. Number of Macro iterations      .... Maxiter - #DIIS iter
   Number of Davidson start vectors     ....     2
   Converg. threshold I  (grad. norm)   ....   1.000e-05
   Converg. threshold II (energy diff.) ....   1.000e-08
   Grad. Scal. Fac. for Micro threshold ....   0.100
   Minimum threshold for Micro iter.    ....   0.010
   NR start threshold (gradient norm)   ....   0.001
   Initial trust radius                 ....   0.400
   Minimum AH scaling param. (alpha)    ....   1.000
   Maximum AH scaling param. (alpha)    .... 1000.000
   Orbital update algorithm             .... Taylor
   White noise on init. David. guess    .... on
   Maximum white noise                  ....   0.010
   Quad. conv. algorithm                .... NR
 SOSCF                  CNVSOSCF        .... on
   Start iteration      SOSCFMaxIt      ....   150
   Startup grad/error   SOSCFStart      ....  0.003300
 Level Shifting         CNVShift        .... on
   Level shift para.    LevelShift      ....    0.2500
   Turn off err/grad.   ShiftErr        ....    0.0010
 Zerner damping         CNVZerner       .... off
 Static damping         CNVDamp         .... on
   Fraction old density DampFac         ....    0.7000
   Max. Damping (<1)    DampMax         ....    0.9800
   Min. Damping (>=0)   DampMin         ....    0.0000
   Turn off err/grad.   DampErr         ....    0.1000
 Fernandez-Rico         CNVRico         .... off

SCF Procedure:
 Maximum # iterations   MaxIter         ....   150
 SCF integral mode      SCFMode         .... Direct
   Integral package                     .... SHARK and LIBINT hybrid scheme
 Reset frequency        DirectResetFreq ....    20
 Integral Threshold     Thresh          ....  2.500e-11 Eh
 Primitive CutOff       TCut            ....  2.500e-12 Eh

Convergence Tolerance:
 Convergence Check Mode ConvCheckMode   .... Total+1el-Energy
 Convergence forced     ConvForced      .... 0
 Energy Change          TolE            ....  1.000e-08 Eh
 1-El. energy change                    ....  1.000e-05 Eh
 Orbital Gradient       TolG            ....  1.000e-05
 Orbital Rotation angle TolX            ....  1.000e-05
 DIIS Error             TolErr          ....  5.000e-07


Diagonalization of the overlap matrix:
Smallest eigenvalue                        ... 2.047e-04
Time for diagonalization                   ...    0.004 sec
Threshold for overlap eigenvalues          ... 1.000e-08
Number of eigenvalues below threshold      ... 0
Time for construction of square roots      ...    0.004 sec
Total time needed                          ...    0.008 sec

Time for model grid setup =    0.049 sec

------------------------------
INITIAL GUESS: MODEL POTENTIAL
------------------------------
Loading Hartree-Fock densities                     ... done
Calculating cut-offs                               ... done
Initializing the effective Hamiltonian             ... done
Setting up the integral package (SHARK)            ... done
Starting the Coulomb interaction                   ... done (   0.0 sec)
Reading the grid                                   ... done
Mapping shells                                     ... done
Starting the XC term evaluation                    ... done (   0.0 sec)
  promolecular density results
     # of electrons  =     25.994010686
     EX              =    -17.744707410
     EC              =     -0.825084598
     EX+EC           =    -18.569792008
Transforming the Hamiltonian                       ... done (   0.0 sec)
Diagonalizing the Hamiltonian                      ... done (   0.0 sec)
Back transforming the eigenvectors                 ... done (   0.0 sec)
Now organizing SCF variables                       ... done
                      ------------------
                      INITIAL GUESS DONE (   0.1 sec)
                      ------------------
-------------------
DFT GRID GENERATION
-------------------

General Integration Accuracy     IntAcc      ... 4.388
Radial Grid Type                 RadialGrid  ... OptM3 with GC (2021)
Angular Grid (max. ang.)         AngularGrid ... 4 (Lebedev-302)
Angular grid pruning method      GridPruning ... 4 (adaptive)
Weight generation scheme         WeightScheme... Becke
Basis function cutoff            BFCut       ... 1.0000e-11
Integration weight cutoff        WCut        ... 1.0000e-14
Angular grids for H and He will be reduced by one unit
Partially contracted basis set               ... off
Rotationally invariant grid construction     ... off

Total number of grid points                  ...    45568
Total number of batches                      ...      719
Average number of points per batch           ...       63
Average number of grid points per atom       ...     4143
Time for grid setup =    0.280 sec

--------------
SCF ITERATIONS
--------------
ITER       Energy         Delta-E        Max-DP      RMS-DP      [F,P]     Damp
               ***  Starting incremental Fock matrix formation  ***
  0   -118.9121547972   0.000000000000 0.19457661  0.00369383  0.1778127 0.7000
  1   -118.9853966862  -0.073241889015 0.11537376  0.00226474  0.0884848 0.7000
                               ***Turning on DIIS***
  2   -119.0125479357  -0.027151249505 0.19793038  0.00394993  0.0287731 0.0000
  3   -119.0486134395  -0.036065503771 0.04061587  0.00127328  0.0535030 0.0000
  4   -119.0620332528  -0.013419813359 0.00551186  0.00037460  0.0114647 0.0000
                      *** Initiating the SOSCF procedure ***
                           *** Shutting down DIIS ***
                      *** Re-Reading the Fockian *** 
                      *** Removing any level shift *** 
ITER      Energy       Delta-E        Grad      Rot      Max-DP    RMS-DP
  5   -119.06272787  -0.0006946188  0.000877  0.000877  0.003067  0.000171
               *** Restarting incremental Fock matrix formation ***
  6   -119.06278135  -0.0000534776  0.000356  0.000929  0.003163  0.000162
  7   -119.06278166  -0.0000003116  0.000362  0.000318  0.001590  0.000040
  8   -119.06278727  -0.0000056114  0.000024  0.000090  0.000250  0.000015
  9   -119.06278731  -0.0000000384  0.000019  0.000017  0.000084  0.000004
 10   -119.06278733  -0.0000000205  0.000005  0.000015  0.000036  0.000002
 11   -119.06278733  -0.0000000006  0.000004  0.000006  0.000019  0.000001
                  ***Gradient check signals convergence***
              ***Rediagonalizing the Fockian in SOSCF/NRSCF***

               *****************************************************
               *                     SUCCESS                       *
               *           SCF CONVERGED AFTER  12 CYCLES          *
               *****************************************************


----------------
TOTAL SCF ENERGY
----------------

Total Energy       :         -119.06278733 Eh           -3239.86315 eV

Components:
Nuclear Repulsion  :           84.44595858 Eh            2297.89136 eV
Electronic Energy  :         -203.50874592 Eh           -5537.75451 eV
One Electron Energy:         -325.16113189 Eh           -8848.08423 eV
Two Electron Energy:          121.65238597 Eh            3310.32972 eV

Virial components:
Potential Energy   :         -237.10110562 Eh           -6451.84909 eV
Kinetic Energy     :          118.03831829 Eh            3211.98593 eV
Virial Ratio       :            2.00867912


DFT components:
N(Alpha)           :       13.000002185032 electrons
N(Beta)            :       13.000002185032 electrons
N(Total)           :       26.000004370063 electrons
E(X)               :      -18.575578946450 Eh       
E(C)               :       -0.831349171097 Eh       
E(XC)              :      -19.406928117547 Eh       
DFET-embed. en.    :        0.000000000000 Eh       

---------------
SCF CONVERGENCE
---------------

  Last Energy change         ...   -1.0794e-09  Tolerance :   1.0000e-08
  Last MAX-Density change    ...    5.0705e-06  Tolerance :   1.0000e-07
  Last RMS-Density change    ...    2.6773e-07  Tolerance :   5.0000e-09
  Last Orbital Gradient      ...    6.5950e-07  Tolerance :   1.0000e-05
  Last Orbital Rotation      ...    1.1502e-06  Tolerance :   1.0000e-05

             **** THE GBW FILE WAS UPDATED (SVPD_TPSS_C1_wt_dlpno_pos.gbw) ****
             **** DENSITY SVPD_TPSS_C1_wt_dlpno_pos.scfp WAS UPDATED ****
             **** ENERGY FILE WAS UPDATED (SVPD_TPSS_C1_wt_dlpno_pos.en.tmp) ****
             **** THE GBW FILE WAS UPDATED (SVPD_TPSS_C1_wt_dlpno_pos.gbw) ****
             **** DENSITY SVPD_TPSS_C1_wt_dlpno_pos.scfp WAS UPDATED ****
----------------
ORBITAL ENERGIES
----------------

  NO   OCC          E(Eh)            E(eV) 
   0   2.0000      -9.988347      -271.7967 
   1   2.0000      -9.981366      -271.6068 
   2   2.0000      -9.963840      -271.1299 
   3   2.0000      -0.726917       -19.7804 
   4   2.0000      -0.633633       -17.2420 
   5   2.0000      -0.536512       -14.5992 
   6   2.0000      -0.427594       -11.6354 
   7   2.0000      -0.398225       -10.8363 
   8   2.0000      -0.362656        -9.8684 
   9   2.0000      -0.355830        -9.6826 
  10   2.0000      -0.303882        -8.2691 
  11   2.0000      -0.293658        -7.9908 
  12   2.0000      -0.291371        -7.9286 
  13   0.0000       0.017033         0.4635 
  14   0.0000       0.046478         1.2647 
  15   0.0000       0.052673         1.4333 
  16   0.0000       0.071304         1.9403 
  17   0.0000       0.094475         2.5708 
  18   0.0000       0.105424         2.8687 
  19   0.0000       0.117233         3.1901 
  20   0.0000       0.126760         3.4493 
  21   0.0000       0.135388         3.6841 
  22   0.0000       0.150290         4.0896 
  23   0.0000       0.164247         4.4694 
  24   0.0000       0.170008         4.6261 
  25   0.0000       0.179688         4.8896 
  26   0.0000       0.187840         5.1114 
  27   0.0000       0.203863         5.5474 
  28   0.0000       0.210270         5.7217 
  29   0.0000       0.247409         6.7323 
  30   0.0000       0.261204         7.1077 
  31   0.0000       0.295099         8.0301 
  32   0.0000       0.300456         8.1758 
  33   0.0000       0.304531         8.2867 
  34   0.0000       0.309298         8.4164 
  35   0.0000       0.326833         8.8936 
  36   0.0000       0.335849         9.1389 
  37   0.0000       0.341986         9.3059 
  38   0.0000       0.350967         9.5503 
  39   0.0000       0.357208         9.7201 
  40   0.0000       0.363627         9.8948 
  41   0.0000       0.375663        10.2223 
  42   0.0000       0.387859        10.5542 
  43   0.0000       0.393071        10.6960 
  44   0.0000       0.398063        10.8318 
  45   0.0000       0.405943        11.0463 
  46   0.0000       0.412383        11.2215 
  47   0.0000       0.424227        11.5438 
  48   0.0000       0.445572        12.1246 
  49   0.0000       0.467543        12.7225 
  50   0.0000       0.470513        12.8033 
  51   0.0000       0.476330        12.9616 
  52   0.0000       0.481023        13.0893 
  53   0.0000       0.490509        13.3474 
  54   0.0000       0.497156        13.5283 
  55   0.0000       0.508225        13.8295 
  56   0.0000       0.515025        14.0145 
  57   0.0000       0.534532        14.5453 
  58   0.0000       0.544764        14.8238 
  59   0.0000       0.560185        15.2434 
  60   0.0000       0.566604        15.4181 
  61   0.0000       0.577002        15.7010 
  62   0.0000       0.587379        15.9834 
  63   0.0000       0.615896        16.7594 
  64   0.0000       0.654850        17.8194 
  65   0.0000       0.819773        22.3072 
  66   0.0000       0.856679        23.3114 
  67   0.0000       0.888898        24.1882 
  68   0.0000       0.906045        24.6547 
  69   0.0000       0.942834        25.6558 
  70   0.0000       0.976113        26.5614 
  71   0.0000       0.981313        26.7029 
  72   0.0000       0.999872        27.2079 
  73   0.0000       1.007588        27.4179 
  74   0.0000       1.013953        27.5911 
  75   0.0000       1.022702        27.8291 
  76   0.0000       1.043503        28.3952 
  77   0.0000       1.059201        28.8223 
  78   0.0000       1.116639        30.3853 
  79   0.0000       1.158484        31.5240 
  80   0.0000       1.195316        32.5262 
  81   0.0000       1.254791        34.1446 
  82   0.0000       1.281291        34.8657 
  83   0.0000       1.341197        36.4958 
  84   0.0000       1.384030        37.6614 
  85   0.0000       1.564496        42.5721 
  86   0.0000       1.577982        42.9391 
  87   0.0000       1.608717        43.7754 
  88   0.0000       1.624013        44.1916 
  89   0.0000       1.657915        45.1142 
  90   0.0000       1.695406        46.1343 
  91   0.0000       1.736471        47.2518 
  92   0.0000       1.746142        47.5149 
  93   0.0000       1.835071        49.9348 
  94   0.0000       1.871719        50.9321 
  95   0.0000       1.942170        52.8491 
  96   0.0000       1.974785        53.7366 
  97   0.0000       2.008153        54.6446 
  98   0.0000       2.016317        54.8668 
  99   0.0000       2.068438        56.2851 
 100   0.0000       2.071496        56.3683 
 101   0.0000       2.113571        57.5132 
 102   0.0000       2.181502        59.3617 
 103   0.0000       2.190680        59.6114 
 104   0.0000       2.227651        60.6175 
 105   0.0000       2.274426        61.8903 
 106   0.0000       2.309060        62.8327 
 107   0.0000       2.408833        65.5477 
 108   0.0000       2.465926        67.1013 
 109   0.0000       2.493678        67.8564 
 110   0.0000       2.563235        69.7492 
 111   0.0000       2.589496        70.4638 
 112   0.0000       2.640282        71.8457 
 113   0.0000       2.708828        73.7109 
 114   0.0000       2.715431        73.8906 
 115   0.0000       2.781172        75.6795 
 116   0.0000       2.897902        78.8559 
 117   0.0000       3.011744        81.9537 
 118   0.0000       3.066470        83.4429 
 119   0.0000       3.080072        83.8130 
 120   0.0000       3.172441        86.3265 
 121   0.0000       3.202594        87.1470 
 122   0.0000       3.279846        89.2491 
 123   0.0000       3.322494        90.4097 

                    ********************************
                    * MULLIKEN POPULATION ANALYSIS *
                    ********************************

-----------------------
MULLIKEN ATOMIC CHARGES
-----------------------
   0 C :   -0.584795
   1 C :    0.845007
   2 C :    0.569739
   3 H :   -0.178334
   4 H :   -0.164885
   5 H :   -0.236137
   6 H :   -0.096175
   7 H :   -0.038067
   8 H :   -0.038316
   9 H :   -0.065244
  10 H :   -0.012793
Sum of atomic charges:   -0.0000000

--------------------------------
MULLIKEN REDUCED ORBITAL CHARGES
--------------------------------
  0 C s       :     2.882837  s :     2.882837
      pz      :     1.029615  p :     3.059187
      px      :     0.988167
      py      :     1.041405
      dz2     :     0.140448  d :     0.642771
      dxz     :     0.050184
      dyz     :     0.182006
      dx2y2   :     0.044269
      dxy     :     0.225864
  1 C s       :     2.195116  s :     2.195116
      pz      :     0.940026  p :     2.788110
      px      :     0.889427
      py      :     0.958658
      dz2     :     0.110808  d :     0.171767
      dxz     :    -0.000792
      dyz     :     0.009451
      dx2y2   :     0.065486
      dxy     :    -0.013186
  2 C s       :     2.547062  s :     2.547062
      pz      :     0.896932  p :     2.791780
      px      :     0.910713
      py      :     0.984135
      dz2     :    -0.018036  d :     0.091419
      dxz     :    -0.016279
      dyz     :     0.061727
      dx2y2   :     0.006119
      dxy     :     0.057887
  3 H s       :     1.110209  s :     1.110209
      pz      :    -0.001099  p :     0.068125
      px      :    -0.001640
      py      :     0.070864
  4 H s       :     1.118248  s :     1.118248
      pz      :     0.037506  p :     0.046637
      px      :     0.019453
      py      :    -0.010322
  5 H s       :     1.132531  s :     1.132531
      pz      :    -0.006041  p :     0.103606
      px      :     0.038051
      py      :     0.071596
  6 H s       :     1.043635  s :     1.043635
      pz      :    -0.011910  p :     0.052540
      px      :     0.052319
      py      :     0.012131
  7 H s       :     1.016587  s :     1.016587
      pz      :     0.039856  p :     0.021481
      px      :    -0.010702
      py      :    -0.007673
  8 H s       :     0.990952  s :     0.990952
      pz      :     0.050259  p :     0.047364
      px      :    -0.011848
      py      :     0.008953
  9 H s       :     1.022455  s :     1.022455
      pz      :     0.035916  p :     0.042788
      px      :     0.010204
      py      :    -0.003331
 10 H s       :     0.957935  s :     0.957935
      pz      :    -0.022850  p :     0.054857
      px      :     0.060066
      py      :     0.017642


                     *******************************
                     * LOEWDIN POPULATION ANALYSIS *
                     *******************************

----------------------
LOEWDIN ATOMIC CHARGES
----------------------
   0 C :   -0.104871
   1 C :    0.119029
   2 C :    0.126325
   3 H :   -0.039991
   4 H :   -0.030172
   5 H :   -0.038661
   6 H :    0.017778
   7 H :    0.016098
   8 H :   -0.019125
   9 H :   -0.026025
  10 H :   -0.020384

-------------------------------
LOEWDIN REDUCED ORBITAL CHARGES
-------------------------------
  0 C s       :     2.690000  s :     2.690000
      pz      :     0.912972  p :     2.719057
      px      :     0.911423
      py      :     0.894662
      dz2     :     0.148321  d :     0.695814
      dxz     :     0.086119
      dyz     :     0.156132
      dx2y2   :     0.133173
      dxy     :     0.172069
  1 C s       :     2.673521  s :     2.673521
      pz      :     0.922719  p :     2.771687
      px      :     0.919604
      py      :     0.929364
      dz2     :     0.134829  d :     0.435764
      dxz     :     0.092684
      dyz     :     0.051483
      dx2y2   :     0.075339
      dxy     :     0.081429
  2 C s       :     2.707673  s :     2.707673
      pz      :     0.926922  p :     2.757820
      px      :     0.927821
      py      :     0.903077
      dz2     :     0.056430  d :     0.408182
      dxz     :     0.048467
      dyz     :     0.104796
      dx2y2   :     0.078216
      dxy     :     0.120273
  3 H s       :     0.746537  s :     0.746537
      pz      :     0.080022  p :     0.293454
      px      :     0.085282
      py      :     0.128151
  4 H s       :     0.751654  s :     0.751654
      pz      :     0.112963  p :     0.278518
      px      :     0.088148
      py      :     0.077408
  5 H s       :     0.744457  s :     0.744457
      pz      :     0.073799  p :     0.294205
      px      :     0.110884
      py      :     0.109521
  6 H s       :     0.738456  s :     0.738456
      pz      :     0.066325  p :     0.243766
      px      :     0.109936
      py      :     0.067505
  7 H s       :     0.737448  s :     0.737448
      pz      :     0.106823  p :     0.246454
      px      :     0.075556
      py      :     0.064075
  8 H s       :     0.748319  s :     0.748319
      pz      :     0.120712  p :     0.270806
      px      :     0.081498
      py      :     0.068596
  9 H s       :     0.752780  s :     0.752780
      pz      :     0.107877  p :     0.273245
      px      :     0.093955
      py      :     0.071413
 10 H s       :     0.746829  s :     0.746829
      pz      :     0.074319  p :     0.273555
      px      :     0.125916
      py      :     0.073320


                      *****************************
                      * MAYER POPULATION ANALYSIS *
                      *****************************

  NA   - Mulliken gross atomic population
  ZA   - Total nuclear charge
  QA   - Mulliken gross atomic charge
  VA   - Mayer's total valence
  BVA  - Mayer's bonded valence
  FA   - Mayer's free valence

  ATOM       NA         ZA         QA         VA         BVA        FA
  0 C      6.5848     6.0000    -0.5848     5.5993     5.5993    -0.0000
  1 C      5.1550     6.0000     0.8450     3.6811     3.6811    -0.0000
  2 C      5.4303     6.0000     0.5697     3.9177     3.9177    -0.0000
  3 H      1.1783     1.0000    -0.1783     1.1284     1.1284     0.0000
  4 H      1.1649     1.0000    -0.1649     1.0679     1.0679    -0.0000
  5 H      1.2361     1.0000    -0.2361     1.2385     1.2385     0.0000
  6 H      1.0962     1.0000    -0.0962     1.1647     1.1647     0.0000
  7 H      1.0381     1.0000    -0.0381     1.0743     1.0743    -0.0000
  8 H      1.0383     1.0000    -0.0383     1.0912     1.0912    -0.0000
  9 H      1.0652     1.0000    -0.0652     1.0869     1.0869    -0.0000
 10 H      1.0128     1.0000    -0.0128     1.0788     1.0788    -0.0000

  Mayer bond orders larger than 0.100000
B(  0-C ,  1-C ) :   1.3109 B(  0-C ,  2-C ) :   1.2654 B(  0-C ,  3-H ) :   0.2092 
B(  0-C ,  4-H ) :   0.2214 B(  0-C ,  5-H ) :   0.1869 B(  0-C ,  6-H ) :   0.9628 
B(  0-C ,  7-H ) :   0.9301 B(  0-C ,  8-H ) :   0.1781 B(  0-C ,  9-H ) :   0.1862 
B(  0-C , 10-H ) :   0.1483 B(  1-C ,  3-H ) :   0.6731 B(  1-C ,  4-H ) :   0.7379 
B(  1-C ,  5-H ) :   0.7058 B(  1-C ,  6-H ) :   0.1139 B(  1-C ,  7-H ) :   0.1087 
B(  2-C ,  8-H ) :   0.8447 B(  2-C ,  9-H ) :   0.8337 B(  2-C , 10-H ) :   0.8520 
B(  3-H ,  5-H ) :   0.2388 B(  4-H ,  5-H ) :   0.1239 

-------
TIMINGS
-------

Total SCF time: 0 days 0 hours 0 min 4 sec 

Total time                  ....       4.535 sec
Sum of individual times     ....       4.399 sec  ( 97.0%)

Fock matrix formation       ....       3.931 sec  ( 86.7%)
  Split-RI-J                ....       0.369 sec  (  9.4% of F)
  XC integration            ....       3.538 sec  ( 90.0% of F)
    Basis function eval.    ....       0.630 sec  ( 17.8% of XC)
    Density eval.           ....       1.044 sec  ( 29.5% of XC)
    XC-Functional eval.     ....       0.340 sec  (  9.6% of XC)
    XC-Potential eval.      ....       1.424 sec  ( 40.2% of XC)
Diagonalization             ....       0.025 sec  (  0.5%)
Density matrix formation    ....       0.002 sec  (  0.1%)
Population analysis         ....       0.005 sec  (  0.1%)
Initial guess               ....       0.070 sec  (  1.5%)
Orbital Transformation      ....       0.000 sec  (  0.0%)
Orbital Orthonormalization  ....       0.000 sec  (  0.0%)
DIIS solution               ....       0.017 sec  (  0.4%)
SOSCF solution              ....       0.021 sec  (  0.5%)
Grid generation             ....       0.329 sec  (  7.3%)

Maximum memory used throughout the entire SCF-calculation: 14.5 MB


-------------------------------------------------------------------------------
                          DFT DISPERSION CORRECTION                            
                                                                               
                              DFTD3 V3.1  Rev 1                                
                          USING Becke-Johnson damping                          
-------------------------------------------------------------------------------
The TPSS functional is recognized
Active option DFTDOPT                   ...         4   

molecular C6(AA) [au] = 720.501509 


            DFT-D V3
 parameters
 s6 scaling factor         :     1.0000 
 a1 scaling factor         :     0.4535 
 s8 scaling factor         :     1.9435 
 a2 scaling factor         :     4.4752 
 ad hoc parameters k1-k3   :    16.0000     1.3333    -4.0000 

 Edisp/kcal,au: -4.665121121674  -0.007434342933 
 E6   /kcal   :  -2.505088767 
 E8   /kcal   :  -2.160032355 
 % E8         :  46.301742192 

-------------------------   ----------------
Dispersion correction           -0.007434343
-------------------------   ----------------


-------------------------   --------------------
FINAL SINGLE POINT ENERGY      -119.070221675805
-------------------------   --------------------


                            ***************************************
                            *     ORCA property calculations      *
                            ***************************************

                                    ---------------------
                                    Active property flags
                                    ---------------------
   (+) Dipole Moment


------------------------------------------------------------------------------
                       ORCA ELECTRIC PROPERTIES CALCULATION
------------------------------------------------------------------------------

Dipole Moment Calculation                       ... on
Quadrupole Moment Calculation                   ... off
Polarizability Calculation                      ... off
GBWName                                         ... SVPD_TPSS_C1_wt_dlpno_pos.gbw
Electron density file                           ... SVPD_TPSS_C1_wt_dlpno_pos.scfp
The origin for moment calculation is the CENTER OF MASS  = (-4.578922, -1.968578 -7.271687)

-------------
DIPOLE MOMENT
-------------
                                X             Y             Z
Electronic contribution:      0.32091      -0.12881       0.27446
Nuclear contribution   :     -0.34625       0.09603      -0.26933
                        -----------------------------------------
Total Dipole Moment    :     -0.02533      -0.03278       0.00513
                        -----------------------------------------
Magnitude (a.u.)       :      0.04174
Magnitude (Debye)      :      0.10611



--------------------
Rotational spectrum 
--------------------
 
Rotational constants in cm-1:     1.028617     0.291238     0.258956 
Rotational constants in MHz : 30837.159054  8731.095379  7763.318586 

 Dipole components along the rotational axes: 
x,y,z [a.u.] :     0.034919    -0.010132    -0.020509 
x,y,z [Debye]:     0.088757    -0.025754    -0.052131 

 

Timings for individual modules:

Sum of individual times         ...        8.406 sec (=   0.140 min)
GTO integral calculation        ...        2.420 sec (=   0.040 min)  28.8 %
SCF iterations                  ...        5.986 sec (=   0.100 min)  71.2 %
                             ****ORCA TERMINATED NORMALLY****
TOTAL RUN TIME: 0 days 0 hours 0 minutes 8 seconds 961 msec
