
                                        *****************
                                        * O   R   C   A *
                                        *****************

                                            #,                                       
                                            ###                                      
                                            ####                                     
                                            #####                                    
                                            ######                                   
                                           ########,                                 
                                     ,,################,,,,,                         
                               ,,#################################,,                 
                          ,,##########################################,,             
                       ,#########################################, ''#####,          
                    ,#############################################,,   '####,        
                  ,##################################################,,,,####,       
                ,###########''''           ''''###############################       
              ,#####''   ,,,,##########,,,,          '''####'''          '####       
            ,##' ,,,,###########################,,,                        '##       
           ' ,,###''''                  '''############,,,                           
         ,,##''                                '''############,,,,        ,,,,,,###''
      ,#''                                            '''#######################'''  
     '                                                          ''''####''''         
             ,#######,   #######,   ,#######,      ##                                
            ,#'     '#,  ##    ##  ,#'     '#,    #''#        ######   ,####,        
            ##       ##  ##   ,#'  ##            #'  '#       #        #'  '#        
            ##       ##  #######   ##           ,######,      #####,   #    #        
            '#,     ,#'  ##    ##  '#,     ,#' ,#      #,         ##   #,  ,#        
             '#######'   ##     ##  '#######'  #'      '#     #####' # '####'        



                  #######################################################
                  #                        -***-                        #
                  #          Department of theory and spectroscopy      #
                  #    Directorship and core code : Frank Neese         #
                  #        Max Planck Institute fuer Kohlenforschung    #
                  #                Kaiser Wilhelm Platz 1               #
                  #                 D-45470 Muelheim/Ruhr               #
                  #                      Germany                        #
                  #                                                     #
                  #                  All rights reserved                #
                  #                        -***-                        #
                  #######################################################


                         Program Version 5.0.0 -  RELEASE  -
                                (SVN: $Rev: 19529$)
                ($Date: 2021-06-28 11:36:33 +0200 (Mo, 28 Jun 2021) $)


 With contributions from (in alphabetic order):
   Daniel Aravena         : Magnetic Suceptibility
   Michael Atanasov       : Ab Initio Ligand Field Theory (pilot matlab implementation)
   Alexander A. Auer      : GIAO ZORA, VPT2 properties, NMR spectrum
   Ute Becker             : Parallelization
   Giovanni Bistoni       : ED, misc. LED, open-shell LED, HFLD
   Martin Brehm           : Molecular dynamics
   Dmytro Bykov           : SCF Hessian
   Vijay G. Chilkuri      : MRCI spin determinant printing, contributions to CSF-ICE
   Dipayan Datta          : RHF DLPNO-CCSD density
   Achintya Kumar Dutta   : EOM-CC, STEOM-CC
   Dmitry Ganyushin       : Spin-Orbit,Spin-Spin,Magnetic field MRCI
   Miquel Garcia          : C-PCM Hessian, Gaussian charge scheme
   Yang Guo               : DLPNO-NEVPT2, F12-NEVPT2, CIM, IAO-localization
   Andreas Hansen         : Spin unrestricted coupled pair/coupled cluster methods
   Benjamin Helmich-Paris : MC-RPA, TRAH-SCF, COSX integrals
   Lee Huntington         : MR-EOM, pCC
   Robert Izsak           : Overlap fitted RIJCOSX, COSX-SCS-MP3, EOM
   Marcus Kettner         : VPT2
   Christian Kollmar      : KDIIS, OOCD, Brueckner-CCSD(T), CCSD density, CASPT2, CASPT2-K
   Simone Kossmann        : Meta GGA functionals, TD-DFT gradient, OOMP2, MP2 Hessian
   Martin Krupicka        : Initial AUTO-CI
   Lucas Lang             : DCDCAS
   Marvin Lechner         : AUTO-CI (C++ implementation), FIC-MRCC
   Dagmar Lenk            : GEPOL surface, SMD
   Dimitrios Liakos       : Extrapolation schemes; Compound Job, initial MDCI parallelization
   Dimitrios Manganas     : Further ROCIS development; embedding schemes
   Dimitrios Pantazis     : SARC Basis sets
   Anastasios Papadopoulos: AUTO-CI, single reference methods and gradients
   Taras Petrenko         : DFT Hessian,TD-DFT gradient, ASA, ECA, R-Raman, ABS, FL, XAS/XES, NRVS
   Peter Pinski           : DLPNO-MP2, DLPNO-MP2 Gradient
   Christoph Reimann      : Effective Core Potentials
   Marius Retegan         : Local ZFS, SOC
   Christoph Riplinger    : Optimizer, TS searches, QM/MM, DLPNO-CCSD(T), (RO)-DLPNO pert. Triples
   Tobias Risthaus        : Range-separated hybrids, TD-DFT gradient, RPA, STAB
   Michael Roemelt        : Original ROCIS implementation
   Masaaki Saitow         : Open-shell DLPNO-CCSD energy and density
   Barbara Sandhoefer     : DKH picture change effects
   Avijit Sen             : IP-ROCIS
   Kantharuban Sivalingam : CASSCF convergence, NEVPT2, FIC-MRCI
   Bernardo de Souza      : ESD, SOC TD-DFT
   Georgi Stoychev        : AutoAux, RI-MP2 NMR
   Willem Van den Heuvel  : Paramagnetic NMR
   Boris Wezisla          : Elementary symmetry handling
   Frank Wennmohs         : Technical directorship


 We gratefully acknowledge several colleagues who have allowed us to
 interface, adapt or use parts of their codes:
   Stefan Grimme, W. Hujo, H. Kruse, P. Pracht,  : VdW corrections, initial TS optimization,
                  C. Bannwarth, S. Ehlert          DFT functionals, gCP, sTDA/sTD-DF
   Ed Valeev, F. Pavosevic, A. Kumar             : LibInt (2-el integral package), F12 methods
   Garnet Chan, S. Sharma, J. Yang, R. Olivares  : DMRG
   Ulf Ekstrom                                   : XCFun DFT Library
   Mihaly Kallay                                 : mrcc  (arbitrary order and MRCC methods)
   Jiri Pittner, Ondrej Demel                    : Mk-CCSD
   Frank Weinhold                                : gennbo (NPA and NBO analysis)
   Christopher J. Cramer and Donald G. Truhlar   : smd solvation model
   Lars Goerigk                                  : TD-DFT with DH, B97 family of functionals
   V. Asgeirsson, H. Jonsson                     : NEB implementation
   FAccTs GmbH                                   : IRC, NEB, NEB-TS, DLPNO-Multilevel, CI-OPT
                                                   MM, QMMM, 2- and 3-layer-ONIOM, Crystal-QMMM,
                                                   LR-CPCM, SF, NACMEs, symmetry and pop. for TD-DFT,
                                                   nearIR, NL-DFT gradient (VV10), updates on ESD,
                                                   ML-optimized integration grids
   S Lehtola, MJT Oliveira, MAL Marques          : LibXC Library
   Liviu Ungur et al                             : ANISO software


 Your calculation uses the libint2 library for the computation of 2-el integrals
 For citations please refer to: http://libint.valeyev.net

 Your ORCA version has been built with support for libXC version: 5.1.0
 For citations please refer to: https://tddft.org/programs/libxc/

 This ORCA versions uses:
   CBLAS   interface :  Fast vector & matrix operations
   LAPACKE interface :  Fast linear algebra routines
   SCALAPACK package :  Parallel linear algebra routines
   Shared memory     :  Shared parallel matrices
   BLAS/LAPACK       :  OpenBLAS 0.3.15  USE64BITINT DYNAMIC_ARCH NO_AFFINITY Haswell SINGLE_THREADED
        Core in use  :  Haswell
   Copyright (c) 2011-2014, The OpenBLAS Project


Your calculation utilizes the atom-pairwise dispersion correction
with the zero-damping scheme (D30)
Cite in your paper:
S.Grimme, J.Antony, S.Ehrlich and H.Krieg, J.Chem.Phys., 132, (2010), 154104 
   

XCFun DFT library Copyright 2009-2010 Ulf Ekstrom and contributors.
See http://admol.org/xcfun for more information.
This is free software; see the source code for copying conditions.
There is ABSOLUTELY NO WARRANTY; not even for MERCHANTABILITY or FITNESS FOR A PARTICULAR PURPOSE.
For details see the documentation.
Scientific users of this library should cite U. Ekstrom, L. Visscher, R. Bast, A. J. Thorvaldsen and K. Ruud;
J.Chem.Theor.Comp. 2010, DOI: 10.1021/ct100117s
XCFun Version 0.99 

================================================================================

----- Orbital basis set information -----
Your calculation utilizes the basis: def2-TZVP
   F. Weigend and R. Ahlrichs, Phys. Chem. Chem. Phys. 7, 3297 (2005).

----- AuxJ basis set information -----
Your calculation utilizes the auxiliary basis: def2/J
   F. Weigend, Phys. Chem. Chem. Phys. 8, 1057 (2006).

================================================================================
                                        WARNINGS
                       Please study these warnings very carefully!
================================================================================


WARNING: Minnesota functionals are quite sensitive to the integration grid.
         see SE Wheeler, KN Houk, JCTC 2010, 6, 395,
             N Mardirossian, M Head-Gordon, JCTC 2016, 12, 4303.
         DEFGRID3 seems to be a minimum grid for reliable results with these functionals!
  ===> : Please increase the integration grid!


INFO   : the flag for use of the SHARK integral package has been found!

================================================================================
                                       INPUT FILE
================================================================================
NAME = TZVP_M062X_C3_wt_dlpno_neg.com
|  1> !M062X D3Zero RIJCOSX def2-TZVP def2/J TightSCF
|  2> *xyz 0 1
|  3> C         -7.33044       -2.67899       -3.20681
|  4> S         -6.01966       -2.92697       -4.41913
|  5> O         -5.64583       -1.58838       -4.91931
|  6> O         -4.88196       -3.50370       -3.66724
|  7> F         -6.54927       -3.80515       -5.42507
|  8> C         -7.46900       -1.24615       -2.71383
|  9> H         -7.11825       -3.37982       -2.39805
| 10> H         -8.24184       -3.00474       -3.70651
| 11> H         -7.67580       -0.60214       -3.54292
| 12> H         -6.55749       -0.94096       -2.24382
| 13> H         -8.27114       -1.18777       -2.00810
| 14> *
| 15> %MaxCore 64000
| 16> 
| 17> %pal nprocs 4
| 18> end  
| 19> 
| 20> %scf
| 21>   MaxIter 150
| 22> end
| 23> 
| 24> 
| 25>                          ****END OF INPUT****
================================================================================

                       ****************************
                       * Single Point Calculation *
                       ****************************

---------------------------------
CARTESIAN COORDINATES (ANGSTROEM)
---------------------------------
  C     -7.330440   -2.678990   -3.206810
  S     -6.019660   -2.926970   -4.419130
  O     -5.645830   -1.588380   -4.919310
  O     -4.881960   -3.503700   -3.667240
  F     -6.549270   -3.805150   -5.425070
  C     -7.469000   -1.246150   -2.713830
  H     -7.118250   -3.379820   -2.398050
  H     -8.241840   -3.004740   -3.706510
  H     -7.675800   -0.602140   -3.542920
  H     -6.557490   -0.940960   -2.243820
  H     -8.271140   -1.187770   -2.008100

----------------------------
CARTESIAN COORDINATES (A.U.)
----------------------------
  NO LB      ZA    FRAG     MASS         X           Y           Z
   0 C     6.0000    0    12.011  -13.852524   -5.062557   -6.059993
   1 S    16.0000    0    32.060  -11.375509   -5.531172   -8.350945
   2 O     8.0000    0    15.999  -10.669072   -3.001603   -9.296149
   3 O     8.0000    0    15.999   -9.225567   -6.621033   -6.930079
   4 F     9.0000    0    18.998  -12.376327   -7.190691  -10.251897
   5 C     6.0000    0    12.011  -14.114364   -2.354882   -5.128395
   6 H     1.0000    0     1.008  -13.451543   -6.386934   -4.531658
   7 H     1.0000    0     1.008  -15.574820   -5.678136   -7.004289
   8 H     1.0000    0     1.008  -14.505160   -1.137880   -6.695149
   9 H     1.0000    0     1.008  -12.391860   -1.778157   -4.240205
  10 H     1.0000    0     1.008  -15.630189   -2.244560   -3.794759

--------------------------------
INTERNAL COORDINATES (ANGSTROEM)
--------------------------------
 C      0   0   0     0.000000000000     0.00000000     0.00000000
 S      1   0   0     1.802597589924     0.00000000     0.00000000
 O      2   1   0     1.477075519193   106.68484156     0.00000000
 O      2   1   3     1.480647613377   105.71170368   116.27732212
 F      2   1   3     1.436524329101   106.67637160   237.53370600
 C      1   2   3     1.521597390771   114.43469957   344.25628115
 H      1   2   3     1.090999552062   105.59041318   220.00070323
 H      1   2   3     1.089248875372   104.99648834   105.87797466
 H      6   1   2     1.070002499156   109.47078658    59.49944213
 H      6   1   2     1.070000381449   109.47091758   299.49982289
 H      6   1   2     1.069996092002   109.47134776   179.49931912

---------------------------
INTERNAL COORDINATES (A.U.)
---------------------------
 C      0   0   0     0.000000000000     0.00000000     0.00000000
 S      1   0   0     3.406415774623     0.00000000     0.00000000
 O      2   1   0     2.791268210395   106.68484156     0.00000000
 O      2   1   3     2.798018490127   105.71170368   116.27732212
 F      2   1   3     2.714637566716   106.67637160   237.53370600
 C      1   2   3     2.875402354646   114.43469957   344.25628115
 H      1   2   3     2.061690365628   105.59041318   220.00070323
 H      1   2   3     2.058382066136   104.99648834   105.87797466
 H      6   1   2     2.022011686016   109.47078658    59.49944213
 H      6   1   2     2.022007684129   109.47091758   299.49982289
 H      6   1   2     2.021999578250   109.47134776   179.49931912

---------------------
BASIS SET INFORMATION
---------------------
There are 5 groups of distinct atoms

 Group   1 Type C   : 11s6p2d1f contracted to 5s3p2d1f pattern {62111/411/11/1}
 Group   2 Type S   : 14s9p3d1f contracted to 5s5p2d1f pattern {73211/51111/21/1}
 Group   3 Type O   : 11s6p2d1f contracted to 5s3p2d1f pattern {62111/411/11/1}
 Group   4 Type F   : 11s6p2d1f contracted to 5s3p2d1f pattern {62111/411/11/1}
 Group   5 Type H   : 5s1p contracted to 3s1p pattern {311/1}

Atom   0C    basis set group =>   1
Atom   1S    basis set group =>   2
Atom   2O    basis set group =>   3
Atom   3O    basis set group =>   3
Atom   4F    basis set group =>   4
Atom   5C    basis set group =>   1
Atom   6H    basis set group =>   5
Atom   7H    basis set group =>   5
Atom   8H    basis set group =>   5
Atom   9H    basis set group =>   5
Atom  10H    basis set group =>   5
---------------------------------
AUXILIARY/J BASIS SET INFORMATION
---------------------------------
There are 5 groups of distinct atoms

 Group   1 Type C   : 12s5p4d2f1g contracted to 6s4p3d1f1g pattern {711111/2111/211/2/1}
 Group   2 Type S   : 14s5p5d2f1g contracted to 8s4p3d1f1g pattern {71111111/2111/311/2/1}
 Group   3 Type O   : 12s5p4d2f1g contracted to 6s4p3d1f1g pattern {711111/2111/211/2/1}
 Group   4 Type F   : 12s5p4d2f1g contracted to 6s4p3d1f1g pattern {711111/2111/211/2/1}
 Group   5 Type H   : 5s2p1d contracted to 3s1p1d pattern {311/2/1}

Atom   0C    basis set group =>   1
Atom   1S    basis set group =>   2
Atom   2O    basis set group =>   3
Atom   3O    basis set group =>   3
Atom   4F    basis set group =>   4
Atom   5C    basis set group =>   1
Atom   6H    basis set group =>   5
Atom   7H    basis set group =>   5
Atom   8H    basis set group =>   5
Atom   9H    basis set group =>   5
Atom  10H    basis set group =>   5


           ************************************************************
           *        Program running with 4 parallel MPI-processes     *
           *              working on a common directory               *
           ************************************************************
------------------------------------------------------------------------------
                           ORCA GTO INTEGRAL CALCULATION
                           -- RI-GTO INTEGRALS CHOSEN --
------------------------------------------------------------------------------
------------------------------------------------------------------------------
                   ___                                                        
                  /   \      - P O W E R E D   B Y -                         
                 /     \                                                     
                 |  |  |   _    _      __       _____    __    __             
                 |  |  |  | |  | |    /  \     |  _  \  |  |  /  |          
                  \  \/   | |  | |   /    \    | | | |  |  | /  /          
                 / \  \   | |__| |  /  /\  \   | |_| |  |  |/  /          
                |  |  |   |  __  | /  /__\  \  |    /   |      \           
                |  |  |   | |  | | |   __   |  |    \   |  |\   \          
                \     /   | |  | | |  |  |  |  | |\  \  |  | \   \       
                 \___/    |_|  |_| |__|  |__|  |_| \__\ |__|  \__/        
                                                                              
                      - O R C A' S   B I G   F R I E N D -                    
                                      &                                       
                       - I N T E G R A L  F E E D E R -                       
                                                                              
 v1 FN, 2020, v2 2021                                                         
------------------------------------------------------------------------------


Reading SHARK input file TZVP_M062X_C3_wt_dlpno_neg.SHARKINP.tmp ... ok
----------------------
SHARK INTEGRAL PACKAGE
----------------------

Number of atoms                             ...     11
Number of basis functions                   ...    222
Number of shells                            ...     88
Maximum angular momentum                    ...      3
Integral batch strategy                     ... SHARK/LIBINT Hybrid
RI-J (if used) integral strategy            ... SPLIT-RIJ (Revised 2003 algorithm where possible)
Printlevel                                  ...      1
Contraction scheme used                     ... SEGMENTED contraction
Coulomb Range Separation                    ... NOT USED
Exchange Range Separation                   ... NOT USED
Finite Nucleus Model                        ... NOT USED
Auxiliary Coulomb fitting basis             ... AVAILABLE
   # of basis functions in Aux-J            ...    351
   # of shells in Aux-J                     ...    117
   Maximum angular momentum in Aux-J        ...      4
Auxiliary J/K fitting basis                 ... NOT available
Auxiliary Correlation fitting basis         ... NOT available
Auxiliary 'external' fitting basis          ... NOT available
Integral threshold                          ...     2.500000e-11
Primitive cut-off                           ...     2.500000e-12
Primitive pair pre-selection threshold      ...     2.500000e-12

Calculating pre-screening integrals         ... done (  0.1 sec) Dimension = 88
Organizing shell pair data                  ... done (  0.0 sec)
Shell pair information
Total number of shell pairs                 ...      3916
Shell pairs after pre-screening             ...      3653
Total number of primitive shell pairs       ...     12564
Primitive shell pairs kept                  ...      8833
          la=0 lb=0:    923 shell pairs
          la=1 lb=0:   1059 shell pairs
          la=1 lb=1:    317 shell pairs
          la=2 lb=0:    496 shell pairs
          la=2 lb=1:    292 shell pairs
          la=2 lb=2:     76 shell pairs
          la=3 lb=0:    251 shell pairs
          la=3 lb=1:    147 shell pairs
          la=3 lb=2:     71 shell pairs
          la=3 lb=3:     21 shell pairs

Calculating one electron integrals          ... done (  0.0 sec)
Calculating RI/J V-Matrix + Cholesky decomp.... done (  0.0 sec)
Calculating Nuclear repulsion               ... done (  0.0 sec) ENN=    361.680361195623 Eh

SHARK setup successfully completed in   0.2 seconds

Maximum memory used throughout the entire GTOINT-calculation: 15.3 MB


           ************************************************************
           *        Program running with 4 parallel MPI-processes     *
           *              working on a common directory               *
           ************************************************************
-------------------------------------------------------------------------------
                                 ORCA SCF
-------------------------------------------------------------------------------

------------
SCF SETTINGS
------------
Hamiltonian:
 Density Functional     Method          .... DFT(GTOs)
 Exchange Functional    Exchange        .... M062X
 Correlation Functional Correlation     .... M062X
 Gradients option       PostSCFGGA      .... off
 Hybrid DFT is turned on
   Fraction HF Exchange ScalHFX         ....  0.540000
   Scaling of DF-GGA-X  ScalDFX         ....  0.460000
   Scaling of DF-GGA-C  ScalDFC         ....  1.000000
   Scaling of DF-LDA-C  ScalLDAC        ....  1.000000
   Perturbative correction              ....  0.000000
   Density functional embedding theory  .... OFF
 RI-approximation to the Coulomb term is turned on
   Number of AuxJ basis functions       .... 351
   RIJ-COSX (HFX calculated with COS-X)).... on


General Settings:
 Integral files         IntName         .... TZVP_M062X_C3_wt_dlpno_neg
 Hartree-Fock type      HFTyp           .... RHF
 Total Charge           Charge          ....    0
 Multiplicity           Mult            ....    1
 Number of Electrons    NEL             ....   58
 Basis Dimension        Dim             ....  222
 Nuclear Repulsion      ENuc            ....    361.6803611956 Eh

Convergence Acceleration:
 DIIS                   CNVDIIS         .... on
   Start iteration      DIISMaxIt       ....    12
   Startup error        DIISStart       ....  0.200000
   # of expansion vecs  DIISMaxEq       ....     5
   Bias factor          DIISBfac        ....   1.050
   Max. coefficient     DIISMaxC        ....  10.000
 Trust-Rad. Augm. Hess. CNVTRAH         .... auto
   Auto Start mean grad. ratio tolernc. ....  1.125000
   Auto Start start iteration           ....    20
   Auto Start num. interpolation iter.  ....    10
   Max. Number of Micro iterations      ....    16
   Max. Number of Macro iterations      .... Maxiter - #DIIS iter
   Number of Davidson start vectors     ....     2
   Converg. threshold I  (grad. norm)   ....   1.000e-05
   Converg. threshold II (energy diff.) ....   1.000e-08
   Grad. Scal. Fac. for Micro threshold ....   0.100
   Minimum threshold for Micro iter.    ....   0.010
   NR start threshold (gradient norm)   ....   0.001
   Initial trust radius                 ....   0.400
   Minimum AH scaling param. (alpha)    ....   1.000
   Maximum AH scaling param. (alpha)    .... 1000.000
   Orbital update algorithm             .... Taylor
   White noise on init. David. guess    .... on
   Maximum white noise                  ....   0.010
   Quad. conv. algorithm                .... NR
 SOSCF                  CNVSOSCF        .... on
   Start iteration      SOSCFMaxIt      ....   150
   Startup grad/error   SOSCFStart      ....  0.003300
 Level Shifting         CNVShift        .... on
   Level shift para.    LevelShift      ....    0.2500
   Turn off err/grad.   ShiftErr        ....    0.0010
 Zerner damping         CNVZerner       .... off
 Static damping         CNVDamp         .... on
   Fraction old density DampFac         ....    0.7000
   Max. Damping (<1)    DampMax         ....    0.9800
   Min. Damping (>=0)   DampMin         ....    0.0000
   Turn off err/grad.   DampErr         ....    0.1000
 Fernandez-Rico         CNVRico         .... off

SCF Procedure:
 Maximum # iterations   MaxIter         ....   150
 SCF integral mode      SCFMode         .... Direct
   Integral package                     .... SHARK and LIBINT hybrid scheme
 Reset frequency        DirectResetFreq ....    20
 Integral Threshold     Thresh          ....  2.500e-11 Eh
 Primitive CutOff       TCut            ....  2.500e-12 Eh

Convergence Tolerance:
 Convergence Check Mode ConvCheckMode   .... Total+1el-Energy
 Convergence forced     ConvForced      .... 0
 Energy Change          TolE            ....  1.000e-08 Eh
 1-El. energy change                    ....  1.000e-05 Eh
 Orbital Gradient       TolG            ....  1.000e-05
 Orbital Rotation angle TolX            ....  1.000e-05
 DIIS Error             TolErr          ....  5.000e-07


Diagonalization of the overlap matrix:
Smallest eigenvalue                        ... 4.355e-04
Time for diagonalization                   ...    0.015 sec
Threshold for overlap eigenvalues          ... 1.000e-08
Number of eigenvalues below threshold      ... 0
Time for construction of square roots      ...    0.009 sec
Total time needed                          ...    0.025 sec

Time for model grid setup =    0.079 sec

------------------------------
INITIAL GUESS: MODEL POTENTIAL
------------------------------
Loading Hartree-Fock densities                     ... done
Calculating cut-offs                               ... done
Initializing the effective Hamiltonian             ... done
Setting up the integral package (SHARK)            ... done
Starting the Coulomb interaction                   ... done (   0.1 sec)
Reading the grid                                   ... done
Mapping shells                                     ... done
Starting the XC term evaluation                    ... done (   0.1 sec)
  promolecular density results
     # of electrons  =     57.996949088
     EX              =    -63.043690002
     EC              =     -2.062516319
     EX+EC           =    -65.106206321
Transforming the Hamiltonian                       ... done (   0.0 sec)
Diagonalizing the Hamiltonian                      ... done (   0.0 sec)
Back transforming the eigenvectors                 ... done (   0.0 sec)
Now organizing SCF variables                       ... done
                      ------------------
                      INITIAL GUESS DONE (   0.2 sec)
                      ------------------
-------------------
DFT GRID GENERATION
-------------------

General Integration Accuracy     IntAcc      ... 4.388
Radial Grid Type                 RadialGrid  ... OptM3 with GC (2021)
Angular Grid (max. ang.)         AngularGrid ... 4 (Lebedev-302)
Angular grid pruning method      GridPruning ... 4 (adaptive)
Weight generation scheme         WeightScheme... Becke
Basis function cutoff            BFCut       ... 1.0000e-11
Integration weight cutoff        WCut        ... 1.0000e-14
Angular grids for H and He will be reduced by one unit
Partially contracted basis set               ... off
Rotationally invariant grid construction     ... off

Total number of grid points                  ...    53895
Total number of batches                      ...      847
Average number of points per batch           ...       63
Average number of grid points per atom       ...     4900
Time for grid setup =    0.383 sec

--------------------
COSX GRID GENERATION
--------------------

GRIDX 1
-------
General Integration Accuracy     IntAcc      ... 3.816
Radial Grid Type                 RadialGrid  ... OptM3 with GC (2021)
Angular Grid (max. ang.)         AngularGrid ... 1 (Lebedev-50)
Angular grid pruning method      GridPruning ... 4 (adaptive)
Weight generation scheme         WeightScheme... Becke
Basis function cutoff            BFCut       ... 1.0000e-11
Integration weight cutoff        WCut        ... 1.0000e-14
Angular grids for H and He will be reduced by one unit
Partially contracted basis set               ... on
Rotationally invariant grid construction     ... off

Total number of grid points                  ...     6791
Total number of batches                      ...      113
Average number of points per batch           ...       60
Average number of grid points per atom       ...      617
UseSFitting                                  ... on

GRIDX 2
-------
General Integration Accuracy     IntAcc      ... 4.020
Radial Grid Type                 RadialGrid  ... OptM3 with GC (2021)
Angular Grid (max. ang.)         AngularGrid ... 2 (Lebedev-110)
Angular grid pruning method      GridPruning ... 4 (adaptive)
Weight generation scheme         WeightScheme... Becke
Basis function cutoff            BFCut       ... 1.0000e-11
Integration weight cutoff        WCut        ... 1.0000e-14
Angular grids for H and He will be reduced by one unit
Partially contracted basis set               ... on
Rotationally invariant grid construction     ... off

Total number of grid points                  ...    14995
Total number of batches                      ...      239
Average number of points per batch           ...       62
Average number of grid points per atom       ...     1363
UseSFitting                                  ... on

GRIDX 3
-------
General Integration Accuracy     IntAcc      ... 4.338
Radial Grid Type                 RadialGrid  ... OptM3 with GC (2021)
Angular Grid (max. ang.)         AngularGrid ... 3 (Lebedev-194)
Angular grid pruning method      GridPruning ... 4 (adaptive)
Weight generation scheme         WeightScheme... Becke
Basis function cutoff            BFCut       ... 1.0000e-11
Integration weight cutoff        WCut        ... 1.0000e-14
Angular grids for H and He will be reduced by one unit
Partially contracted basis set               ... on
Rotationally invariant grid construction     ... off

Total number of grid points                  ...    33637
Total number of batches                      ...      531
Average number of points per batch           ...       63
Average number of grid points per atom       ...     3058
UseSFitting                                  ... on

Time for X-Grid setup             =    0.349 sec

--------------
SCF ITERATIONS
--------------
ITER       Energy         Delta-E        Max-DP      RMS-DP      [F,P]     Damp
               ***  Starting incremental Fock matrix formation  ***
  0   -727.3077849168   0.000000000000 0.12352477  0.00154988  0.3092017 0.7000
  1   -727.4754859073  -0.167700990588 0.05466165  0.00099740  0.1307972 0.7000
                               ***Turning on DIIS***
  2   -727.5366391344  -0.061153227022 0.04777916  0.00151638  0.0482634 0.0000
  3   -727.6442342014  -0.107595067036 0.05200615  0.00070910  0.0667907 0.0000
  4   -727.6628429099  -0.018608708517 0.00955528  0.00020150  0.0123232 0.0000
                      *** Initiating the SOSCF procedure ***
                           *** Shutting down DIIS ***
                      *** Re-Reading the Fockian *** 
                      *** Removing any level shift *** 
ITER      Energy       Delta-E        Grad      Rot      Max-DP    RMS-DP
  5   -727.66357834  -0.0007354302  0.000893  0.000893  0.002718  0.000067
               *** Restarting incremental Fock matrix formation ***
  6   -727.66361047  -0.0000321251  0.000307  0.000610  0.001501  0.000037
  7   -727.66361717  -0.0000067087  0.000205  0.000587  0.000987  0.000024
  8   -727.66361794  -0.0000007684  0.000130  0.000161  0.000373  0.000009
  9   -727.66361853  -0.0000005894  0.000032  0.000046  0.000243  0.000004
 10   -727.66361857  -0.0000000416  0.000017  0.000029  0.000091  0.000002
 11   -727.66361858  -0.0000000101  0.000006  0.000005  0.000011  0.000000
 12   -727.66361858  -0.0000000010  0.000005  0.000003  0.000007  0.000000
                 **** Energy Check signals convergence ****
              ***Rediagonalizing the Fockian in SOSCF/NRSCF***

               *****************************************************
               *                     SUCCESS                       *
               *           SCF CONVERGED AFTER  13 CYCLES          *
               *****************************************************

Old exchange energy                            =    -34.475855544 Eh
New exchange energy                            =    -34.475823361 Eh
Exchange energy change after final integration =      0.000032182 Eh
Total energy after final integration           =   -727.663586405 Eh
Final COS-X integration done in                =     3.254 sec

----------------
TOTAL SCF ENERGY
----------------

Total Energy       :         -727.66358640 Eh          -19800.73284 eV

Components:
Nuclear Repulsion  :          361.68036120 Eh            9841.82298 eV
Electronic Energy  :        -1089.34394760 Eh          -29642.55581 eV
One Electron Energy:        -1719.27811126 Eh          -46783.93586 eV
Two Electron Energy:          629.93416366 Eh           17141.38004 eV
Max COSX asymmetry :            0.00000630 Eh               0.00017 eV

Virial components:
Potential Energy   :        -1453.45250904 Eh          -39550.45348 eV
Kinetic Energy     :          725.78892264 Eh           19749.72064 eV
Virial Ratio       :            2.00258293


DFT components:
N(Alpha)           :       28.999996347360 electrons
N(Beta)            :       28.999996347360 electrons
N(Total)           :       57.999992694719 electrons
E(XC)              :      -31.630155101670 Eh       
DFET-embed. en.    :        0.000000000000 Eh       

---------------
SCF CONVERGENCE
---------------

  Last Energy change         ...   -2.7251e-09  Tolerance :   1.0000e-08
  Last MAX-Density change    ...    2.2204e-15  Tolerance :   1.0000e-07
  Last RMS-Density change    ...    2.4296e-17  Tolerance :   5.0000e-09
  Last Orbital Gradient      ...    2.7414e-07  Tolerance :   1.0000e-05
  Last Orbital Rotation      ...    4.1295e-07  Tolerance :   1.0000e-05

             **** THE GBW FILE WAS UPDATED (TZVP_M062X_C3_wt_dlpno_neg.gbw) ****
             **** DENSITY TZVP_M062X_C3_wt_dlpno_neg.scfp WAS UPDATED ****
             **** ENERGY FILE WAS UPDATED (TZVP_M062X_C3_wt_dlpno_neg.en.tmp) ****
             **** THE GBW FILE WAS UPDATED (TZVP_M062X_C3_wt_dlpno_neg.gbw) ****
             **** DENSITY TZVP_M062X_C3_wt_dlpno_neg.scfp WAS UPDATED ****
----------------
ORBITAL ENERGIES
----------------

  NO   OCC          E(Eh)            E(eV) 
   0   2.0000     -90.152939     -2453.1862 
   1   2.0000     -25.371673      -690.3983 
   2   2.0000     -19.631426      -534.1983 
   3   2.0000     -19.628210      -534.1108 
   4   2.0000     -10.602253      -288.5020 
   5   2.0000     -10.554512      -287.2029 
   6   2.0000      -8.478070      -230.7000 
   7   2.0000      -6.402825      -174.2297 
   8   2.0000      -6.397824      -174.0937 
   9   2.0000      -6.397287      -174.0790 
  10   2.0000      -1.536726       -41.8165 
  11   2.0000      -1.214788       -33.0561 
  12   2.0000      -1.114487       -30.3267 
  13   2.0000      -0.925798       -25.1922 
  14   2.0000      -0.840705       -22.8768 
  15   2.0000      -0.769881       -20.9495 
  16   2.0000      -0.694022       -18.8853 
  17   2.0000      -0.688923       -18.7466 
  18   2.0000      -0.642109       -17.4727 
  19   2.0000      -0.569621       -15.5002 
  20   2.0000      -0.560160       -15.2427 
  21   2.0000      -0.520102       -14.1527 
  22   2.0000      -0.496976       -13.5234 
  23   2.0000      -0.473829       -12.8935 
  24   2.0000      -0.457748       -12.4560 
  25   2.0000      -0.453749       -12.3471 
  26   2.0000      -0.399285       -10.8651 
  27   2.0000      -0.391611       -10.6563 
  28   2.0000      -0.374878       -10.2010 
  29   0.0000       0.051056         1.3893 
  30   0.0000       0.068483         1.8635 
  31   0.0000       0.084762         2.3065 
  32   0.0000       0.105859         2.8806 
  33   0.0000       0.112312         3.0562 
  34   0.0000       0.117867         3.2073 
  35   0.0000       0.132668         3.6101 
  36   0.0000       0.143928         3.9165 
  37   0.0000       0.172665         4.6984 
  38   0.0000       0.197470         5.3734 
  39   0.0000       0.219306         5.9676 
  40   0.0000       0.233764         6.3610 
  41   0.0000       0.243164         6.6168 
  42   0.0000       0.295149         8.0314 
  43   0.0000       0.303395         8.2558 
  44   0.0000       0.315945         8.5973 
  45   0.0000       0.329136         8.9563 
  46   0.0000       0.335305         9.1241 
  47   0.0000       0.385710        10.4957 
  48   0.0000       0.410229        11.1629 
  49   0.0000       0.421946        11.4817 
  50   0.0000       0.428271        11.6538 
  51   0.0000       0.457836        12.4584 
  52   0.0000       0.466667        12.6987 
  53   0.0000       0.477618        12.9967 
  54   0.0000       0.480864        13.0850 
  55   0.0000       0.502334        13.6692 
  56   0.0000       0.517797        14.0900 
  57   0.0000       0.531050        14.4506 
  58   0.0000       0.536500        14.5989 
  59   0.0000       0.557299        15.1649 
  60   0.0000       0.598583        16.2883 
  61   0.0000       0.611903        16.6507 
  62   0.0000       0.631033        17.1713 
  63   0.0000       0.655348        17.8329 
  64   0.0000       0.660696        17.9784 
  65   0.0000       0.682181        18.5631 
  66   0.0000       0.723486        19.6871 
  67   0.0000       0.759360        20.6632 
  68   0.0000       0.774973        21.0881 
  69   0.0000       0.812341        22.1049 
  70   0.0000       0.863052        23.4848 
  71   0.0000       0.879176        23.9236 
  72   0.0000       0.886869        24.1329 
  73   0.0000       0.930260        25.3137 
  74   0.0000       0.934944        25.4411 
  75   0.0000       0.968973        26.3671 
  76   0.0000       0.999420        27.1956 
  77   0.0000       1.046978        28.4897 
  78   0.0000       1.070795        29.1378 
  79   0.0000       1.082356        29.4524 
  80   0.0000       1.103946        30.0399 
  81   0.0000       1.151536        31.3349 
  82   0.0000       1.172301        31.8999 
  83   0.0000       1.339958        36.4621 
  84   0.0000       1.370752        37.3000 
  85   0.0000       1.372665        37.3521 
  86   0.0000       1.462907        39.8077 
  87   0.0000       1.473215        40.0882 
  88   0.0000       1.483154        40.3587 
  89   0.0000       1.509257        41.0690 
  90   0.0000       1.533529        41.7294 
  91   0.0000       1.546619        42.0856 
  92   0.0000       1.568691        42.6863 
  93   0.0000       1.579042        42.9679 
  94   0.0000       1.594670        43.3932 
  95   0.0000       1.596865        43.4529 
  96   0.0000       1.617660        44.0188 
  97   0.0000       1.642311        44.6896 
  98   0.0000       1.667923        45.3865 
  99   0.0000       1.687676        45.9240 
 100   0.0000       1.708630        46.4942 
 101   0.0000       1.713951        46.6390 
 102   0.0000       1.769980        48.1636 
 103   0.0000       1.790062        48.7101 
 104   0.0000       1.838614        50.0312 
 105   0.0000       1.863851        50.7180 
 106   0.0000       1.875417        51.0327 
 107   0.0000       1.928420        52.4750 
 108   0.0000       1.970052        53.6078 
 109   0.0000       1.973767        53.7089 
 110   0.0000       2.059655        56.0461 
 111   0.0000       2.062706        56.1291 
 112   0.0000       2.090273        56.8792 
 113   0.0000       2.117348        57.6160 
 114   0.0000       2.190643        59.6104 
 115   0.0000       2.221171        60.4411 
 116   0.0000       2.270802        61.7917 
 117   0.0000       2.298893        62.5561 
 118   0.0000       2.312587        62.9287 
 119   0.0000       2.320164        63.1349 
 120   0.0000       2.342466        63.7417 
 121   0.0000       2.354313        64.0641 
 122   0.0000       2.368619        64.4534 
 123   0.0000       2.384761        64.8927 
 124   0.0000       2.409387        65.5628 
 125   0.0000       2.441277        66.4305 
 126   0.0000       2.466957        67.1293 
 127   0.0000       2.486985        67.6743 
 128   0.0000       2.493278        67.8455 
 129   0.0000       2.578090        70.1534 
 130   0.0000       2.591355        70.5144 
 131   0.0000       2.610413        71.0329 
 132   0.0000       2.615877        71.1816 
 133   0.0000       2.626958        71.4832 
 134   0.0000       2.656950        72.2993 
 135   0.0000       2.686484        73.1029 
 136   0.0000       2.714679        73.8702 
 137   0.0000       2.736668        74.4685 
 138   0.0000       2.785840        75.8066 
 139   0.0000       2.824404        76.8559 
 140   0.0000       2.894190        78.7549 
 141   0.0000       2.931614        79.7733 
 142   0.0000       2.946709        80.1840 
 143   0.0000       2.991097        81.3919 
 144   0.0000       3.004228        81.7492 
 145   0.0000       3.019297        82.1592 
 146   0.0000       3.084288        83.9278 
 147   0.0000       3.086871        83.9980 
 148   0.0000       3.116392        84.8013 
 149   0.0000       3.133123        85.2566 
 150   0.0000       3.182046        86.5879 
 151   0.0000       3.195417        86.9517 
 152   0.0000       3.266899        88.8968 
 153   0.0000       3.326084        90.5073 
 154   0.0000       3.341940        90.9388 
 155   0.0000       3.364137        91.5428 
 156   0.0000       3.384324        92.0921 
 157   0.0000       3.457049        94.0711 
 158   0.0000       3.479729        94.6882 
 159   0.0000       3.490694        94.9866 
 160   0.0000       3.529971        96.0554 
 161   0.0000       3.619469        98.4908 
 162   0.0000       3.719130       101.2027 
 163   0.0000       3.733049       101.5814 
 164   0.0000       3.816020       103.8392 
 165   0.0000       3.842542       104.5609 
 166   0.0000       3.860530       105.0504 
 167   0.0000       3.904643       106.2507 
 168   0.0000       3.951583       107.5280 
 169   0.0000       4.095280       111.4382 
 170   0.0000       4.223696       114.9326 
 171   0.0000       4.269957       116.1914 
 172   0.0000       4.400401       119.7410 
 173   0.0000       4.410585       120.0181 
 174   0.0000       4.523466       123.0898 
 175   0.0000       4.571081       124.3854 
 176   0.0000       4.687845       127.5627 
 177   0.0000       5.158531       140.3708 
 178   0.0000       5.165403       140.5578 
 179   0.0000       5.168869       140.6521 
 180   0.0000       5.179484       140.9409 
 181   0.0000       5.186870       141.1419 
 182   0.0000       5.193283       141.3164 
 183   0.0000       5.210340       141.7805 
 184   0.0000       5.342829       145.3858 
 185   0.0000       5.381050       146.4258 
 186   0.0000       5.414956       147.3484 
 187   0.0000       5.469387       148.8296 
 188   0.0000       5.512370       149.9992 
 189   0.0000       5.562152       151.3538 
 190   0.0000       5.629071       153.1748 
 191   0.0000       6.276389       170.7892 
 192   0.0000       6.339092       172.4954 
 193   0.0000       6.352645       172.8642 
 194   0.0000       6.379912       173.6062 
 195   0.0000       6.573489       178.8737 
 196   0.0000       6.646818       180.8691 
 197   0.0000       6.682513       181.8404 
 198   0.0000       6.785559       184.6444 
 199   0.0000       6.793343       184.8562 
 200   0.0000       6.798953       185.0089 
 201   0.0000       6.836687       186.0357 
 202   0.0000       6.857202       186.5939 
 203   0.0000       6.859159       186.6472 
 204   0.0000       6.884203       187.3287 
 205   0.0000       6.913354       188.1219 
 206   0.0000       6.982279       189.9975 
 207   0.0000       7.049564       191.8284 
 208   0.0000       8.249752       224.4872 
 209   0.0000       8.262340       224.8297 
 210   0.0000       8.612060       234.3461 
 211   0.0000       8.627238       234.7591 
 212   0.0000       8.712726       237.0853 
 213   0.0000       9.399451       255.7721 
 214   0.0000       9.539753       259.5899 
 215   0.0000       9.759469       265.5687 
 216   0.0000      22.140181       602.4649 
 217   0.0000      22.440777       610.6446 
 218   0.0000      22.506013       612.4197 
 219   0.0000      43.578256      1185.8246 
 220   0.0000      43.754042      1190.6080 
 221   0.0000      57.171285      1555.7097 

                    ********************************
                    * MULLIKEN POPULATION ANALYSIS *
                    ********************************

-----------------------
MULLIKEN ATOMIC CHARGES
-----------------------
   0 C :   -0.307567
   1 S :    0.929985
   2 O :   -0.468948
   3 O :   -0.471579
   4 F :   -0.106001
   5 C :   -0.390357
   6 H :    0.183665
   7 H :    0.156487
   8 H :    0.159922
   9 H :    0.167571
  10 H :    0.146821
Sum of atomic charges:   -0.0000000

--------------------------------
MULLIKEN REDUCED ORBITAL CHARGES
--------------------------------
  0 C s       :     3.253115  s :     3.253115
      pz      :     0.990371  p :     2.970892
      px      :     0.969033
      py      :     1.011489
      dz2     :     0.004679  d :     0.079274
      dxz     :     0.021994
      dyz     :     0.021442
      dx2y2   :     0.011573
      dxy     :     0.019586
      f0      :     0.000196  f :     0.004286
      f+1     :     0.000501
      f-1     :     0.000707
      f+2     :     0.001016
      f-2     :     0.000611
      f+3     :     0.000830
      f-3     :     0.000424
  1 S s       :     5.356123  s :     5.356123
      pz      :     2.836911  p :     8.495001
      px      :     2.884762
      py      :     2.773328
      dz2     :     0.180249  d :     1.095156
      dxz     :     0.230353
      dyz     :     0.229765
      dx2y2   :     0.235600
      dxy     :     0.219188
      f0      :     0.012447  f :     0.123735
      f+1     :     0.015946
      f-1     :     0.022305
      f+2     :     0.020569
      f-2     :     0.014784
      f+3     :     0.021156
      f-3     :     0.016528
  2 O s       :     3.868118  s :     3.868118
      pz      :     1.633912  p :     4.565086
      px      :     1.641888
      py      :     1.289286
      dz2     :     0.004777  d :     0.033659
      dxz     :     0.001843
      dyz     :     0.008816
      dx2y2   :     0.009502
      dxy     :     0.008720
      f0      :     0.000174  f :     0.002086
      f+1     :     0.000048
      f-1     :     0.000375
      f+2     :     0.000341
      f-2     :     0.000222
      f+3     :     0.000462
      f-3     :     0.000465
  3 O s       :     3.866207  s :     3.866207
      pz      :     1.524191  p :     4.569962
      px      :     1.410547
      py      :     1.635225
      dz2     :     0.005739  d :     0.033340
      dxz     :     0.009387
      dyz     :     0.003494
      dx2y2   :     0.007191
      dxy     :     0.007530
      f0      :     0.000190  f :     0.002070
      f+1     :     0.000408
      f-1     :     0.000090
      f+2     :     0.000381
      f-2     :     0.000400
      f+3     :     0.000298
      f-3     :     0.000304
  4 F s       :     3.903716  s :     3.903716
      pz      :     1.669218  p :     5.180218
      px      :     1.798457
      py      :     1.712543
      dz2     :     0.004785  d :     0.021067
      dxz     :     0.004067
      dyz     :     0.006107
      dx2y2   :     0.002920
      dxy     :     0.003187
      f0      :     0.000123  f :     0.001000
      f+1     :     0.000108
      f-1     :     0.000227
      f+2     :     0.000177
      f-2     :     0.000228
      f+3     :     0.000074
      f-3     :     0.000063
  5 C s       :     3.292010  s :     3.292010
      pz      :     1.059420  p :     3.044602
      px      :     1.087356
      py      :     0.897826
      dz2     :     0.003038  d :     0.050602
      dxz     :     0.011221
      dyz     :     0.015724
      dx2y2   :     0.009562
      dxy     :     0.011056
      f0      :     0.000263  f :     0.003144
      f+1     :     0.000132
      f-1     :     0.000604
      f+2     :     0.000892
      f-2     :     0.000328
      f+3     :     0.000569
      f-3     :     0.000355
  6 H s       :     0.795661  s :     0.795661
      pz      :     0.008969  p :     0.020674
      px      :     0.003837
      py      :     0.007868
  7 H s       :     0.823335  s :     0.823335
      pz      :     0.005193  p :     0.020178
      px      :     0.010262
      py      :     0.004723
  8 H s       :     0.819682  s :     0.819682
      pz      :     0.008997  p :     0.020395
      px      :     0.004046
      py      :     0.007352
  9 H s       :     0.812277  s :     0.812277
      pz      :     0.005442  p :     0.020152
      px      :     0.010072
      py      :     0.004638
 10 H s       :     0.833261  s :     0.833261
      pz      :     0.007674  p :     0.019918
      px      :     0.008417
      py      :     0.003828


                     *******************************
                     * LOEWDIN POPULATION ANALYSIS *
                     *******************************

----------------------
LOEWDIN ATOMIC CHARGES
----------------------
   0 C :   -0.393366
   1 S :    0.571170
   2 O :   -0.309929
   3 O :   -0.322553
   4 F :    0.096664
   5 C :   -0.304415
   6 H :    0.145798
   7 H :    0.134351
   8 H :    0.127102
   9 H :    0.129778
  10 H :    0.125400

-------------------------------
LOEWDIN REDUCED ORBITAL CHARGES
-------------------------------
  0 C s       :     2.851156  s :     2.851156
      pz      :     1.033659  p :     3.150892
      px      :     1.027499
      py      :     1.089734
      dz2     :     0.035596  d :     0.358969
      dxz     :     0.090289
      dyz     :     0.092976
      dx2y2   :     0.069303
      dxy     :     0.070805
      f0      :     0.003059  f :     0.032350
      f+1     :     0.003513
      f-1     :     0.005858
      f+2     :     0.005386
      f-2     :     0.003898
      f+3     :     0.006416
      f-3     :     0.004219
  1 S s       :     4.763906  s :     4.763906
      pz      :     2.837554  p :     8.564290
      px      :     2.896579
      py      :     2.830157
      dz2     :     0.261860  d :     1.724274
      dxz     :     0.391335
      dyz     :     0.372718
      dx2y2   :     0.364520
      dxy     :     0.333842
      f0      :     0.037907  f :     0.376361
      f+1     :     0.047437
      f-1     :     0.065203
      f+2     :     0.062527
      f-2     :     0.052604
      f+3     :     0.061224
      f-3     :     0.049458
  2 O s       :     3.585572  s :     3.585572
      pz      :     1.603355  p :     4.655741
      px      :     1.600628
      py      :     1.451757
      dz2     :     0.008177  d :     0.064281
      dxz     :     0.003268
      dyz     :     0.016924
      dx2y2   :     0.020687
      dxy     :     0.015225
      f0      :     0.000460  f :     0.004336
      f+1     :     0.000073
      f-1     :     0.000646
      f+2     :     0.000764
      f-2     :     0.000523
      f+3     :     0.000977
      f-3     :     0.000892
  3 O s       :     3.590762  s :     3.590762
      pz      :     1.546189  p :     4.663825
      px      :     1.501735
      py      :     1.615901
      dz2     :     0.007384  d :     0.063695
      dxz     :     0.021330
      dyz     :     0.007329
      dx2y2   :     0.013134
      dxy     :     0.014518
      f0      :     0.000478  f :     0.004272
      f+1     :     0.000612
      f-1     :     0.000166
      f+2     :     0.000800
      f-2     :     0.000970
      f+3     :     0.000495
      f-3     :     0.000750
  4 F s       :     3.651485  s :     3.651485
      pz      :     1.709182  p :     5.210125
      px      :     1.769027
      py      :     1.731916
      dz2     :     0.007440  d :     0.039921
      dxz     :     0.007833
      dyz     :     0.014012
      dx2y2   :     0.004781
      dxy     :     0.005855
      f0      :     0.000196  f :     0.001806
      f+1     :     0.000202
      f-1     :     0.000443
      f+2     :     0.000308
      f-2     :     0.000419
      f+3     :     0.000142
      f-3     :     0.000095
  5 C s       :     2.825039  s :     2.825039
      pz      :     1.079504  p :     3.197438
      px      :     1.084408
      py      :     1.033527
      dz2     :     0.020627  d :     0.255731
      dxz     :     0.052756
      dyz     :     0.072835
      dx2y2   :     0.060535
      dxy     :     0.048977
      f0      :     0.002984  f :     0.026206
      f+1     :     0.001341
      f-1     :     0.005939
      f+2     :     0.004290
      f-2     :     0.002036
      f+3     :     0.005739
      f-3     :     0.003878
  6 H s       :     0.791222  s :     0.791222
      pz      :     0.027382  p :     0.062980
      px      :     0.012793
      py      :     0.022804
  7 H s       :     0.802603  s :     0.802603
      pz      :     0.016978  p :     0.063045
      px      :     0.030790
      py      :     0.015276
  8 H s       :     0.808085  s :     0.808085
      pz      :     0.028873  p :     0.064813
      px      :     0.014623
      py      :     0.021317
  9 H s       :     0.805666  s :     0.805666
      pz      :     0.018069  p :     0.064556
      px      :     0.031677
      py      :     0.014810
 10 H s       :     0.810384  s :     0.810384
      pz      :     0.024065  p :     0.064216
      px      :     0.026902
      py      :     0.013250


                      *****************************
                      * MAYER POPULATION ANALYSIS *
                      *****************************

  NA   - Mulliken gross atomic population
  ZA   - Total nuclear charge
  QA   - Mulliken gross atomic charge
  VA   - Mayer's total valence
  BVA  - Mayer's bonded valence
  FA   - Mayer's free valence

  ATOM       NA         ZA         QA         VA         BVA        FA
  0 C      6.3076     6.0000    -0.3076     3.7993     3.7993    -0.0000
  1 S     15.0700    16.0000     0.9300     5.8259     5.8259     0.0000
  2 O      8.4689     8.0000    -0.4689     1.9574     1.9574    -0.0000
  3 O      8.4716     8.0000    -0.4716     1.9563     1.9563     0.0000
  4 F      9.1060     9.0000    -0.1060     1.1859     1.1859     0.0000
  5 C      6.3904     6.0000    -0.3904     3.8365     3.8365    -0.0000
  6 H      0.8163     1.0000     0.1837     0.9522     0.9522    -0.0000
  7 H      0.8435     1.0000     0.1565     0.9472     0.9472    -0.0000
  8 H      0.8401     1.0000     0.1599     0.9671     0.9671    -0.0000
  9 H      0.8324     1.0000     0.1676     0.9574     0.9574     0.0000
 10 H      0.8532     1.0000     0.1468     0.9524     0.9524     0.0000

  Mayer bond orders larger than 0.100000
B(  0-C ,  1-S ) :   0.9113 B(  0-C ,  5-C ) :   0.9449 B(  0-C ,  6-H ) :   0.9406 
B(  0-C ,  7-H ) :   0.9415 B(  1-S ,  2-O ) :   1.8684 B(  1-S ,  3-O ) :   1.8784 
B(  1-S ,  4-F ) :   1.1257 B(  5-C ,  8-H ) :   0.9644 B(  5-C ,  9-H ) :   0.9656 
B(  5-C , 10-H ) :   0.9575 

-------
TIMINGS
-------

Total SCF time: 0 days 0 hours 0 min 28 sec 

Total time                  ....      28.526 sec
Sum of individual times     ....      28.307 sec  ( 99.2%)

Fock matrix formation       ....      27.124 sec  ( 95.1%)
  Split-RI-J                ....       1.793 sec  (  6.6% of F)
  Chain of spheres X        ....      18.364 sec  ( 67.7% of F)
  XC integration            ....       6.908 sec  ( 25.5% of F)
    Basis function eval.    ....       1.061 sec  ( 15.4% of XC)
    Density eval.           ....       2.079 sec  ( 30.1% of XC)
    XC-Functional eval.     ....       0.420 sec  (  6.1% of XC)
    XC-Potential eval.      ....       2.573 sec  ( 37.2% of XC)
Diagonalization             ....       0.073 sec  (  0.3%)
Density matrix formation    ....       0.008 sec  (  0.0%)
Population analysis         ....       0.012 sec  (  0.0%)
Initial guess               ....       0.163 sec  (  0.6%)
Orbital Transformation      ....       0.000 sec  (  0.0%)
Orbital Orthonormalization  ....       0.000 sec  (  0.0%)
DIIS solution               ....       0.040 sec  (  0.1%)
SOSCF solution              ....       0.075 sec  (  0.3%)
Grid generation             ....       0.811 sec  (  2.8%)

Maximum memory used throughout the entire SCF-calculation: 70.2 MB


-------------------------------------------------------------------------------
                          DFT DISPERSION CORRECTION                            
                                                                               
                              DFTD3 V3.1  Rev 1                                
                              USING zero damping                               
-------------------------------------------------------------------------------
The M062X functional is recognized
Active option DFTDOPT                   ...         3   

molecular C6(AA) [au] = 1445.602157 


            DFT-D V3
 parameters
 s6 scaling factor         :     1.0000 
 rs6 scaling factor        :     1.6190 
 s8 scaling factor         :     0.0000 
 rs8 scaling factor        :     1.0000 
 Damping factor alpha6     :    14.0000 
 Damping factor alpha8     :    16.0000 
 ad hoc parameters k1-k3   :    16.0000     1.3333    -4.0000 

 Edisp/kcal,au: -0.092985336902  -0.000148181551 
 E6   /kcal   :  -0.092985337 
 E8   /kcal   :  -0.000000000 
 % E8         :   0.000000000 

-------------------------   ----------------
Dispersion correction           -0.000148182
-------------------------   ----------------


-------------------------   --------------------
FINAL SINGLE POINT ENERGY      -727.663734586351
-------------------------   --------------------


                            ***************************************
                            *     ORCA property calculations      *
                            ***************************************

                                    ---------------------
                                    Active property flags
                                    ---------------------
   (+) Dipole Moment


------------------------------------------------------------------------------
                       ORCA ELECTRIC PROPERTIES CALCULATION
------------------------------------------------------------------------------

Dipole Moment Calculation                       ... on
Quadrupole Moment Calculation                   ... off
Polarizability Calculation                      ... off
GBWName                                         ... TZVP_M062X_C3_wt_dlpno_neg.gbw
Electron density file                           ... TZVP_M062X_C3_wt_dlpno_neg.scfp
The origin for moment calculation is the CENTER OF MASS  = (-11.828207, -5.122683 -7.875276)

-------------
DIPOLE MOMENT
-------------
                                X             Y             Z
Electronic contribution:      4.10327      -5.48182      -7.25876
Nuclear contribution   :     -5.87110       5.18927       7.67759
                        -----------------------------------------
Total Dipole Moment    :     -1.76783      -0.29255       0.41883
                        -----------------------------------------
Magnitude (a.u.)       :      1.84017
Magnitude (Debye)      :      4.67733



--------------------
Rotational spectrum 
--------------------
 
Rotational constants in cm-1:     0.155988     0.080452     0.078187 
Rotational constants in MHz :  4676.405251  2411.902056  2343.983816 

 Dipole components along the rotational axes: 
x,y,z [a.u.] :    -0.974227    -1.560518     0.043364 
x,y,z [Debye]:    -2.476288    -3.966521     0.110222 

 

Timings for individual modules:

Sum of individual times         ...       32.321 sec (=   0.539 min)
GTO integral calculation        ...        2.115 sec (=   0.035 min)   6.5 %
SCF iterations                  ...       30.205 sec (=   0.503 min)  93.5 %
                             ****ORCA TERMINATED NORMALLY****
TOTAL RUN TIME: 0 days 0 hours 0 minutes 32 seconds 879 msec
