
                                        *****************
                                        * O   R   C   A *
                                        *****************

                                            #,                                       
                                            ###                                      
                                            ####                                     
                                            #####                                    
                                            ######                                   
                                           ########,                                 
                                     ,,################,,,,,                         
                               ,,#################################,,                 
                          ,,##########################################,,             
                       ,#########################################, ''#####,          
                    ,#############################################,,   '####,        
                  ,##################################################,,,,####,       
                ,###########''''           ''''###############################       
              ,#####''   ,,,,##########,,,,          '''####'''          '####       
            ,##' ,,,,###########################,,,                        '##       
           ' ,,###''''                  '''############,,,                           
         ,,##''                                '''############,,,,        ,,,,,,###''
      ,#''                                            '''#######################'''  
     '                                                          ''''####''''         
             ,#######,   #######,   ,#######,      ##                                
            ,#'     '#,  ##    ##  ,#'     '#,    #''#        ######   ,####,        
            ##       ##  ##   ,#'  ##            #'  '#       #        #'  '#        
            ##       ##  #######   ##           ,######,      #####,   #    #        
            '#,     ,#'  ##    ##  '#,     ,#' ,#      #,         ##   #,  ,#        
             '#######'   ##     ##  '#######'  #'      '#     #####' # '####'        



                  #######################################################
                  #                        -***-                        #
                  #          Department of theory and spectroscopy      #
                  #    Directorship and core code : Frank Neese         #
                  #        Max Planck Institute fuer Kohlenforschung    #
                  #                Kaiser Wilhelm Platz 1               #
                  #                 D-45470 Muelheim/Ruhr               #
                  #                      Germany                        #
                  #                                                     #
                  #                  All rights reserved                #
                  #                        -***-                        #
                  #######################################################


                         Program Version 5.0.0 -  RELEASE  -
                                (SVN: $Rev: 19529$)
                ($Date: 2021-06-28 11:36:33 +0200 (Mo, 28 Jun 2021) $)


 With contributions from (in alphabetic order):
   Daniel Aravena         : Magnetic Suceptibility
   Michael Atanasov       : Ab Initio Ligand Field Theory (pilot matlab implementation)
   Alexander A. Auer      : GIAO ZORA, VPT2 properties, NMR spectrum
   Ute Becker             : Parallelization
   Giovanni Bistoni       : ED, misc. LED, open-shell LED, HFLD
   Martin Brehm           : Molecular dynamics
   Dmytro Bykov           : SCF Hessian
   Vijay G. Chilkuri      : MRCI spin determinant printing, contributions to CSF-ICE
   Dipayan Datta          : RHF DLPNO-CCSD density
   Achintya Kumar Dutta   : EOM-CC, STEOM-CC
   Dmitry Ganyushin       : Spin-Orbit,Spin-Spin,Magnetic field MRCI
   Miquel Garcia          : C-PCM Hessian, Gaussian charge scheme
   Yang Guo               : DLPNO-NEVPT2, F12-NEVPT2, CIM, IAO-localization
   Andreas Hansen         : Spin unrestricted coupled pair/coupled cluster methods
   Benjamin Helmich-Paris : MC-RPA, TRAH-SCF, COSX integrals
   Lee Huntington         : MR-EOM, pCC
   Robert Izsak           : Overlap fitted RIJCOSX, COSX-SCS-MP3, EOM
   Marcus Kettner         : VPT2
   Christian Kollmar      : KDIIS, OOCD, Brueckner-CCSD(T), CCSD density, CASPT2, CASPT2-K
   Simone Kossmann        : Meta GGA functionals, TD-DFT gradient, OOMP2, MP2 Hessian
   Martin Krupicka        : Initial AUTO-CI
   Lucas Lang             : DCDCAS
   Marvin Lechner         : AUTO-CI (C++ implementation), FIC-MRCC
   Dagmar Lenk            : GEPOL surface, SMD
   Dimitrios Liakos       : Extrapolation schemes; Compound Job, initial MDCI parallelization
   Dimitrios Manganas     : Further ROCIS development; embedding schemes
   Dimitrios Pantazis     : SARC Basis sets
   Anastasios Papadopoulos: AUTO-CI, single reference methods and gradients
   Taras Petrenko         : DFT Hessian,TD-DFT gradient, ASA, ECA, R-Raman, ABS, FL, XAS/XES, NRVS
   Peter Pinski           : DLPNO-MP2, DLPNO-MP2 Gradient
   Christoph Reimann      : Effective Core Potentials
   Marius Retegan         : Local ZFS, SOC
   Christoph Riplinger    : Optimizer, TS searches, QM/MM, DLPNO-CCSD(T), (RO)-DLPNO pert. Triples
   Tobias Risthaus        : Range-separated hybrids, TD-DFT gradient, RPA, STAB
   Michael Roemelt        : Original ROCIS implementation
   Masaaki Saitow         : Open-shell DLPNO-CCSD energy and density
   Barbara Sandhoefer     : DKH picture change effects
   Avijit Sen             : IP-ROCIS
   Kantharuban Sivalingam : CASSCF convergence, NEVPT2, FIC-MRCI
   Bernardo de Souza      : ESD, SOC TD-DFT
   Georgi Stoychev        : AutoAux, RI-MP2 NMR
   Willem Van den Heuvel  : Paramagnetic NMR
   Boris Wezisla          : Elementary symmetry handling
   Frank Wennmohs         : Technical directorship


 We gratefully acknowledge several colleagues who have allowed us to
 interface, adapt or use parts of their codes:
   Stefan Grimme, W. Hujo, H. Kruse, P. Pracht,  : VdW corrections, initial TS optimization,
                  C. Bannwarth, S. Ehlert          DFT functionals, gCP, sTDA/sTD-DF
   Ed Valeev, F. Pavosevic, A. Kumar             : LibInt (2-el integral package), F12 methods
   Garnet Chan, S. Sharma, J. Yang, R. Olivares  : DMRG
   Ulf Ekstrom                                   : XCFun DFT Library
   Mihaly Kallay                                 : mrcc  (arbitrary order and MRCC methods)
   Jiri Pittner, Ondrej Demel                    : Mk-CCSD
   Frank Weinhold                                : gennbo (NPA and NBO analysis)
   Christopher J. Cramer and Donald G. Truhlar   : smd solvation model
   Lars Goerigk                                  : TD-DFT with DH, B97 family of functionals
   V. Asgeirsson, H. Jonsson                     : NEB implementation
   FAccTs GmbH                                   : IRC, NEB, NEB-TS, DLPNO-Multilevel, CI-OPT
                                                   MM, QMMM, 2- and 3-layer-ONIOM, Crystal-QMMM,
                                                   LR-CPCM, SF, NACMEs, symmetry and pop. for TD-DFT,
                                                   nearIR, NL-DFT gradient (VV10), updates on ESD,
                                                   ML-optimized integration grids
   S Lehtola, MJT Oliveira, MAL Marques          : LibXC Library
   Liviu Ungur et al                             : ANISO software


 Your calculation uses the libint2 library for the computation of 2-el integrals
 For citations please refer to: http://libint.valeyev.net

 Your ORCA version has been built with support for libXC version: 5.1.0
 For citations please refer to: https://tddft.org/programs/libxc/

 This ORCA versions uses:
   CBLAS   interface :  Fast vector & matrix operations
   LAPACKE interface :  Fast linear algebra routines
   SCALAPACK package :  Parallel linear algebra routines
   Shared memory     :  Shared parallel matrices
   BLAS/LAPACK       :  OpenBLAS 0.3.15  USE64BITINT DYNAMIC_ARCH NO_AFFINITY Haswell SINGLE_THREADED
        Core in use  :  Haswell
   Copyright (c) 2011-2014, The OpenBLAS Project


XCFun DFT library Copyright 2009-2010 Ulf Ekstrom and contributors.
See http://admol.org/xcfun for more information.
This is free software; see the source code for copying conditions.
There is ABSOLUTELY NO WARRANTY; not even for MERCHANTABILITY or FITNESS FOR A PARTICULAR PURPOSE.
For details see the documentation.
Scientific users of this library should cite U. Ekstrom, L. Visscher, R. Bast, A. J. Thorvaldsen and K. Ruud;
J.Chem.Theor.Comp. 2010, DOI: 10.1021/ct100117s
XCFun Version 0.99 

================================================================================

----- Orbital basis set information -----
Your calculation utilizes the basis: def2-TZVP
   F. Weigend and R. Ahlrichs, Phys. Chem. Chem. Phys. 7, 3297 (2005).

----- AuxJ basis set information -----
Your calculation utilizes the auxiliary basis: def2/J
   F. Weigend, Phys. Chem. Chem. Phys. 8, 1057 (2006).

================================================================================
                                        WARNINGS
                       Please study these warnings very carefully!
================================================================================


INFO   : the flag for use of the SHARK integral package has been found!

================================================================================
                                       INPUT FILE
================================================================================
NAME = TZVP_CAMB3LYP_A_wt_dlpno_pos.com
|  1> !CAM-B3LYP RIJCOSX def2-TZVP def2/J TightSCF
|  2> *xyz 1 1 
|  3> C          3.48828        1.60092       -1.52204
|  4> C          4.34297        1.31342       -2.75683
|  5> N          2.81029        0.42878       -1.01420
|  6> H          2.71455        2.33145       -1.76030
|  7> H          4.09099        2.06315       -0.73338
|  8> C          3.29098       -0.41802       -0.12908
|  9> N          2.51754       -1.43202        0.23936
| 10> N          4.53549       -0.28441        0.39580
| 11> H          5.04363        0.57189        0.22290
| 12> H          4.72335       -0.73327        1.28180
| 13> H          1.93479        0.10230       -1.40379
| 14> H          1.67464       -1.50562       -0.31610
| 15> H          2.92850       -2.21850        0.72549
| 16> H          3.73575        0.86277       -3.51385
| 17> H          5.13754        0.64699       -2.49333
| 18> H          4.75374        2.22930       -3.12740
| 19> *
| 20> %MaxCore 64000
| 21> 
| 22> %pal nprocs 4
| 23> end  
| 24> 
| 25> %scf
| 26>   MaxIter 150
| 27> end
| 28> 
| 29> 
| 30>                          ****END OF INPUT****
================================================================================

                       ****************************
                       * Single Point Calculation *
                       ****************************

---------------------------------
CARTESIAN COORDINATES (ANGSTROEM)
---------------------------------
  C      3.488280    1.600920   -1.522040
  C      4.342970    1.313420   -2.756830
  N      2.810290    0.428780   -1.014200
  H      2.714550    2.331450   -1.760300
  H      4.090990    2.063150   -0.733380
  C      3.290980   -0.418020   -0.129080
  N      2.517540   -1.432020    0.239360
  N      4.535490   -0.284410    0.395800
  H      5.043630    0.571890    0.222900
  H      4.723350   -0.733270    1.281800
  H      1.934790    0.102300   -1.403790
  H      1.674640   -1.505620   -0.316100
  H      2.928500   -2.218500    0.725490
  H      3.735750    0.862770   -3.513850
  H      5.137540    0.646990   -2.493330
  H      4.753740    2.229300   -3.127400

----------------------------
CARTESIAN COORDINATES (A.U.)
----------------------------
  NO LB      ZA    FRAG     MASS         X           Y           Z
   0 C     6.0000    0    12.011    6.591894    3.025300   -2.876239
   1 C     6.0000    0    12.011    8.207024    2.482004   -5.209654
   2 N     7.0000    0    14.007    5.310678    0.810277   -1.916560
   3 H     1.0000    0     1.008    5.129756    4.405802   -3.326485
   4 H     1.0000    0     1.008    7.730851    3.898788   -1.385887
   5 C     6.0000    0    12.011    6.219051   -0.789943   -0.243926
   6 N     7.0000    0    14.007    4.757461   -2.706126    0.452325
   7 N     7.0000    0    14.007    8.570834   -0.537457    0.747954
   8 H     1.0000    0     1.008    9.531079    1.080715    0.421220
   9 H     1.0000    0     1.008    8.925838   -1.385679    2.422251
  10 H     1.0000    0     1.008    3.656223    0.193319   -2.652779
  11 H     1.0000    0     1.008    3.164611   -2.845209   -0.597342
  12 H     1.0000    0     1.008    5.534063   -4.192357    1.370977
  13 H     1.0000    0     1.008    7.059544    1.630399   -6.640214
  14 H     1.0000    0     1.008    9.708544    1.222634   -4.711711
  15 H     1.0000    0     1.008    8.983267    4.212766   -5.909930

--------------------------------
INTERNAL COORDINATES (ANGSTROEM)
--------------------------------
 C      0   0   0     0.000000000000     0.00000000     0.00000000
 C      1   0   0     1.529005425170     0.00000000     0.00000000
 N      1   2   0     1.446196420027   113.15647526     0.00000000
 H      1   2   3     1.090458628926   110.25141732   240.62087931
 H      1   2   3     1.094943154963   110.69312197   124.42402746
 C      3   1   2     1.315891534474   125.91025238    89.02804164
 N      6   3   1     1.327461286516   117.73705795   178.95874270
 N      6   3   1     1.357260397492   122.12206254   358.50918587
 H      8   6   3     1.010618800340   118.57313099    10.64293628
 H      8   6   3     1.010822773388   117.75308784   158.14426892
 H      3   1   2     1.012358537525   122.11879420   277.16183776
 H      7   6   3     1.012142866200   112.85787808     8.15033951
 H      7   6   3     1.011810895820   119.37039034   164.55796622
 H      2   1   3     1.069991042626   109.47111053    55.57571307
 H      2   1   3     1.070001252242   109.47109385   295.57609862
 H      2   1   3     1.069995463635   109.47117180   175.57637373

---------------------------
INTERNAL COORDINATES (A.U.)
---------------------------
 C      0   0   0     0.000000000000     0.00000000     0.00000000
 C      1   0   0     2.889401510852     0.00000000     0.00000000
 N      1   2   0     2.732915169709   113.15647526     0.00000000
 H      1   2   3     2.060668169042   110.25141732   240.62087931
 H      1   2   3     2.069142695091   110.69312197   124.42402746
 C      3   1   2     2.486674622101   125.91025238    89.02804164
 N      6   3   1     2.508538284899   117.73705795   178.95874270
 N      6   3   1     2.564850443677   122.12206254   358.50918587
 H      8   6   3     1.909792758434   118.57313099    10.64293628
 H      8   6   3     1.910178211634   117.75308784   158.14426892
 H      3   1   2     1.913080385260   122.11879420   277.16183776
 H      7   6   3     1.912672825521   112.85787808     8.15033951
 H      7   6   3     1.912045492417   119.37039034   164.55796622
 H      2   1   3     2.021990036312   109.47111053    55.57571307
 H      2   1   3     2.022009329691   109.47109385   295.57609862
 H      2   1   3     2.021998390809   109.47117180   175.57637373

---------------------
BASIS SET INFORMATION
---------------------
There are 3 groups of distinct atoms

 Group   1 Type C   : 11s6p2d1f contracted to 5s3p2d1f pattern {62111/411/11/1}
 Group   2 Type N   : 11s6p2d1f contracted to 5s3p2d1f pattern {62111/411/11/1}
 Group   3 Type H   : 5s1p contracted to 3s1p pattern {311/1}

Atom   0C    basis set group =>   1
Atom   1C    basis set group =>   1
Atom   2N    basis set group =>   2
Atom   3H    basis set group =>   3
Atom   4H    basis set group =>   3
Atom   5C    basis set group =>   1
Atom   6N    basis set group =>   2
Atom   7N    basis set group =>   2
Atom   8H    basis set group =>   3
Atom   9H    basis set group =>   3
Atom  10H    basis set group =>   3
Atom  11H    basis set group =>   3
Atom  12H    basis set group =>   3
Atom  13H    basis set group =>   3
Atom  14H    basis set group =>   3
Atom  15H    basis set group =>   3
---------------------------------
AUXILIARY/J BASIS SET INFORMATION
---------------------------------
There are 3 groups of distinct atoms

 Group   1 Type C   : 12s5p4d2f1g contracted to 6s4p3d1f1g pattern {711111/2111/211/2/1}
 Group   2 Type N   : 12s5p4d2f1g contracted to 6s4p3d1f1g pattern {711111/2111/211/2/1}
 Group   3 Type H   : 5s2p1d contracted to 3s1p1d pattern {311/2/1}

Atom   0C    basis set group =>   1
Atom   1C    basis set group =>   1
Atom   2N    basis set group =>   2
Atom   3H    basis set group =>   3
Atom   4H    basis set group =>   3
Atom   5C    basis set group =>   1
Atom   6N    basis set group =>   2
Atom   7N    basis set group =>   2
Atom   8H    basis set group =>   3
Atom   9H    basis set group =>   3
Atom  10H    basis set group =>   3
Atom  11H    basis set group =>   3
Atom  12H    basis set group =>   3
Atom  13H    basis set group =>   3
Atom  14H    basis set group =>   3
Atom  15H    basis set group =>   3


           ************************************************************
           *        Program running with 4 parallel MPI-processes     *
           *              working on a common directory               *
           ************************************************************
------------------------------------------------------------------------------
                           ORCA GTO INTEGRAL CALCULATION
                           -- RI-GTO INTEGRALS CHOSEN --
------------------------------------------------------------------------------
------------------------------------------------------------------------------
                   ___                                                        
                  /   \      - P O W E R E D   B Y -                         
                 /     \                                                     
                 |  |  |   _    _      __       _____    __    __             
                 |  |  |  | |  | |    /  \     |  _  \  |  |  /  |          
                  \  \/   | |  | |   /    \    | | | |  |  | /  /          
                 / \  \   | |__| |  /  /\  \   | |_| |  |  |/  /          
                |  |  |   |  __  | /  /__\  \  |    /   |      \           
                |  |  |   | |  | | |   __   |  |    \   |  |\   \          
                \     /   | |  | | |  |  |  |  | |\  \  |  | \   \       
                 \___/    |_|  |_| |__|  |__|  |_| \__\ |__|  \__/        
                                                                              
                      - O R C A' S   B I G   F R I E N D -                    
                                      &                                       
                       - I N T E G R A L  F E E D E R -                       
                                                                              
 v1 FN, 2020, v2 2021                                                         
------------------------------------------------------------------------------


Reading SHARK input file TZVP_CAMB3LYP_A_wt_dlpno_pos.SHARKINP.tmp ... ok
----------------------
SHARK INTEGRAL PACKAGE
----------------------

Number of atoms                             ...     16
Number of basis functions                   ...    246
Number of shells                            ...    106
Maximum angular momentum                    ...      3
Integral batch strategy                     ... SHARK/LIBINT Hybrid
RI-J (if used) integral strategy            ... SPLIT-RIJ (Revised 2003 algorithm where possible)
Printlevel                                  ...      1
Contraction scheme used                     ... SEGMENTED contraction
Coulomb Range Separation                    ... NOT USED
Exchange Range Separation                   ... Long Range
   Mu parameter                             ...  0.330000
   Scaling (regular/separated)              ...  0.190000  0.460000
Finite Nucleus Model                        ... NOT USED
Auxiliary Coulomb fitting basis             ... AVAILABLE
   # of basis functions in Aux-J            ...    404
   # of shells in Aux-J                     ...    140
   Maximum angular momentum in Aux-J        ...      4
Auxiliary J/K fitting basis                 ... NOT available
Auxiliary Correlation fitting basis         ... NOT available
Auxiliary 'external' fitting basis          ... NOT available
Integral threshold                          ...     2.500000e-11
Primitive cut-off                           ...     2.500000e-12
Primitive pair pre-selection threshold      ...     2.500000e-12

Calculating pre-screening integrals         ... done (  0.1 sec) Dimension = 106
Organizing shell pair data                  ... done (  0.1 sec)
Shell pair information
Total number of shell pairs                 ...      5671
Shell pairs after pre-screening             ...      5320
Total number of primitive shell pairs       ...     16452
Primitive shell pairs kept                  ...     11993
          la=0 lb=0:   1678 shell pairs
          la=1 lb=0:   1580 shell pairs
          la=1 lb=1:    388 shell pairs
          la=2 lb=0:    680 shell pairs
          la=2 lb=1:    324 shell pairs
          la=2 lb=2:     77 shell pairs
          la=3 lb=0:    339 shell pairs
          la=3 lb=1:    163 shell pairs
          la=3 lb=2:     70 shell pairs
          la=3 lb=3:     21 shell pairs

Calculating one electron integrals          ... done (  0.0 sec)
Calculating RI/J V-Matrix + Cholesky decomp.... done (  0.0 sec)
Calculating Nuclear repulsion               ... done (  0.0 sec) ENN=    259.312944387190 Eh

SHARK setup successfully completed in   0.2 seconds

Maximum memory used throughout the entire GTOINT-calculation: 13.9 MB


           ************************************************************
           *        Program running with 4 parallel MPI-processes     *
           *              working on a common directory               *
           ************************************************************
-------------------------------------------------------------------------------
                                 ORCA SCF
-------------------------------------------------------------------------------

------------
SCF SETTINGS
------------
Hamiltonian:
 Density Functional     Method          .... DFT(GTOs)
 Exchange Functional    Exchange        .... WB88
 Correlation Functional Correlation     .... LYP
 LDA part of GGA corr.  LDAOpt          .... VWN-5
 Gradients option       PostSCFGGA      .... off
 Hybrid DFT is turned on
   Fraction HF Exchange ScalHFX         ....  0.190000
   Scaling of DF-GGA-X  ScalDFX         ....  0.350000
   Scaling of DF-GGA-C  ScalDFC         ....  0.810000
   Scaling of DF-LDA-C  ScalLDAC        ....  1.000000
   Perturbative correction              ....  0.000000
   Density functional embedding theory  .... OFF
 Long-range corrected/Screened/Range-Separated Hybrid DFT is turned on
   Amount of maximum screened exact exchange              ....  0.460000
   Range separation parameter mu (erf(mu*r12)/r12)        ....  0.330000
 RI-approximation to the Coulomb term is turned on
   Number of AuxJ basis functions       .... 404
   RIJ-COSX (HFX calculated with COS-X)).... on


General Settings:
 Integral files         IntName         .... TZVP_CAMB3LYP_A_wt_dlpno_pos
 Hartree-Fock type      HFTyp           .... RHF
 Total Charge           Charge          ....    1
 Multiplicity           Mult            ....    1
 Number of Electrons    NEL             ....   48
 Basis Dimension        Dim             ....  246
 Nuclear Repulsion      ENuc            ....    259.3129443872 Eh

Convergence Acceleration:
 DIIS                   CNVDIIS         .... on
   Start iteration      DIISMaxIt       ....    12
   Startup error        DIISStart       ....  0.200000
   # of expansion vecs  DIISMaxEq       ....     5
   Bias factor          DIISBfac        ....   1.050
   Max. coefficient     DIISMaxC        ....  10.000
 Trust-Rad. Augm. Hess. CNVTRAH         .... auto
   Auto Start mean grad. ratio tolernc. ....  1.125000
   Auto Start start iteration           ....    20
   Auto Start num. interpolation iter.  ....    10
   Max. Number of Micro iterations      ....    16
   Max. Number of Macro iterations      .... Maxiter - #DIIS iter
   Number of Davidson start vectors     ....     2
   Converg. threshold I  (grad. norm)   ....   1.000e-05
   Converg. threshold II (energy diff.) ....   1.000e-08
   Grad. Scal. Fac. for Micro threshold ....   0.100
   Minimum threshold for Micro iter.    ....   0.010
   NR start threshold (gradient norm)   ....   0.001
   Initial trust radius                 ....   0.400
   Minimum AH scaling param. (alpha)    ....   1.000
   Maximum AH scaling param. (alpha)    .... 1000.000
   Orbital update algorithm             .... Taylor
   White noise on init. David. guess    .... on
   Maximum white noise                  ....   0.010
   Quad. conv. algorithm                .... NR
 SOSCF                  CNVSOSCF        .... on
   Start iteration      SOSCFMaxIt      ....   150
   Startup grad/error   SOSCFStart      ....  0.003300
 Level Shifting         CNVShift        .... on
   Level shift para.    LevelShift      ....    0.2500
   Turn off err/grad.   ShiftErr        ....    0.0010
 Zerner damping         CNVZerner       .... off
 Static damping         CNVDamp         .... on
   Fraction old density DampFac         ....    0.7000
   Max. Damping (<1)    DampMax         ....    0.9800
   Min. Damping (>=0)   DampMin         ....    0.0000
   Turn off err/grad.   DampErr         ....    0.1000
 Fernandez-Rico         CNVRico         .... off

SCF Procedure:
 Maximum # iterations   MaxIter         ....   150
 SCF integral mode      SCFMode         .... Direct
   Integral package                     .... SHARK and LIBINT hybrid scheme
 Reset frequency        DirectResetFreq ....    20
 Integral Threshold     Thresh          ....  2.500e-11 Eh
 Primitive CutOff       TCut            ....  2.500e-12 Eh

Convergence Tolerance:
 Convergence Check Mode ConvCheckMode   .... Total+1el-Energy
 Convergence forced     ConvForced      .... 0
 Energy Change          TolE            ....  1.000e-08 Eh
 1-El. energy change                    ....  1.000e-05 Eh
 Orbital Gradient       TolG            ....  1.000e-05
 Orbital Rotation angle TolX            ....  1.000e-05
 DIIS Error             TolErr          ....  5.000e-07


Diagonalization of the overlap matrix:
Smallest eigenvalue                        ... 3.099e-04
Time for diagonalization                   ...    0.011 sec
Threshold for overlap eigenvalues          ... 1.000e-08
Number of eigenvalues below threshold      ... 0
Time for construction of square roots      ...    0.010 sec
Total time needed                          ...    0.022 sec

Time for model grid setup =    0.133 sec

------------------------------
INITIAL GUESS: MODEL POTENTIAL
------------------------------
Loading Hartree-Fock densities                     ... done
Calculating cut-offs                               ... done
Initializing the effective Hamiltonian             ... done
Setting up the integral package (SHARK)            ... done
Starting the Coulomb interaction                   ... done (   0.1 sec)
Reading the grid                                   ... done
Mapping shells                                     ... done
Starting the XC term evaluation                    ... done (   0.1 sec)
  promolecular density results
     # of electrons  =     48.992213782
     EX              =    -38.011151999
     EC              =     -1.619307318
     EX+EC           =    -39.630459317
Transforming the Hamiltonian                       ... done (   0.0 sec)
Diagonalizing the Hamiltonian                      ... done (   0.0 sec)
Back transforming the eigenvectors                 ... done (   0.0 sec)
Now organizing SCF variables                       ... done
                      ------------------
                      INITIAL GUESS DONE (   0.4 sec)
                      ------------------
-------------------
DFT GRID GENERATION
-------------------

General Integration Accuracy     IntAcc      ... 4.388
Radial Grid Type                 RadialGrid  ... OptM3 with GC (2021)
Angular Grid (max. ang.)         AngularGrid ... 4 (Lebedev-302)
Angular grid pruning method      GridPruning ... 4 (adaptive)
Weight generation scheme         WeightScheme... Becke
Basis function cutoff            BFCut       ... 1.0000e-11
Integration weight cutoff        WCut        ... 1.0000e-14
Angular grids for H and He will be reduced by one unit
Partially contracted basis set               ... off
Rotationally invariant grid construction     ... off

Total number of grid points                  ...    68479
Total number of batches                      ...     1078
Average number of points per batch           ...       63
Average number of grid points per atom       ...     4280
Time for grid setup =    0.467 sec

--------------------
COSX GRID GENERATION
--------------------

GRIDX 1
-------
General Integration Accuracy     IntAcc      ... 3.816
Radial Grid Type                 RadialGrid  ... OptM3 with GC (2021)
Angular Grid (max. ang.)         AngularGrid ... 1 (Lebedev-50)
Angular grid pruning method      GridPruning ... 4 (adaptive)
Weight generation scheme         WeightScheme... Becke
Basis function cutoff            BFCut       ... 1.0000e-11
Integration weight cutoff        WCut        ... 1.0000e-14
Angular grids for H and He will be reduced by one unit
Partially contracted basis set               ... on
Rotationally invariant grid construction     ... off

Total number of grid points                  ...     8810
Total number of batches                      ...      148
Average number of points per batch           ...       59
Average number of grid points per atom       ...      551
UseSFitting                                  ... on

GRIDX 2
-------
General Integration Accuracy     IntAcc      ... 4.020
Radial Grid Type                 RadialGrid  ... OptM3 with GC (2021)
Angular Grid (max. ang.)         AngularGrid ... 2 (Lebedev-110)
Angular grid pruning method      GridPruning ... 4 (adaptive)
Weight generation scheme         WeightScheme... Becke
Basis function cutoff            BFCut       ... 1.0000e-11
Integration weight cutoff        WCut        ... 1.0000e-14
Angular grids for H and He will be reduced by one unit
Partially contracted basis set               ... on
Rotationally invariant grid construction     ... off

Total number of grid points                  ...    18498
Total number of batches                      ...      299
Average number of points per batch           ...       61
Average number of grid points per atom       ...     1156
UseSFitting                                  ... on

GRIDX 3
-------
General Integration Accuracy     IntAcc      ... 4.338
Radial Grid Type                 RadialGrid  ... OptM3 with GC (2021)
Angular Grid (max. ang.)         AngularGrid ... 3 (Lebedev-194)
Angular grid pruning method      GridPruning ... 4 (adaptive)
Weight generation scheme         WeightScheme... Becke
Basis function cutoff            BFCut       ... 1.0000e-11
Integration weight cutoff        WCut        ... 1.0000e-14
Angular grids for H and He will be reduced by one unit
Partially contracted basis set               ... on
Rotationally invariant grid construction     ... off

Total number of grid points                  ...    40473
Total number of batches                      ...      642
Average number of points per batch           ...       63
Average number of grid points per atom       ...     2530
UseSFitting                                  ... on

Time for X-Grid setup             =    0.451 sec

--------------
SCF ITERATIONS
--------------
ITER       Energy         Delta-E        Max-DP      RMS-DP      [F,P]     Damp
               ***  Starting incremental Fock matrix formation  ***
  0   -284.1645463673   0.000000000000 0.03361546  0.00090684  0.2004764 0.7000
  1   -284.2498898565  -0.085343489252 0.02975134  0.00067451  0.1042550 0.7000
                               ***Turning on DIIS***
  2   -284.2885231385  -0.038633281934 0.05765757  0.00129150  0.0451801 0.0000
  3   -284.3469598250  -0.058436686509 0.01591904  0.00038184  0.0503503 0.0000
  4   -284.3590010978  -0.012041272826 0.00283763  0.00009148  0.0093095 0.0000
                      *** Initiating the SOSCF procedure ***
                           *** Shutting down DIIS ***
                      *** Re-Reading the Fockian *** 
                      *** Removing any level shift *** 
ITER      Energy       Delta-E        Grad      Rot      Max-DP    RMS-DP
  5   -284.35929867  -0.0002975740  0.000767  0.000767  0.001035  0.000033
               *** Restarting incremental Fock matrix formation ***
  6   -284.35934800  -0.0000493243  0.000199  0.000392  0.000887  0.000023
  7   -284.35935039  -0.0000023896  0.000111  0.000247  0.000375  0.000010
  8   -284.35935083  -0.0000004468  0.000034  0.000068  0.000137  0.000004
  9   -284.35935090  -0.0000000700  0.000012  0.000015  0.000043  0.000001
 10   -284.35935091  -0.0000000089  0.000009  0.000012  0.000024  0.000001
                  ***Gradient check signals convergence***
              ***Rediagonalizing the Fockian in SOSCF/NRSCF***

               *****************************************************
               *                     SUCCESS                       *
               *           SCF CONVERGED AFTER  11 CYCLES          *
               *****************************************************

Old exchange energy                            =    -11.135032096 Eh
New exchange energy                            =    -11.135037923 Eh
Exchange energy change after final integration =     -0.000005827 Eh
Total energy after final integration           =   -284.359356739 Eh
Final COS-X integration done in                =     7.838 sec

----------------
TOTAL SCF ENERGY
----------------

Total Energy       :         -284.35935674 Eh           -7737.81148 eV

Components:
Nuclear Repulsion  :          259.31294439 Eh            7056.26395 eV
Electronic Energy  :         -543.67230113 Eh          -14794.07543 eV
One Electron Energy:         -887.48163182 Eh          -24149.60294 eV
Two Electron Energy:          343.80933069 Eh            9355.52751 eV
Max COSX asymmetry :            0.00000133 Eh               0.00004 eV

Virial components:
Potential Energy   :         -567.54379809 Eh          -15443.65189 eV
Kinetic Energy     :          283.18444135 Eh            7705.84041 eV
Virial Ratio       :            2.00414894


DFT components:
N(Alpha)           :       24.000045254347 electrons
N(Beta)            :       24.000045254347 electrons
N(Total)           :       48.000090508694 electrons
E(XC)              :      -29.365495379297 Eh       
DFET-embed. en.    :        0.000000000000 Eh       

---------------
SCF CONVERGENCE
---------------

  Last Energy change         ...   -3.8773e-10  Tolerance :   1.0000e-08
  Last MAX-Density change    ...    1.2212e-15  Tolerance :   1.0000e-07
  Last RMS-Density change    ...    1.7395e-17  Tolerance :   5.0000e-09
  Last Orbital Gradient      ...    1.0392e-06  Tolerance :   1.0000e-05
  Last Orbital Rotation      ...    2.6860e-06  Tolerance :   1.0000e-05

             **** THE GBW FILE WAS UPDATED (TZVP_CAMB3LYP_A_wt_dlpno_pos.gbw) ****
             **** DENSITY TZVP_CAMB3LYP_A_wt_dlpno_pos.scfp WAS UPDATED ****
             **** ENERGY FILE WAS UPDATED (TZVP_CAMB3LYP_A_wt_dlpno_pos.en.tmp) ****
             **** THE GBW FILE WAS UPDATED (TZVP_CAMB3LYP_A_wt_dlpno_pos.gbw) ****
             **** DENSITY TZVP_CAMB3LYP_A_wt_dlpno_pos.scfp WAS UPDATED ****
----------------
ORBITAL ENERGIES
----------------

  NO   OCC          E(Eh)            E(eV) 
   0   2.0000     -14.617993      -397.7758 
   1   2.0000     -14.612966      -397.6390 
   2   2.0000     -14.610778      -397.5795 
   3   2.0000     -10.582402      -287.9618 
   4   2.0000     -10.454108      -284.4707 
   5   2.0000     -10.378204      -282.4053 
   6   2.0000      -1.305482       -35.5240 
   7   2.0000      -1.190927       -32.4068 
   8   2.0000      -1.176912       -32.0254 
   9   2.0000      -1.015985       -27.6464 
  10   2.0000      -0.916374       -24.9358 
  11   2.0000      -0.884945       -24.0806 
  12   2.0000      -0.854511       -23.2524 
  13   2.0000      -0.821340       -22.3498 
  14   2.0000      -0.762781       -20.7563 
  15   2.0000      -0.753076       -20.4922 
  16   2.0000      -0.724357       -19.7108 
  17   2.0000      -0.712473       -19.3874 
  18   2.0000      -0.673238       -18.3197 
  19   2.0000      -0.629971       -17.1424 
  20   2.0000      -0.600464       -16.3395 
  21   2.0000      -0.580046       -15.7839 
  22   2.0000      -0.545220       -14.8362 
  23   2.0000      -0.516203       -14.0466 
  24   0.0000      -0.122794        -3.3414 
  25   0.0000      -0.115058        -3.1309 
  26   0.0000      -0.086585        -2.3561 
  27   0.0000      -0.071259        -1.9391 
  28   0.0000      -0.043266        -1.1773 
  29   0.0000      -0.027666        -0.7528 
  30   0.0000      -0.016591        -0.4515 
  31   0.0000      -0.008283        -0.2254 
  32   0.0000       0.005812         0.1581 
  33   0.0000       0.021166         0.5760 
  34   0.0000       0.036078         0.9817 
  35   0.0000       0.047981         1.3056 
  36   0.0000       0.059557         1.6206 
  37   0.0000       0.086081         2.3424 
  38   0.0000       0.090835         2.4717 
  39   0.0000       0.101825         2.7708 
  40   0.0000       0.107723         2.9313 
  41   0.0000       0.120634         3.2826 
  42   0.0000       0.139976         3.8090 
  43   0.0000       0.154498         4.2041 
  44   0.0000       0.171689         4.6719 
  45   0.0000       0.186556         5.0764 
  46   0.0000       0.197463         5.3732 
  47   0.0000       0.217606         5.9214 
  48   0.0000       0.228578         6.2199 
  49   0.0000       0.243695         6.6313 
  50   0.0000       0.253549         6.8994 
  51   0.0000       0.290225         7.8974 
  52   0.0000       0.307112         8.3569 
  53   0.0000       0.316789         8.6203 
  54   0.0000       0.319965         8.7067 
  55   0.0000       0.325185         8.8487 
  56   0.0000       0.341053         9.2805 
  57   0.0000       0.352381         9.5888 
  58   0.0000       0.357745         9.7347 
  59   0.0000       0.364879         9.9289 
  60   0.0000       0.372514        10.1366 
  61   0.0000       0.390828        10.6350 
  62   0.0000       0.401231        10.9181 
  63   0.0000       0.422982        11.5099 
  64   0.0000       0.429336        11.6828 
  65   0.0000       0.439019        11.9463 
  66   0.0000       0.454349        12.3635 
  67   0.0000       0.466826        12.7030 
  68   0.0000       0.479026        13.0350 
  69   0.0000       0.518197        14.1009 
  70   0.0000       0.544848        14.8261 
  71   0.0000       0.556257        15.1365 
  72   0.0000       0.570499        15.5241 
  73   0.0000       0.574597        15.6356 
  74   0.0000       0.600216        16.3327 
  75   0.0000       0.647833        17.6284 
  76   0.0000       0.715718        19.4757 
  77   0.0000       0.736358        20.0373 
  78   0.0000       0.766293        20.8519 
  79   0.0000       0.784232        21.3400 
  80   0.0000       0.844184        22.9714 
  81   0.0000       0.852383        23.1945 
  82   0.0000       0.876851        23.8603 
  83   0.0000       0.895384        24.3646 
  84   0.0000       0.960162        26.1273 
  85   0.0000       0.984199        26.7814 
  86   0.0000       1.003969        27.3194 
  87   0.0000       1.022665        27.8281 
  88   0.0000       1.053219        28.6595 
  89   0.0000       1.063691        28.9445 
  90   0.0000       1.104568        30.0568 
  91   0.0000       1.119399        30.4604 
  92   0.0000       1.175528        31.9877 
  93   0.0000       1.180370        32.1195 
  94   0.0000       1.214327        33.0435 
  95   0.0000       1.244901        33.8755 
  96   0.0000       1.298597        35.3366 
  97   0.0000       1.324570        36.0434 
  98   0.0000       1.351670        36.7808 
  99   0.0000       1.369246        37.2591 
 100   0.0000       1.402078        38.1525 
 101   0.0000       1.404549        38.2197 
 102   0.0000       1.428592        38.8740 
 103   0.0000       1.440757        39.2050 
 104   0.0000       1.447409        39.3860 
 105   0.0000       1.462345        39.7924 
 106   0.0000       1.472857        40.0785 
 107   0.0000       1.479490        40.2590 
 108   0.0000       1.496089        40.7106 
 109   0.0000       1.531223        41.6667 
 110   0.0000       1.538330        41.8601 
 111   0.0000       1.549849        42.1735 
 112   0.0000       1.558836        42.4181 
 113   0.0000       1.588584        43.2276 
 114   0.0000       1.608712        43.7753 
 115   0.0000       1.655397        45.0457 
 116   0.0000       1.682104        45.7724 
 117   0.0000       1.701639        46.3039 
 118   0.0000       1.712319        46.5946 
 119   0.0000       1.742072        47.4042 
 120   0.0000       1.785814        48.5945 
 121   0.0000       1.792759        48.7834 
 122   0.0000       1.825753        49.6813 
 123   0.0000       1.838525        50.0288 
 124   0.0000       1.863718        50.7143 
 125   0.0000       1.916149        52.1411 
 126   0.0000       1.928965        52.4898 
 127   0.0000       1.950786        53.0836 
 128   0.0000       1.983237        53.9666 
 129   0.0000       2.004782        54.5529 
 130   0.0000       2.035804        55.3970 
 131   0.0000       2.093585        56.9694 
 132   0.0000       2.156781        58.6890 
 133   0.0000       2.169027        59.0222 
 134   0.0000       2.193773        59.6956 
 135   0.0000       2.213451        60.2311 
 136   0.0000       2.230603        60.6978 
 137   0.0000       2.255424        61.3732 
 138   0.0000       2.262879        61.5761 
 139   0.0000       2.280060        62.0436 
 140   0.0000       2.301240        62.6199 
 141   0.0000       2.325604        63.2829 
 142   0.0000       2.343272        63.7637 
 143   0.0000       2.351620        63.9908 
 144   0.0000       2.384926        64.8971 
 145   0.0000       2.426838        66.0376 
 146   0.0000       2.451379        66.7054 
 147   0.0000       2.460529        66.9544 
 148   0.0000       2.484069        67.5949 
 149   0.0000       2.509386        68.2839 
 150   0.0000       2.537716        69.0548 
 151   0.0000       2.542801        69.1931 
 152   0.0000       2.560252        69.6680 
 153   0.0000       2.581370        70.2427 
 154   0.0000       2.602932        70.8294 
 155   0.0000       2.675785        72.8118 
 156   0.0000       2.707598        73.6775 
 157   0.0000       2.734763        74.4167 
 158   0.0000       2.754013        74.9405 
 159   0.0000       2.792445        75.9863 
 160   0.0000       2.821563        76.7786 
 161   0.0000       2.842627        77.3518 
 162   0.0000       2.883412        78.4616 
 163   0.0000       2.930150        79.7334 
 164   0.0000       2.943528        80.0975 
 165   0.0000       2.964899        80.6790 
 166   0.0000       2.986011        81.2535 
 167   0.0000       3.001866        81.6849 
 168   0.0000       3.009406        81.8901 
 169   0.0000       3.027910        82.3936 
 170   0.0000       3.058756        83.2330 
 171   0.0000       3.063076        83.3505 
 172   0.0000       3.074255        83.6547 
 173   0.0000       3.132698        85.2450 
 174   0.0000       3.160109        85.9909 
 175   0.0000       3.183939        86.6394 
 176   0.0000       3.206286        87.2475 
 177   0.0000       3.233178        87.9793 
 178   0.0000       3.255474        88.5859 
 179   0.0000       3.297009        89.7162 
 180   0.0000       3.325933        90.5032 
 181   0.0000       3.370335        91.7115 
 182   0.0000       3.413482        92.8856 
 183   0.0000       3.429634        93.3251 
 184   0.0000       3.435696        93.4901 
 185   0.0000       3.473287        94.5130 
 186   0.0000       3.481125        94.7262 
 187   0.0000       3.615300        98.3773 
 188   0.0000       3.637032        98.9687 
 189   0.0000       3.650310        99.3300 
 190   0.0000       3.657615        99.5288 
 191   0.0000       3.674538        99.9893 
 192   0.0000       3.725167       101.3669 
 193   0.0000       3.776811       102.7723 
 194   0.0000       3.794420       103.2514 
 195   0.0000       3.833282       104.3089 
 196   0.0000       3.924248       106.7842 
 197   0.0000       3.984269       108.4175 
 198   0.0000       4.097711       111.5044 
 199   0.0000       4.157886       113.1418 
 200   0.0000       4.216311       114.7316 
 201   0.0000       4.260547       115.9354 
 202   0.0000       4.276097       116.3585 
 203   0.0000       4.306600       117.1885 
 204   0.0000       4.324167       117.6666 
 205   0.0000       4.361914       118.6937 
 206   0.0000       4.378479       119.1445 
 207   0.0000       4.467361       121.5631 
 208   0.0000       4.528283       123.2208 
 209   0.0000       4.547839       123.7530 
 210   0.0000       4.576038       124.5203 
 211   0.0000       4.613007       125.5263 
 212   0.0000       4.631817       126.0381 
 213   0.0000       4.643952       126.3684 
 214   0.0000       4.671247       127.1111 
 215   0.0000       4.740136       128.9856 
 216   0.0000       4.764138       129.6388 
 217   0.0000       4.803579       130.7120 
 218   0.0000       4.841475       131.7432 
 219   0.0000       4.862566       132.3171 
 220   0.0000       4.903501       133.4310 
 221   0.0000       4.967796       135.1806 
 222   0.0000       4.984113       135.6246 
 223   0.0000       4.999845       136.0527 
 224   0.0000       5.042549       137.2147 
 225   0.0000       5.083751       138.3359 
 226   0.0000       5.103067       138.8615 
 227   0.0000       5.124594       139.4473 
 228   0.0000       5.156929       140.3272 
 229   0.0000       5.246469       142.7637 
 230   0.0000       5.277884       143.6185 
 231   0.0000       5.316655       144.6735 
 232   0.0000       5.362867       145.9310 
 233   0.0000       5.391142       146.7004 
 234   0.0000       5.494346       149.5087 
 235   0.0000       5.575684       151.7221 
 236   0.0000       5.746557       156.3718 
 237   0.0000       5.867252       159.6560 
 238   0.0000       5.932693       161.4368 
 239   0.0000       6.175761       168.0510 
 240   0.0000      22.297751       606.7526 
 241   0.0000      22.424176       610.1929 
 242   0.0000      23.164509       630.3383 
 243   0.0000      31.746845       863.8756 
 244   0.0000      31.862857       867.0324 
 245   0.0000      32.432994       882.5466 

                    ********************************
                    * MULLIKEN POPULATION ANALYSIS *
                    ********************************

-----------------------
MULLIKEN ATOMIC CHARGES
-----------------------
   0 C :   -0.203749
   1 C :   -0.303737
   2 N :   -0.216831
   3 H :    0.173355
   4 H :    0.138830
   5 C :    0.411381
   6 N :   -0.369696
   7 N :   -0.404199
   8 H :    0.276720
   9 H :    0.278680
  10 H :    0.241614
  11 H :    0.262577
  12 H :    0.288632
  13 H :    0.137381
  14 H :    0.126259
  15 H :    0.162783
Sum of atomic charges:    1.0000000

--------------------------------
MULLIKEN REDUCED ORBITAL CHARGES
--------------------------------
  0 C s       :     3.287500  s :     3.287500
      pz      :     0.974021  p :     2.800609
      px      :     1.012680
      py      :     0.813908
      dz2     :     0.024029  d :     0.107516
      dxz     :     0.018511
      dyz     :     0.023438
      dx2y2   :     0.015552
      dxy     :     0.025988
      f0      :     0.000984  f :     0.008124
      f+1     :     0.001046
      f-1     :     0.001204
      f+2     :     0.000765
      f-2     :     0.001832
      f+3     :     0.001019
      f-3     :     0.001274
  1 C s       :     3.279327  s :     3.279327
      pz      :     0.909529  p :     2.979658
      px      :     0.997337
      py      :     1.072791
      dz2     :     0.010605  d :     0.041256
      dxz     :     0.008410
      dyz     :     0.008191
      dx2y2   :     0.002824
      dxy     :     0.011225
      f0      :     0.000601  f :     0.003496
      f+1     :     0.000813
      f-1     :     0.000158
      f+2     :     0.000359
      f-2     :     0.001096
      f+3     :     0.000239
      f-3     :     0.000230
  2 N s       :     3.424753  s :     3.424753
      pz      :     1.318053  p :     3.734309
      px      :     1.207094
      py      :     1.209162
      dz2     :     0.009692  d :     0.053528
      dxz     :     0.008824
      dyz     :     0.011331
      dx2y2   :     0.012366
      dxy     :     0.011314
      f0      :     0.000539  f :     0.004241
      f+1     :     0.000437
      f-1     :     0.000703
      f+2     :     0.000796
      f-2     :     0.000747
      f+3     :     0.000368
      f-3     :     0.000651
  3 H s       :     0.804983  s :     0.804983
      pz      :     0.004712  p :     0.021661
      px      :     0.008232
      py      :     0.008717
  4 H s       :     0.839709  s :     0.839709
      pz      :     0.008272  p :     0.021461
      px      :     0.006754
      py      :     0.006435
  5 C s       :     3.019131  s :     3.019131
      pz      :     0.773008  p :     2.282512
      px      :     0.726814
      py      :     0.782690
      dz2     :     0.057321  d :     0.264419
      dxz     :     0.049416
      dyz     :     0.035105
      dx2y2   :     0.063617
      dxy     :     0.058960
      f0      :     0.002417  f :     0.022556
      f+1     :     0.003351
      f-1     :     0.002847
      f+2     :     0.003134
      f-2     :     0.003541
      f+3     :     0.002958
      f-3     :     0.004308
  6 N s       :     3.457914  s :     3.457914
      pz      :     1.477485  p :     3.880127
      px      :     1.204655
      py      :     1.197987
      dz2     :     0.003420  d :     0.028259
      dxz     :     0.007249
      dyz     :     0.005281
      dx2y2   :     0.006975
      dxy     :     0.005334
      f0      :     0.000484  f :     0.003396
      f+1     :     0.000219
      f-1     :     0.000435
      f+2     :     0.000679
      f-2     :     0.000707
      f+3     :     0.000476
      f-3     :     0.000395
  7 N s       :     3.473738  s :     3.473738
      pz      :     1.327672  p :     3.899537
      px      :     1.203854
      py      :     1.368012
      dz2     :     0.006367  d :     0.027746
      dxz     :     0.005577
      dyz     :     0.002233
      dx2y2   :     0.006559
      dxy     :     0.007009
      f0      :     0.000249  f :     0.003178
      f+1     :     0.000515
      f-1     :     0.000565
      f+2     :     0.000477
      f-2     :     0.000388
      f+3     :     0.000641
      f-3     :     0.000342
  8 H s       :     0.684188  s :     0.684188
      pz      :     0.008038  p :     0.039091
      px      :     0.012303
      py      :     0.018751
  9 H s       :     0.683360  s :     0.683360
      pz      :     0.019510  p :     0.037960
      px      :     0.007627
      py      :     0.010824
 10 H s       :     0.719420  s :     0.719420
      pz      :     0.011039  p :     0.038967
      px      :     0.019653
      py      :     0.008275
 11 H s       :     0.698708  s :     0.698708
      pz      :     0.013476  p :     0.038715
      px      :     0.019044
      py      :     0.006195
 12 H s       :     0.673434  s :     0.673434
      pz      :     0.013641  p :     0.037934
      px      :     0.007903
      py      :     0.016390
 13 H s       :     0.840804  s :     0.840804
      pz      :     0.009387  p :     0.021815
      px      :     0.006532
      py      :     0.005896
 14 H s       :     0.851961  s :     0.851961
      pz      :     0.004557  p :     0.021779
      px      :     0.009480
      py      :     0.007743
 15 H s       :     0.815007  s :     0.815007
      pz      :     0.005707  p :     0.022210
      px      :     0.005925
      py      :     0.010578


                     *******************************
                     * LOEWDIN POPULATION ANALYSIS *
                     *******************************

----------------------
LOEWDIN ATOMIC CHARGES
----------------------
   0 C :   -0.284438
   1 C :   -0.282037
   2 N :    0.178013
   3 H :    0.152399
   4 H :    0.139926
   5 C :   -0.394109
   6 N :    0.062496
   7 N :    0.045860
   8 H :    0.191418
   9 H :    0.196452
  10 H :    0.210350
  11 H :    0.198483
  12 H :    0.201280
  13 H :    0.126434
  14 H :    0.121389
  15 H :    0.136084

-------------------------------
LOEWDIN REDUCED ORBITAL CHARGES
-------------------------------
  0 C s       :     2.781764  s :     2.781764
      pz      :     1.038376  p :     2.990538
      px      :     1.035279
      py      :     0.916883
      dz2     :     0.088819  d :     0.457271
      dxz     :     0.100930
      dyz     :     0.090771
      dx2y2   :     0.062628
      dxy     :     0.114123
      f0      :     0.007479  f :     0.054866
      f+1     :     0.005137
      f-1     :     0.010124
      f+2     :     0.006397
      f-2     :     0.008164
      f+3     :     0.007703
      f-3     :     0.009861
  1 C s       :     2.822187  s :     2.822187
      pz      :     1.041586  p :     3.189328
      px      :     1.062615
      py      :     1.085127
      dz2     :     0.057512  d :     0.245228
      dxz     :     0.062428
      dyz     :     0.046507
      dx2y2   :     0.018708
      dxy     :     0.060073
      f0      :     0.005746  f :     0.025294
      f+1     :     0.004235
      f-1     :     0.002902
      f+2     :     0.003757
      f-2     :     0.003989
      f+3     :     0.002454
      f-3     :     0.002210
  2 N s       :     2.905709  s :     2.905709
      pz      :     1.268109  p :     3.675617
      px      :     1.179659
      py      :     1.227849
      dz2     :     0.032644  d :     0.224592
      dxz     :     0.035576
      dyz     :     0.052345
      dx2y2   :     0.056453
      dxy     :     0.047573
      f0      :     0.001885  f :     0.016069
      f+1     :     0.001602
      f-1     :     0.002500
      f+2     :     0.002916
      f-2     :     0.002466
      f+3     :     0.001401
      f-3     :     0.003299
  3 H s       :     0.788139  s :     0.788139
      pz      :     0.014009  p :     0.059461
      px      :     0.023545
      py      :     0.021907
  4 H s       :     0.801304  s :     0.801304
      pz      :     0.023321  p :     0.058770
      px      :     0.019609
      py      :     0.015840
  5 C s       :     2.710208  s :     2.710208
      pz      :     0.846508  p :     2.666440
      px      :     0.924331
      py      :     0.895601
      dz2     :     0.179721  d :     0.887761
      dxz     :     0.168782
      dyz     :     0.132459
      dx2y2   :     0.206226
      dxy     :     0.200573
      f0      :     0.015062  f :     0.129700
      f+1     :     0.020001
      f-1     :     0.012972
      f+2     :     0.017920
      f-2     :     0.017070
      f+3     :     0.018031
      f-3     :     0.028644
  6 N s       :     2.972538  s :     2.972538
      pz      :     1.381168  p :     3.821258
      px      :     1.214766
      py      :     1.225324
      dz2     :     0.010262  d :     0.132214
      dxz     :     0.023994
      dyz     :     0.024712
      dx2y2   :     0.037949
      dxy     :     0.035296
      f0      :     0.001674  f :     0.011494
      f+1     :     0.000912
      f-1     :     0.001120
      f+2     :     0.001964
      f-2     :     0.001978
      f+3     :     0.001750
      f-3     :     0.002097
  7 N s       :     2.984709  s :     2.984709
      pz      :     1.286695  p :     3.834966
      px      :     1.253604
      py      :     1.294666
      dz2     :     0.028374  d :     0.124204
      dxz     :     0.024807
      dyz     :     0.010646
      dx2y2   :     0.028604
      dxy     :     0.031773
      f0      :     0.000677  f :     0.010261
      f+1     :     0.001768
      f-1     :     0.001237
      f+2     :     0.002110
      f-2     :     0.000841
      f+3     :     0.002014
      f-3     :     0.001614
  8 H s       :     0.698647  s :     0.698647
      pz      :     0.024212  p :     0.109935
      px      :     0.030315
      py      :     0.055408
  9 H s       :     0.695917  s :     0.695917
      pz      :     0.054937  p :     0.107630
      px      :     0.020825
      py      :     0.031869
 10 H s       :     0.687078  s :     0.687078
      pz      :     0.029290  p :     0.102572
      px      :     0.049119
      py      :     0.024164
 11 H s       :     0.695920  s :     0.695920
      pz      :     0.039384  p :     0.105597
      px      :     0.048099
      py      :     0.018114
 12 H s       :     0.691518  s :     0.691518
      pz      :     0.037107  p :     0.107202
      px      :     0.025851
      py      :     0.044244
 13 H s       :     0.809057  s :     0.809057
      pz      :     0.025247  p :     0.064509
      px      :     0.020999
      py      :     0.018263
 14 H s       :     0.814091  s :     0.814091
      pz      :     0.015082  p :     0.064520
      px      :     0.026469
      py      :     0.022969
 15 H s       :     0.799121  s :     0.799121
      pz      :     0.016336  p :     0.064795
      px      :     0.017246
      py      :     0.031213


                      *****************************
                      * MAYER POPULATION ANALYSIS *
                      *****************************

  NA   - Mulliken gross atomic population
  ZA   - Total nuclear charge
  QA   - Mulliken gross atomic charge
  VA   - Mayer's total valence
  BVA  - Mayer's bonded valence
  FA   - Mayer's free valence

  ATOM       NA         ZA         QA         VA         BVA        FA
  0 C      6.2037     6.0000    -0.2037     3.8018     3.8018     0.0000
  1 C      6.3037     6.0000    -0.3037     3.7930     3.7930    -0.0000
  2 N      7.2168     7.0000    -0.2168     3.2165     3.2165     0.0000
  3 H      0.8266     1.0000     0.1734     0.9570     0.9570     0.0000
  4 H      0.8612     1.0000     0.1388     0.9607     0.9607     0.0000
  5 C      5.5886     6.0000     0.4114     4.1327     4.1327     0.0000
  6 N      7.3697     7.0000    -0.3697     3.2181     3.2181    -0.0000
  7 N      7.4042     7.0000    -0.4042     3.2004     3.2004    -0.0000
  8 H      0.7233     1.0000     0.2767     0.9396     0.9396    -0.0000
  9 H      0.7213     1.0000     0.2787     0.9327     0.9327    -0.0000
 10 H      0.7584     1.0000     0.2416     0.9472     0.9472     0.0000
 11 H      0.7374     1.0000     0.2626     0.9458     0.9458    -0.0000
 12 H      0.7114     1.0000     0.2886     0.9290     0.9290    -0.0000
 13 H      0.8626     1.0000     0.1374     0.9730     0.9730     0.0000
 14 H      0.8737     1.0000     0.1263     0.9747     0.9747    -0.0000
 15 H      0.8372     1.0000     0.1628     0.9702     0.9702    -0.0000

  Mayer bond orders larger than 0.100000
B(  0-C ,  1-C ) :   0.9456 B(  0-C ,  2-N ) :   0.8570 B(  0-C ,  3-H ) :   0.9626 
B(  0-C ,  4-H ) :   0.9755 B(  1-C , 13-H ) :   0.9686 B(  1-C , 14-H ) :   0.9625 
B(  1-C , 15-H ) :   0.9723 B(  2-N ,  5-C ) :   1.4046 B(  2-N , 10-H ) :   0.9058 
B(  5-C ,  6-N ) :   1.3327 B(  5-C ,  7-N ) :   1.3070 B(  6-N , 11-H ) :   0.9040 
B(  6-N , 12-H ) :   0.8947 B(  7-N ,  8-H ) :   0.8978 B(  7-N ,  9-H ) :   0.8998 


-------
TIMINGS
-------

Total SCF time: 0 days 0 hours 0 min 46 sec 

Total time                  ....      46.747 sec
Sum of individual times     ....      46.503 sec  ( 99.5%)

Fock matrix formation       ....      44.996 sec  ( 96.3%)
  Split-RI-J                ....       1.903 sec  (  4.2% of F)
  Chain of spheres X        ....      38.594 sec  ( 85.8% of F)
  XC integration            ....       4.440 sec  (  9.9% of F)
    Basis function eval.    ....       1.384 sec  ( 31.2% of XC)
    Density eval.           ....       1.053 sec  ( 23.7% of XC)
    XC-Functional eval.     ....       0.589 sec  ( 13.3% of XC)
    XC-Potential eval.      ....       1.252 sec  ( 28.2% of XC)
Diagonalization             ....       0.093 sec  (  0.2%)
Density matrix formation    ....       0.007 sec  (  0.0%)
Population analysis         ....       0.014 sec  (  0.0%)
Initial guess               ....       0.226 sec  (  0.5%)
Orbital Transformation      ....       0.000 sec  (  0.0%)
Orbital Orthonormalization  ....       0.000 sec  (  0.0%)
DIIS solution               ....       0.049 sec  (  0.1%)
SOSCF solution              ....       0.066 sec  (  0.1%)
Grid generation             ....       1.052 sec  (  2.3%)

Maximum memory used throughout the entire SCF-calculation: 73.8 MB

-------------------------   --------------------
FINAL SINGLE POINT ENERGY      -284.359356738690
-------------------------   --------------------


                            ***************************************
                            *     ORCA property calculations      *
                            ***************************************

                                    ---------------------
                                    Active property flags
                                    ---------------------
   (+) Dipole Moment


------------------------------------------------------------------------------
                       ORCA ELECTRIC PROPERTIES CALCULATION
------------------------------------------------------------------------------

Dipole Moment Calculation                       ... on
Quadrupole Moment Calculation                   ... off
Polarizability Calculation                      ... off
GBWName                                         ... TZVP_CAMB3LYP_A_wt_dlpno_pos.gbw
Electron density file                           ... TZVP_CAMB3LYP_A_wt_dlpno_pos.scfp
The origin for moment calculation is the CENTER OF MASS  = ( 6.620624,  0.350192 -1.489327)

-------------
DIPOLE MOMENT
-------------
                                X             Y             Z
Electronic contribution:     -1.94252      -3.01581       3.74993
Nuclear contribution   :      1.59382       2.33278      -3.02574
                        -----------------------------------------
Total Dipole Moment    :     -0.34870      -0.68304       0.72419
                        -----------------------------------------
Magnitude (a.u.)       :      1.05479
Magnitude (Debye)      :      2.68106



--------------------
Rotational spectrum 
--------------------
 
Rotational constants in cm-1:     0.232230     0.073139     0.063030 
Rotational constants in MHz :  6962.079716  2192.649203  1889.578947 

 Dipole components along the rotational axes: 
x,y,z [a.u.] :     1.048918     0.101190    -0.045984 
x,y,z [Debye]:     2.666138     0.257205    -0.116882 

 

Timings for individual modules:

Sum of individual times         ...       49.500 sec (=   0.825 min)
GTO integral calculation        ...        0.615 sec (=   0.010 min)   1.2 %
SCF iterations                  ...       48.885 sec (=   0.815 min)  98.8 %
                             ****ORCA TERMINATED NORMALLY****
TOTAL RUN TIME: 0 days 0 hours 0 minutes 50 seconds 25 msec
