
                                        *****************
                                        * O   R   C   A *
                                        *****************

                                            #,                                       
                                            ###                                      
                                            ####                                     
                                            #####                                    
                                            ######                                   
                                           ########,                                 
                                     ,,################,,,,,                         
                               ,,#################################,,                 
                          ,,##########################################,,             
                       ,#########################################, ''#####,          
                    ,#############################################,,   '####,        
                  ,##################################################,,,,####,       
                ,###########''''           ''''###############################       
              ,#####''   ,,,,##########,,,,          '''####'''          '####       
            ,##' ,,,,###########################,,,                        '##       
           ' ,,###''''                  '''############,,,                           
         ,,##''                                '''############,,,,        ,,,,,,###''
      ,#''                                            '''#######################'''  
     '                                                          ''''####''''         
             ,#######,   #######,   ,#######,      ##                                
            ,#'     '#,  ##    ##  ,#'     '#,    #''#        ######   ,####,        
            ##       ##  ##   ,#'  ##            #'  '#       #        #'  '#        
            ##       ##  #######   ##           ,######,      #####,   #    #        
            '#,     ,#'  ##    ##  '#,     ,#' ,#      #,         ##   #,  ,#        
             '#######'   ##     ##  '#######'  #'      '#     #####' # '####'        



                  #######################################################
                  #                        -***-                        #
                  #          Department of theory and spectroscopy      #
                  #    Directorship and core code : Frank Neese         #
                  #        Max Planck Institute fuer Kohlenforschung    #
                  #                Kaiser Wilhelm Platz 1               #
                  #                 D-45470 Muelheim/Ruhr               #
                  #                      Germany                        #
                  #                                                     #
                  #                  All rights reserved                #
                  #                        -***-                        #
                  #######################################################


                         Program Version 5.0.0 -  RELEASE  -
                                (SVN: $Rev: 19529$)
                ($Date: 2021-06-28 11:36:33 +0200 (Mo, 28 Jun 2021) $)


 With contributions from (in alphabetic order):
   Daniel Aravena         : Magnetic Suceptibility
   Michael Atanasov       : Ab Initio Ligand Field Theory (pilot matlab implementation)
   Alexander A. Auer      : GIAO ZORA, VPT2 properties, NMR spectrum
   Ute Becker             : Parallelization
   Giovanni Bistoni       : ED, misc. LED, open-shell LED, HFLD
   Martin Brehm           : Molecular dynamics
   Dmytro Bykov           : SCF Hessian
   Vijay G. Chilkuri      : MRCI spin determinant printing, contributions to CSF-ICE
   Dipayan Datta          : RHF DLPNO-CCSD density
   Achintya Kumar Dutta   : EOM-CC, STEOM-CC
   Dmitry Ganyushin       : Spin-Orbit,Spin-Spin,Magnetic field MRCI
   Miquel Garcia          : C-PCM Hessian, Gaussian charge scheme
   Yang Guo               : DLPNO-NEVPT2, F12-NEVPT2, CIM, IAO-localization
   Andreas Hansen         : Spin unrestricted coupled pair/coupled cluster methods
   Benjamin Helmich-Paris : MC-RPA, TRAH-SCF, COSX integrals
   Lee Huntington         : MR-EOM, pCC
   Robert Izsak           : Overlap fitted RIJCOSX, COSX-SCS-MP3, EOM
   Marcus Kettner         : VPT2
   Christian Kollmar      : KDIIS, OOCD, Brueckner-CCSD(T), CCSD density, CASPT2, CASPT2-K
   Simone Kossmann        : Meta GGA functionals, TD-DFT gradient, OOMP2, MP2 Hessian
   Martin Krupicka        : Initial AUTO-CI
   Lucas Lang             : DCDCAS
   Marvin Lechner         : AUTO-CI (C++ implementation), FIC-MRCC
   Dagmar Lenk            : GEPOL surface, SMD
   Dimitrios Liakos       : Extrapolation schemes; Compound Job, initial MDCI parallelization
   Dimitrios Manganas     : Further ROCIS development; embedding schemes
   Dimitrios Pantazis     : SARC Basis sets
   Anastasios Papadopoulos: AUTO-CI, single reference methods and gradients
   Taras Petrenko         : DFT Hessian,TD-DFT gradient, ASA, ECA, R-Raman, ABS, FL, XAS/XES, NRVS
   Peter Pinski           : DLPNO-MP2, DLPNO-MP2 Gradient
   Christoph Reimann      : Effective Core Potentials
   Marius Retegan         : Local ZFS, SOC
   Christoph Riplinger    : Optimizer, TS searches, QM/MM, DLPNO-CCSD(T), (RO)-DLPNO pert. Triples
   Tobias Risthaus        : Range-separated hybrids, TD-DFT gradient, RPA, STAB
   Michael Roemelt        : Original ROCIS implementation
   Masaaki Saitow         : Open-shell DLPNO-CCSD energy and density
   Barbara Sandhoefer     : DKH picture change effects
   Avijit Sen             : IP-ROCIS
   Kantharuban Sivalingam : CASSCF convergence, NEVPT2, FIC-MRCI
   Bernardo de Souza      : ESD, SOC TD-DFT
   Georgi Stoychev        : AutoAux, RI-MP2 NMR
   Willem Van den Heuvel  : Paramagnetic NMR
   Boris Wezisla          : Elementary symmetry handling
   Frank Wennmohs         : Technical directorship


 We gratefully acknowledge several colleagues who have allowed us to
 interface, adapt or use parts of their codes:
   Stefan Grimme, W. Hujo, H. Kruse, P. Pracht,  : VdW corrections, initial TS optimization,
                  C. Bannwarth, S. Ehlert          DFT functionals, gCP, sTDA/sTD-DF
   Ed Valeev, F. Pavosevic, A. Kumar             : LibInt (2-el integral package), F12 methods
   Garnet Chan, S. Sharma, J. Yang, R. Olivares  : DMRG
   Ulf Ekstrom                                   : XCFun DFT Library
   Mihaly Kallay                                 : mrcc  (arbitrary order and MRCC methods)
   Jiri Pittner, Ondrej Demel                    : Mk-CCSD
   Frank Weinhold                                : gennbo (NPA and NBO analysis)
   Christopher J. Cramer and Donald G. Truhlar   : smd solvation model
   Lars Goerigk                                  : TD-DFT with DH, B97 family of functionals
   V. Asgeirsson, H. Jonsson                     : NEB implementation
   FAccTs GmbH                                   : IRC, NEB, NEB-TS, DLPNO-Multilevel, CI-OPT
                                                   MM, QMMM, 2- and 3-layer-ONIOM, Crystal-QMMM,
                                                   LR-CPCM, SF, NACMEs, symmetry and pop. for TD-DFT,
                                                   nearIR, NL-DFT gradient (VV10), updates on ESD,
                                                   ML-optimized integration grids
   S Lehtola, MJT Oliveira, MAL Marques          : LibXC Library
   Liviu Ungur et al                             : ANISO software


 Your calculation uses the libint2 library for the computation of 2-el integrals
 For citations please refer to: http://libint.valeyev.net

 Your ORCA version has been built with support for libXC version: 5.1.0
 For citations please refer to: https://tddft.org/programs/libxc/

 This ORCA versions uses:
   CBLAS   interface :  Fast vector & matrix operations
   LAPACKE interface :  Fast linear algebra routines
   SCALAPACK package :  Parallel linear algebra routines
   Shared memory     :  Shared parallel matrices
   BLAS/LAPACK       :  OpenBLAS 0.3.15  USE64BITINT DYNAMIC_ARCH NO_AFFINITY Haswell SINGLE_THREADED
        Core in use  :  Haswell
   Copyright (c) 2011-2014, The OpenBLAS Project




***************************************
The coordinates will be read from file: D1.xyz
***************************************


XCFun DFT library Copyright 2009-2010 Ulf Ekstrom and contributors.
See http://admol.org/xcfun for more information.
This is free software; see the source code for copying conditions.
There is ABSOLUTELY NO WARRANTY; not even for MERCHANTABILITY or FITNESS FOR A PARTICULAR PURPOSE.
For details see the documentation.
Scientific users of this library should cite U. Ekstrom, L. Visscher, R. Bast, A. J. Thorvaldsen and K. Ruud;
J.Chem.Theor.Comp. 2010, DOI: 10.1021/ct100117s
XCFun Version 0.99 

================================================================================

----- Orbital basis set information -----
Your calculation utilizes the basis: def2-TZVP
   F. Weigend and R. Ahlrichs, Phys. Chem. Chem. Phys. 7, 3297 (2005).

----- AuxJ basis set information -----
Your calculation utilizes the auxiliary basis: def2/J
   F. Weigend, Phys. Chem. Chem. Phys. 8, 1057 (2006).

================================================================================
                                        WARNINGS
                       Please study these warnings very carefully!
================================================================================


INFO   : the flag for use of the SHARK integral package has been found!

================================================================================
                                       INPUT FILE
================================================================================
NAME = CAMB3LYP_D1_wb97.com
|  1> !CAM-B3LYP RIJCOSX def2-TZVP def2/J TightSCF xyzfile                                                                                         
|  2> 
|  3> *xyzfile 0 1 D1.xyz
|  4> 
|  5> %MaxCore 64000
|  6> 
|  7> %pal nprocs 18                                                                                                                                                  
|  8> end  
|  9> 
| 10> %scf
| 11>   MaxIter 150
| 12> end
| 13> 
| 14> 
| 15>                          ****END OF INPUT****
================================================================================

                       ****************************
                       * Single Point Calculation *
                       ****************************

---------------------------------
CARTESIAN COORDINATES (ANGSTROEM)
---------------------------------
  C      0.648656    1.003595   -3.645601
  C      0.281280    0.676454   -2.240179
  C      0.132968    2.385869   -4.024618
  C     -1.366462    2.479106   -4.313932
  C     -2.357732    2.306858   -3.136753
  H     -1.636802    1.727095   -5.063993
  H     -1.582347    3.445605   -4.768687
  H      0.390790   -0.319253   -2.026495
  H     -0.692686    0.990104   -2.138123
  H      0.854206    1.212214   -1.575279
  F     -3.443763    2.846518   -3.252744
  O     -1.970922    1.583042   -2.151229
  H      0.190993    0.239655   -4.275752
  H      1.731572    0.931729   -3.750751
  H      0.414839    3.102847   -3.245165
  H      0.683167    2.687560   -4.919721

----------------------------
CARTESIAN COORDINATES (A.U.)
----------------------------
  NO LB      ZA    FRAG     MASS         X           Y           Z
   0 C     6.0000    0    12.011    1.225782    1.896520   -6.889187
   1 C     6.0000    0    12.011    0.531542    1.278314   -4.233324
   2 C     6.0000    0    12.011    0.251273    4.508639   -7.605426
   3 C     6.0000    0    12.011   -2.582239    4.684831   -8.152150
   4 C     6.0000    0    12.011   -4.455468    4.359329   -5.927605
   5 H     1.0000    0     1.008   -3.093107    3.263736   -9.569559
   6 H     1.0000    0     1.008   -2.990202    6.511250   -9.011512
   7 H     1.0000    0     1.008    0.738486   -0.603301   -3.829520
   8 H     1.0000    0     1.008   -1.308986    1.871025   -4.040467
   9 H     1.0000    0     1.008    1.614216    2.290753   -2.976846
  10 F     9.0000    0    18.998   -6.507769    5.379140   -6.146795
  11 O     8.0000    0    15.999   -3.724503    2.991516   -4.065233
  12 H     1.0000    0     1.008    0.360925    0.452882   -8.080001
  13 H     1.0000    0     1.008    3.272198    1.760712   -7.087891
  14 H     1.0000    0     1.008    0.783931    5.863532   -6.132473
  15 H     1.0000    0     1.008    1.290999    5.078752   -9.296926

--------------------------------
INTERNAL COORDINATES (ANGSTROEM)
--------------------------------
 C      0   0   0     0.000000000000     0.00000000     0.00000000
 C      1   0   0     1.489025363527     0.00000000     0.00000000
 C      1   2   0     1.523243342063   110.52977413     0.00000000
 C      3   1   2     1.529930241176   115.73134354   283.86654240
 C      4   3   1     1.548558631675   118.47877118    69.26129095
 H      4   3   1     1.095990914885   109.22905345   306.99560749
 H      4   3   1     1.089738108958   109.09411306   191.65902177
 H      2   1   3     1.024249368867   112.58858819   165.09815193
 H      2   1   3     1.028299760012   105.09071792    42.74214310
 H      2   1   3     1.028287610103   111.00010450   286.54462828
 F      5   4   3     1.218257188926   116.67936219   153.77996774
 O      5   4   3     1.282493621030   116.99186053   332.02435957
 H      1   2   3     1.090940615819   106.72870749   239.83621634
 H      1   2   3     1.090380160444   108.75809174   123.14337993
 H      3   1   2     1.095927107440   109.24647563    49.02996073
 H      3   1   2     1.093135480785   106.48674843   162.87095658

---------------------------
INTERNAL COORDINATES (A.U.)
---------------------------
 C      0   0   0     0.000000000000     0.00000000     0.00000000
 C      1   0   0     2.813850143528     0.00000000     0.00000000
 C      1   2   0     2.878512751819   110.52977413     0.00000000
 C      3   1   2     2.891149159826   115.73134354   283.86654240
 C      4   3   1     2.926351716185   118.47877118    69.26129095
 H      4   3   1     2.071122674398   109.22905345   306.99560749
 H      4   3   1     2.059306583628   109.09411306   191.65902177
 H      2   1   3     1.935550800000   112.58858819   165.09815193
 H      2   1   3     1.943204930000   105.09071792    42.74214310
 H      2   1   3     1.943181970000   111.00010450   286.54462828
 F      5   4   3     2.302172447750   116.67936219   153.77996774
 O      5   4   3     2.423561712249   116.99186053   332.02435957
 H      1   2   3     2.061578992270   106.72870749   239.83621634
 H      1   2   3     2.060519885099   108.75809174   123.14337993
 H      3   1   2     2.071002095802   109.24647563    49.02996073
 H      3   1   2     2.065726685956   106.48674843   162.87095658

---------------------
BASIS SET INFORMATION
---------------------
There are 4 groups of distinct atoms

 Group   1 Type C   : 11s6p2d1f contracted to 5s3p2d1f pattern {62111/411/11/1}
 Group   2 Type H   : 5s1p contracted to 3s1p pattern {311/1}
 Group   3 Type F   : 11s6p2d1f contracted to 5s3p2d1f pattern {62111/411/11/1}
 Group   4 Type O   : 11s6p2d1f contracted to 5s3p2d1f pattern {62111/411/11/1}

Atom   0C    basis set group =>   1
Atom   1C    basis set group =>   1
Atom   2C    basis set group =>   1
Atom   3C    basis set group =>   1
Atom   4C    basis set group =>   1
Atom   5H    basis set group =>   2
Atom   6H    basis set group =>   2
Atom   7H    basis set group =>   2
Atom   8H    basis set group =>   2
Atom   9H    basis set group =>   2
Atom  10F    basis set group =>   3
Atom  11O    basis set group =>   4
Atom  12H    basis set group =>   2
Atom  13H    basis set group =>   2
Atom  14H    basis set group =>   2
Atom  15H    basis set group =>   2
---------------------------------
AUXILIARY/J BASIS SET INFORMATION
---------------------------------
There are 4 groups of distinct atoms

 Group   1 Type C   : 12s5p4d2f1g contracted to 6s4p3d1f1g pattern {711111/2111/211/2/1}
 Group   2 Type H   : 5s2p1d contracted to 3s1p1d pattern {311/2/1}
 Group   3 Type F   : 12s5p4d2f1g contracted to 6s4p3d1f1g pattern {711111/2111/211/2/1}
 Group   4 Type O   : 12s5p4d2f1g contracted to 6s4p3d1f1g pattern {711111/2111/211/2/1}

Atom   0C    basis set group =>   1
Atom   1C    basis set group =>   1
Atom   2C    basis set group =>   1
Atom   3C    basis set group =>   1
Atom   4C    basis set group =>   1
Atom   5H    basis set group =>   2
Atom   6H    basis set group =>   2
Atom   7H    basis set group =>   2
Atom   8H    basis set group =>   2
Atom   9H    basis set group =>   2
Atom  10F    basis set group =>   3
Atom  11O    basis set group =>   4
Atom  12H    basis set group =>   2
Atom  13H    basis set group =>   2
Atom  14H    basis set group =>   2
Atom  15H    basis set group =>   2


           ************************************************************
           *        Program running with 18 parallel MPI-processes    *
           *              working on a common directory               *
           ************************************************************
------------------------------------------------------------------------------
                           ORCA GTO INTEGRAL CALCULATION
                           -- RI-GTO INTEGRALS CHOSEN --
------------------------------------------------------------------------------
------------------------------------------------------------------------------
                   ___                                                        
                  /   \      - P O W E R E D   B Y -                         
                 /     \                                                     
                 |  |  |   _    _      __       _____    __    __             
                 |  |  |  | |  | |    /  \     |  _  \  |  |  /  |          
                  \  \/   | |  | |   /    \    | | | |  |  | /  /          
                 / \  \   | |__| |  /  /\  \   | |_| |  |  |/  /          
                |  |  |   |  __  | /  /__\  \  |    /   |      \           
                |  |  |   | |  | | |   __   |  |    \   |  |\   \          
                \     /   | |  | | |  |  |  |  | |\  \  |  | \   \       
                 \___/    |_|  |_| |__|  |__|  |_| \__\ |__|  \__/        
                                                                              
                      - O R C A' S   B I G   F R I E N D -                    
                                      &                                       
                       - I N T E G R A L  F E E D E R -                       
                                                                              
 v1 FN, 2020, v2 2021                                                         
------------------------------------------------------------------------------


Reading SHARK input file CAMB3LYP_D1_wb97.SHARKINP.tmp ... ok
----------------------
SHARK INTEGRAL PACKAGE
----------------------

Number of atoms                             ...     16
Number of basis functions                   ...    271
Number of shells                            ...    113
Maximum angular momentum                    ...      3
Integral batch strategy                     ... SHARK/LIBINT Hybrid
RI-J (if used) integral strategy            ... SPLIT-RIJ (Revised 2003 algorithm where possible)
Printlevel                                  ...      1
Contraction scheme used                     ... SEGMENTED contraction
Coulomb Range Separation                    ... NOT USED
Exchange Range Separation                   ... Long Range
   Mu parameter                             ...  0.330000
   Scaling (regular/separated)              ...  0.190000  0.460000
Finite Nucleus Model                        ... NOT USED
Auxiliary Coulomb fitting basis             ... AVAILABLE
   # of basis functions in Aux-J            ...    442
   # of shells in Aux-J                     ...    150
   Maximum angular momentum in Aux-J        ...      4
Auxiliary J/K fitting basis                 ... NOT available
Auxiliary Correlation fitting basis         ... NOT available
Auxiliary 'external' fitting basis          ... NOT available
Integral threshold                          ...     2.500000e-11
Primitive cut-off                           ...     2.500000e-12
Primitive pair pre-selection threshold      ...     2.500000e-12

Calculating pre-screening integrals         ... done (  0.1 sec) Dimension = 113
Organizing shell pair data                  ... done (  0.1 sec)
Shell pair information
Total number of shell pairs                 ...      6441
Shell pairs after pre-screening             ...      5996
Total number of primitive shell pairs       ...     19096
Primitive shell pairs kept                  ...     13619
          la=0 lb=0:   1767 shell pairs
          la=1 lb=0:   1748 shell pairs
          la=1 lb=1:    451 shell pairs
          la=2 lb=0:    803 shell pairs
          la=2 lb=1:    403 shell pairs
          la=2 lb=2:    100 shell pairs
          la=3 lb=0:    403 shell pairs
          la=3 lb=1:    201 shell pairs
          la=3 lb=2:     94 shell pairs
          la=3 lb=3:     26 shell pairs

Calculating one electron integrals          ... done (  0.0 sec)
Calculating RI/J V-Matrix + Cholesky decomp.... done (  0.0 sec)
Calculating Nuclear repulsion               ... done (  0.0 sec) ENN=    322.169625234771 Eh

SHARK setup successfully completed in   0.3 seconds

Maximum memory used throughout the entire GTOINT-calculation: 14.0 MB


           ************************************************************
           *        Program running with 18 parallel MPI-processes    *
           *              working on a common directory               *
           ************************************************************
-------------------------------------------------------------------------------
                                 ORCA SCF
-------------------------------------------------------------------------------

------------
SCF SETTINGS
------------
Hamiltonian:
 Density Functional     Method          .... DFT(GTOs)
 Exchange Functional    Exchange        .... WB88
 Correlation Functional Correlation     .... LYP
 LDA part of GGA corr.  LDAOpt          .... VWN-5
 Gradients option       PostSCFGGA      .... off
 Hybrid DFT is turned on
   Fraction HF Exchange ScalHFX         ....  0.190000
   Scaling of DF-GGA-X  ScalDFX         ....  0.350000
   Scaling of DF-GGA-C  ScalDFC         ....  0.810000
   Scaling of DF-LDA-C  ScalLDAC        ....  1.000000
   Perturbative correction              ....  0.000000
   Density functional embedding theory  .... OFF
 Long-range corrected/Screened/Range-Separated Hybrid DFT is turned on
   Amount of maximum screened exact exchange              ....  0.460000
   Range separation parameter mu (erf(mu*r12)/r12)        ....  0.330000
 RI-approximation to the Coulomb term is turned on
   Number of AuxJ basis functions       .... 442
   RIJ-COSX (HFX calculated with COS-X)).... on


General Settings:
 Integral files         IntName         .... CAMB3LYP_D1_wb97
 Hartree-Fock type      HFTyp           .... RHF
 Total Charge           Charge          ....    0
 Multiplicity           Mult            ....    1
 Number of Electrons    NEL             ....   56
 Basis Dimension        Dim             ....  271
 Nuclear Repulsion      ENuc            ....    322.1696252348 Eh

Convergence Acceleration:
 DIIS                   CNVDIIS         .... on
   Start iteration      DIISMaxIt       ....    12
   Startup error        DIISStart       ....  0.200000
   # of expansion vecs  DIISMaxEq       ....     5
   Bias factor          DIISBfac        ....   1.050
   Max. coefficient     DIISMaxC        ....  10.000
 Trust-Rad. Augm. Hess. CNVTRAH         .... auto
   Auto Start mean grad. ratio tolernc. ....  1.125000
   Auto Start start iteration           ....    20
   Auto Start num. interpolation iter.  ....    10
   Max. Number of Micro iterations      ....    16
   Max. Number of Macro iterations      .... Maxiter - #DIIS iter
   Number of Davidson start vectors     ....     2
   Converg. threshold I  (grad. norm)   ....   1.000e-05
   Converg. threshold II (energy diff.) ....   1.000e-08
   Grad. Scal. Fac. for Micro threshold ....   0.100
   Minimum threshold for Micro iter.    ....   0.010
   NR start threshold (gradient norm)   ....   0.001
   Initial trust radius                 ....   0.400
   Minimum AH scaling param. (alpha)    ....   1.000
   Maximum AH scaling param. (alpha)    .... 1000.000
   Orbital update algorithm             .... Taylor
   White noise on init. David. guess    .... on
   Maximum white noise                  ....   0.010
   Quad. conv. algorithm                .... NR
 SOSCF                  CNVSOSCF        .... on
   Start iteration      SOSCFMaxIt      ....   150
   Startup grad/error   SOSCFStart      ....  0.003300
 Level Shifting         CNVShift        .... on
   Level shift para.    LevelShift      ....    0.2500
   Turn off err/grad.   ShiftErr        ....    0.0010
 Zerner damping         CNVZerner       .... off
 Static damping         CNVDamp         .... on
   Fraction old density DampFac         ....    0.7000
   Max. Damping (<1)    DampMax         ....    0.9800
   Min. Damping (>=0)   DampMin         ....    0.0000
   Turn off err/grad.   DampErr         ....    0.1000
 Fernandez-Rico         CNVRico         .... off

SCF Procedure:
 Maximum # iterations   MaxIter         ....   150
 SCF integral mode      SCFMode         .... Direct
   Integral package                     .... SHARK and LIBINT hybrid scheme
 Reset frequency        DirectResetFreq ....    20
 Integral Threshold     Thresh          ....  2.500e-11 Eh
 Primitive CutOff       TCut            ....  2.500e-12 Eh

Convergence Tolerance:
 Convergence Check Mode ConvCheckMode   .... Total+1el-Energy
 Convergence forced     ConvForced      .... 0
 Energy Change          TolE            ....  1.000e-08 Eh
 1-El. energy change                    ....  1.000e-05 Eh
 Orbital Gradient       TolG            ....  1.000e-05
 Orbital Rotation angle TolX            ....  1.000e-05
 DIIS Error             TolErr          ....  5.000e-07


Diagonalization of the overlap matrix:
Smallest eigenvalue                        ... 1.653e-04
Time for diagonalization                   ...    0.016 sec
Threshold for overlap eigenvalues          ... 1.000e-08
Number of eigenvalues below threshold      ... 0
Time for construction of square roots      ...    0.029 sec
Total time needed                          ...    0.047 sec

Time for model grid setup =    0.060 sec

------------------------------
INITIAL GUESS: MODEL POTENTIAL
------------------------------
Loading Hartree-Fock densities                     ... done
Calculating cut-offs                               ... done
Initializing the effective Hamiltonian             ... done
Setting up the integral package (SHARK)            ... done
Starting the Coulomb interaction                   ... done (   0.0 sec)
Reading the grid                                   ... done
Mapping shells                                     ... done
Starting the XC term evaluation                    ... done (   0.1 sec)
  promolecular density results
     # of electrons  =     56.001904773
     EX              =    -46.457098020
     EC              =     -1.874414346
     EX+EC           =    -48.331512366
Transforming the Hamiltonian                       ... done (   0.0 sec)
Diagonalizing the Hamiltonian                      ... done (   0.0 sec)
Back transforming the eigenvectors                 ... done (   0.0 sec)
Now organizing SCF variables                       ... done
                      ------------------
                      INITIAL GUESS DONE (   0.2 sec)
                      ------------------
-------------------
DFT GRID GENERATION
-------------------

General Integration Accuracy     IntAcc      ... 4.388
Radial Grid Type                 RadialGrid  ... OptM3 with GC (2021)
Angular Grid (max. ang.)         AngularGrid ... 4 (Lebedev-302)
Angular grid pruning method      GridPruning ... 4 (adaptive)
Weight generation scheme         WeightScheme... Becke
Basis function cutoff            BFCut       ... 1.0000e-11
Integration weight cutoff        WCut        ... 1.0000e-14
Angular grids for H and He will be reduced by one unit
Partially contracted basis set               ... off
Rotationally invariant grid construction     ... off

Total number of grid points                  ...    70968
Total number of batches                      ...     1115
Average number of points per batch           ...       63
Average number of grid points per atom       ...     4436
Time for grid setup =    0.364 sec

--------------------
COSX GRID GENERATION
--------------------

GRIDX 1
-------
General Integration Accuracy     IntAcc      ... 3.816
Radial Grid Type                 RadialGrid  ... OptM3 with GC (2021)
Angular Grid (max. ang.)         AngularGrid ... 1 (Lebedev-50)
Angular grid pruning method      GridPruning ... 4 (adaptive)
Weight generation scheme         WeightScheme... Becke
Basis function cutoff            BFCut       ... 1.0000e-11
Integration weight cutoff        WCut        ... 1.0000e-14
Angular grids for H and He will be reduced by one unit
Partially contracted basis set               ... on
Rotationally invariant grid construction     ... off

Total number of grid points                  ...     9081
Total number of batches                      ...      152
Average number of points per batch           ...       59
Average number of grid points per atom       ...      568
UseSFitting                                  ... on

GRIDX 2
-------
General Integration Accuracy     IntAcc      ... 4.020
Radial Grid Type                 RadialGrid  ... OptM3 with GC (2021)
Angular Grid (max. ang.)         AngularGrid ... 2 (Lebedev-110)
Angular grid pruning method      GridPruning ... 4 (adaptive)
Weight generation scheme         WeightScheme... Becke
Basis function cutoff            BFCut       ... 1.0000e-11
Integration weight cutoff        WCut        ... 1.0000e-14
Angular grids for H and He will be reduced by one unit
Partially contracted basis set               ... on
Rotationally invariant grid construction     ... off

Total number of grid points                  ...    19432
Total number of batches                      ...      312
Average number of points per batch           ...       62
Average number of grid points per atom       ...     1214
UseSFitting                                  ... on

GRIDX 3
-------
General Integration Accuracy     IntAcc      ... 4.338
Radial Grid Type                 RadialGrid  ... OptM3 with GC (2021)
Angular Grid (max. ang.)         AngularGrid ... 3 (Lebedev-194)
Angular grid pruning method      GridPruning ... 4 (adaptive)
Weight generation scheme         WeightScheme... Becke
Basis function cutoff            BFCut       ... 1.0000e-11
Integration weight cutoff        WCut        ... 1.0000e-14
Angular grids for H and He will be reduced by one unit
Partially contracted basis set               ... on
Rotationally invariant grid construction     ... off

Total number of grid points                  ...    42566
Total number of batches                      ...      675
Average number of points per batch           ...       63
Average number of grid points per atom       ...     2660
UseSFitting                                  ... on

Time for X-Grid setup             =    0.281 sec

--------------
SCF ITERATIONS
--------------
ITER       Energy         Delta-E        Max-DP      RMS-DP      [F,P]     Damp
               ***  Starting incremental Fock matrix formation  ***
  0   -370.6215797216   0.000000000000 0.06123165  0.00135854  0.2691024 0.7000
  1   -370.7660380893  -0.144458367716 0.05098650  0.00098646  0.1312450 0.7000
                               ***Turning on DIIS***
  2   -370.8237378950  -0.057699805716 0.05378612  0.00159917  0.0590836 0.0000
  3   -370.9203742480  -0.096636352972 0.05107550  0.00073824  0.0626079 0.0000
  4   -370.9379199214  -0.017545673400 0.01433789  0.00021884  0.0174740 0.0000
  5   -370.9389639905  -0.001044069094 0.00617019  0.00009779  0.0079155 0.0000
                      *** Initiating the SOSCF procedure ***
                           *** Shutting down DIIS ***
                      *** Re-Reading the Fockian *** 
                      *** Removing any level shift *** 
ITER      Energy       Delta-E        Grad      Rot      Max-DP    RMS-DP
  6   -370.93906389  -0.0000999036  0.000367  0.000367  0.003691  0.000066
               *** Restarting incremental Fock matrix formation ***
  7   -370.93909021  -0.0000263154  0.000092  0.000219  0.000448  0.000014
  8   -370.93909062  -0.0000004095  0.000135  0.000209  0.000163  0.000004
  9   -370.93909110  -0.0000004786  0.000025  0.000043  0.000069  0.000002
 10   -370.93909109   0.0000000058  0.000048  0.000044  0.000036  0.000001
 11   -370.93909113  -0.0000000344  0.000004  0.000005  0.000014  0.000000
 12   -370.93909113  -0.0000000052  0.000004  0.000003  0.000005  0.000000
                  ***Gradient check signals convergence***
              ***Rediagonalizing the Fockian in SOSCF/NRSCF***

               *****************************************************
               *                     SUCCESS                       *
               *           SCF CONVERGED AFTER  13 CYCLES          *
               *****************************************************

Old exchange energy                            =    -13.438430896 Eh
New exchange energy                            =    -13.438428694 Eh
Exchange energy change after final integration =      0.000002202 Eh
Total energy after final integration           =   -370.939088926 Eh
Final COS-X integration done in                =     3.614 sec

----------------
TOTAL SCF ENERGY
----------------

Total Energy       :         -370.93908893 Eh          -10093.76577 eV

Components:
Nuclear Repulsion  :          322.16962523 Eh            8766.68119 eV
Electronic Energy  :         -693.10871416 Eh          -18860.44696 eV
One Electron Energy:        -1144.26269793 Eh          -31136.97098 eV
Two Electron Energy:          451.15398377 Eh           12276.52402 eV
Max COSX asymmetry :            0.00000115 Eh               0.00003 eV

Virial components:
Potential Energy   :         -740.93927605 Eh          -20161.98272 eV
Kinetic Energy     :          370.00018712 Eh           10068.21695 eV
Virial Ratio       :            2.00253757


DFT components:
N(Alpha)           :       28.000095344217 electrons
N(Beta)            :       28.000095344217 electrons
N(Total)           :       56.000190688434 electrons
E(XC)              :      -36.141296513713 Eh       
DFET-embed. en.    :        0.000000000000 Eh       

---------------
SCF CONVERGENCE
---------------

  Last Energy change         ...    3.4083e-09  Tolerance :   1.0000e-08
  Last MAX-Density change    ...    9.9920e-16  Tolerance :   1.0000e-07
  Last RMS-Density change    ...    1.5072e-17  Tolerance :   5.0000e-09
  Last Orbital Gradient      ...    3.2791e-07  Tolerance :   1.0000e-05
  Last Orbital Rotation      ...    1.0245e-06  Tolerance :   1.0000e-05

             **** THE GBW FILE WAS UPDATED (CAMB3LYP_D1_wb97.gbw) ****
             **** DENSITY CAMB3LYP_D1_wb97.scfp WAS UPDATED ****
             **** ENERGY FILE WAS UPDATED (CAMB3LYP_D1_wb97.en.tmp) ****
             **** THE GBW FILE WAS UPDATED (CAMB3LYP_D1_wb97.gbw) ****
             **** DENSITY CAMB3LYP_D1_wb97.scfp WAS UPDATED ****
----------------
ORBITAL ENERGIES
----------------

  NO   OCC          E(Eh)            E(eV) 
   0   2.0000     -24.852774      -676.2784 
   1   2.0000     -19.209249      -522.7102 
   2   2.0000     -10.445913      -284.2477 
   3   2.0000     -10.282852      -279.8106 
   4   2.0000     -10.251250      -278.9507 
   5   2.0000     -10.222152      -278.1589 
   6   2.0000     -10.149961      -276.1945 
   7   2.0000      -1.442766       -39.2596 
   8   2.0000      -1.122975       -30.5577 
   9   2.0000      -0.900467       -24.5030 
  10   2.0000      -0.840256       -22.8645 
  11   2.0000      -0.770123       -20.9561 
  12   2.0000      -0.737896       -20.0792 
  13   2.0000      -0.660571       -17.9751 
  14   2.0000      -0.649627       -17.6773 
  15   2.0000      -0.635273       -17.2867 
  16   2.0000      -0.600102       -16.3296 
  17   2.0000      -0.554488       -15.0884 
  18   2.0000      -0.522462       -14.2169 
  19   2.0000      -0.505320       -13.7505 
  20   2.0000      -0.479432       -13.0460 
  21   2.0000      -0.450622       -12.2621 
  22   2.0000      -0.444823       -12.1042 
  23   2.0000      -0.421899       -11.4805 
  24   2.0000      -0.408457       -11.1147 
  25   2.0000      -0.385157       -10.4806 
  26   2.0000      -0.375787       -10.2257 
  27   2.0000      -0.311265        -8.4700 
  28   0.0000       0.007758         0.2111 
  29   0.0000       0.066615         1.8127 
  30   0.0000       0.098828         2.6892 
  31   0.0000       0.107826         2.9341 
  32   0.0000       0.120062         3.2670 
  33   0.0000       0.140091         3.8121 
  34   0.0000       0.151362         4.1188 
  35   0.0000       0.157210         4.2779 
  36   0.0000       0.165440         4.5019 
  37   0.0000       0.181755         4.9458 
  38   0.0000       0.198275         5.3953 
  39   0.0000       0.215217         5.8563 
  40   0.0000       0.236414         6.4332 
  41   0.0000       0.245491         6.6802 
  42   0.0000       0.262783         7.1507 
  43   0.0000       0.265194         7.2163 
  44   0.0000       0.277079         7.5397 
  45   0.0000       0.282011         7.6739 
  46   0.0000       0.289853         7.8873 
  47   0.0000       0.296965         8.0808 
  48   0.0000       0.324213         8.8223 
  49   0.0000       0.339745         9.2449 
  50   0.0000       0.363357         9.8874 
  51   0.0000       0.379276        10.3206 
  52   0.0000       0.389302        10.5935 
  53   0.0000       0.416302        11.3282 
  54   0.0000       0.422207        11.4888 
  55   0.0000       0.446731        12.1562 
  56   0.0000       0.451747        12.2927 
  57   0.0000       0.460396        12.5280 
  58   0.0000       0.464132        12.6297 
  59   0.0000       0.480172        13.0662 
  60   0.0000       0.486145        13.2287 
  61   0.0000       0.493340        13.4245 
  62   0.0000       0.502144        13.6640 
  63   0.0000       0.525194        14.2912 
  64   0.0000       0.529308        14.4032 
  65   0.0000       0.540741        14.7143 
  66   0.0000       0.549407        14.9501 
  67   0.0000       0.580291        15.7905 
  68   0.0000       0.587221        15.9791 
  69   0.0000       0.599614        16.3163 
  70   0.0000       0.623053        16.9541 
  71   0.0000       0.657122        17.8812 
  72   0.0000       0.661717        18.0062 
  73   0.0000       0.702053        19.1038 
  74   0.0000       0.710300        19.3282 
  75   0.0000       0.723736        19.6939 
  76   0.0000       0.758303        20.6345 
  77   0.0000       0.761046        20.7091 
  78   0.0000       0.785316        21.3695 
  79   0.0000       0.807336        21.9687 
  80   0.0000       0.837228        22.7821 
  81   0.0000       0.877632        23.8816 
  82   0.0000       0.893735        24.3198 
  83   0.0000       0.910284        24.7701 
  84   0.0000       0.928640        25.2696 
  85   0.0000       0.951017        25.8785 
  86   0.0000       0.965542        26.2737 
  87   0.0000       0.988415        26.8961 
  88   0.0000       0.999260        27.1912 
  89   0.0000       1.021696        27.8018 
  90   0.0000       1.051093        28.6017 
  91   0.0000       1.065129        28.9836 
  92   0.0000       1.076502        29.2931 
  93   0.0000       1.125603        30.6292 
  94   0.0000       1.131901        30.8006 
  95   0.0000       1.155786        31.4505 
  96   0.0000       1.164918        31.6990 
  97   0.0000       1.196557        32.5600 
  98   0.0000       1.207232        32.8505 
  99   0.0000       1.229087        33.4452 
 100   0.0000       1.254087        34.1254 
 101   0.0000       1.297358        35.3029 
 102   0.0000       1.334327        36.3089 
 103   0.0000       1.338194        36.4141 
 104   0.0000       1.368760        37.2458 
 105   0.0000       1.424614        38.7657 
 106   0.0000       1.448749        39.4225 
 107   0.0000       1.504124        40.9293 
 108   0.0000       1.538011        41.8514 
 109   0.0000       1.569090        42.6971 
 110   0.0000       1.593011        43.3480 
 111   0.0000       1.612488        43.8780 
 112   0.0000       1.642107        44.6840 
 113   0.0000       1.666746        45.3545 
 114   0.0000       1.676370        45.6164 
 115   0.0000       1.692241        46.0482 
 116   0.0000       1.710696        46.5504 
 117   0.0000       1.733672        47.1756 
 118   0.0000       1.735170        47.2164 
 119   0.0000       1.751311        47.6556 
 120   0.0000       1.793414        48.8013 
 121   0.0000       1.795783        48.8657 
 122   0.0000       1.831272        49.8314 
 123   0.0000       1.852129        50.3990 
 124   0.0000       1.866535        50.7910 
 125   0.0000       1.922155        52.3045 
 126   0.0000       1.933086        52.6019 
 127   0.0000       1.961983        53.3883 
 128   0.0000       1.980263        53.8857 
 129   0.0000       1.985043        54.0158 
 130   0.0000       1.998544        54.3831 
 131   0.0000       2.044290        55.6279 
 132   0.0000       2.075733        56.4836 
 133   0.0000       2.098698        57.1085 
 134   0.0000       2.141751        58.2800 
 135   0.0000       2.145577        58.3841 
 136   0.0000       2.173878        59.1542 
 137   0.0000       2.189328        59.5746 
 138   0.0000       2.228589        60.6430 
 139   0.0000       2.255194        61.3669 
 140   0.0000       2.308730        62.8237 
 141   0.0000       2.320573        63.1460 
 142   0.0000       2.358872        64.1882 
 143   0.0000       2.406457        65.4830 
 144   0.0000       2.420970        65.8780 
 145   0.0000       2.435322        66.2685 
 146   0.0000       2.448615        66.6302 
 147   0.0000       2.463893        67.0459 
 148   0.0000       2.493380        67.8483 
 149   0.0000       2.526656        68.7538 
 150   0.0000       2.546830        69.3028 
 151   0.0000       2.549138        69.3656 
 152   0.0000       2.565173        69.8019 
 153   0.0000       2.577807        70.1457 
 154   0.0000       2.620693        71.3127 
 155   0.0000       2.629408        71.5498 
 156   0.0000       2.647287        72.0363 
 157   0.0000       2.666578        72.5613 
 158   0.0000       2.701356        73.5076 
 159   0.0000       2.708103        73.6912 
 160   0.0000       2.730938        74.3126 
 161   0.0000       2.749626        74.8211 
 162   0.0000       2.762982        75.1846 
 163   0.0000       2.787074        75.8401 
 164   0.0000       2.806380        76.3655 
 165   0.0000       2.816034        76.6282 
 166   0.0000       2.834304        77.1253 
 167   0.0000       2.877215        78.2930 
 168   0.0000       2.881866        78.4196 
 169   0.0000       2.932128        79.7873 
 170   0.0000       2.945016        80.1380 
 171   0.0000       2.966610        80.7256 
 172   0.0000       2.979389        81.0733 
 173   0.0000       2.989725        81.3546 
 174   0.0000       3.000339        81.6434 
 175   0.0000       3.020255        82.1853 
 176   0.0000       3.080329        83.8200 
 177   0.0000       3.100678        84.3737 
 178   0.0000       3.131355        85.2085 
 179   0.0000       3.150590        85.7319 
 180   0.0000       3.168042        86.2068 
 181   0.0000       3.174390        86.3795 
 182   0.0000       3.193686        86.9046 
 183   0.0000       3.214949        87.4832 
 184   0.0000       3.223994        87.7293 
 185   0.0000       3.261459        88.7488 
 186   0.0000       3.288400        89.4819 
 187   0.0000       3.294120        89.6376 
 188   0.0000       3.311168        90.1015 
 189   0.0000       3.335609        90.7665 
 190   0.0000       3.366086        91.5959 
 191   0.0000       3.387082        92.1672 
 192   0.0000       3.388669        92.2104 
 193   0.0000       3.438732        93.5727 
 194   0.0000       3.446279        93.7780 
 195   0.0000       3.462793        94.2274 
 196   0.0000       3.493260        95.0564 
 197   0.0000       3.511616        95.5559 
 198   0.0000       3.531270        96.0907 
 199   0.0000       3.554995        96.7363 
 200   0.0000       3.580614        97.4335 
 201   0.0000       3.608872        98.2024 
 202   0.0000       3.628587        98.7389 
 203   0.0000       3.633957        98.8850 
 204   0.0000       3.665650        99.7474 
 205   0.0000       3.701690       100.7281 
 206   0.0000       3.756352       102.2155 
 207   0.0000       3.792032       103.1864 
 208   0.0000       3.849482       104.7497 
 209   0.0000       3.884568       105.7045 
 210   0.0000       3.898836       106.0927 
 211   0.0000       3.916452       106.5721 
 212   0.0000       3.926936       106.8574 
 213   0.0000       3.940833       107.2355 
 214   0.0000       3.983490       108.3963 
 215   0.0000       4.019730       109.3824 
 216   0.0000       4.049428       110.1905 
 217   0.0000       4.063000       110.5598 
 218   0.0000       4.106030       111.7307 
 219   0.0000       4.159534       113.1867 
 220   0.0000       4.173560       113.5684 
 221   0.0000       4.188622       113.9782 
 222   0.0000       4.251082       115.6778 
 223   0.0000       4.294694       116.8646 
 224   0.0000       4.369409       118.8977 
 225   0.0000       4.424873       120.4069 
 226   0.0000       4.509689       122.7149 
 227   0.0000       4.541356       123.5766 
 228   0.0000       4.596430       125.0752 
 229   0.0000       4.616152       125.6119 
 230   0.0000       4.661812       126.8543 
 231   0.0000       4.691142       127.6525 
 232   0.0000       4.754980       129.3896 
 233   0.0000       4.798623       130.5772 
 234   0.0000       4.832728       131.5052 
 235   0.0000       4.857781       132.1869 
 236   0.0000       4.919768       133.8737 
 237   0.0000       4.955608       134.8489 
 238   0.0000       5.016631       136.5095 
 239   0.0000       5.116407       139.2245 
 240   0.0000       5.276868       143.5909 
 241   0.0000       5.371267       146.1596 
 242   0.0000       5.554761       151.1527 
 243   0.0000       5.862579       159.5289 
 244   0.0000       5.938726       161.6009 
 245   0.0000       6.183956       168.2740 
 246   0.0000       6.302537       171.5007 
 247   0.0000       6.448374       175.4692 
 248   0.0000       6.744363       183.5234 
 249   0.0000       6.788179       184.7157 
 250   0.0000       6.863136       186.7554 
 251   0.0000       6.893316       187.5767 
 252   0.0000       6.995244       190.3503 
 253   0.0000       7.136763       194.2012 
 254   0.0000       7.144869       194.4218 
 255   0.0000       7.266524       197.7322 
 256   0.0000       7.427467       202.1117 
 257   0.0000       7.612655       207.1509 
 258   0.0000       7.935612       215.9390 
 259   0.0000       8.355326       227.3600 
 260   0.0000       8.460660       230.2263 
 261   0.0000       8.847456       240.7515 
 262   0.0000       9.001437       244.9416 
 263   0.0000       9.036974       245.9086 
 264   0.0000      22.460259       611.1747 
 265   0.0000      22.509904       612.5256 
 266   0.0000      22.566978       614.0787 
 267   0.0000      22.871832       622.3742 
 268   0.0000      23.305834       634.1840 
 269   0.0000      43.912761      1194.9270 
 270   0.0000      57.206205      1556.6600 

                    ********************************
                    * MULLIKEN POPULATION ANALYSIS *
                    ********************************

-----------------------
MULLIKEN ATOMIC CHARGES
-----------------------
   0 C :   -0.166242
   1 C :   -0.411750
   2 C :   -0.189987
   3 C :   -0.289247
   4 C :    0.370838
   5 H :    0.141276
   6 H :    0.137093
   7 H :    0.090893
   8 H :    0.193505
   9 H :    0.088776
  10 F :   -0.053590
  11 O :   -0.305386
  12 H :    0.077411
  13 H :    0.091283
  14 H :    0.113229
  15 H :    0.111898
Sum of atomic charges:   -0.0000000

--------------------------------
MULLIKEN REDUCED ORBITAL CHARGES
--------------------------------
  0 C s       :     3.222648  s :     3.222648
      pz      :     0.956178  p :     2.841356
      px      :     1.001763
      py      :     0.883416
      dz2     :     0.014422  d :     0.095954
      dxz     :     0.020228
      dyz     :     0.032048
      dx2y2   :     0.020923
      dxy     :     0.008334
      f0      :     0.001298  f :     0.006284
      f+1     :     0.001181
      f-1     :     0.001177
      f+2     :     0.000662
      f-2     :     0.000391
      f+3     :     0.000977
      f-3     :     0.000598
  1 C s       :     3.280675  s :     3.280675
      pz      :     0.886392  p :     3.079378
      px      :     1.142246
      py      :     1.050739
      dz2     :     0.010681  d :     0.048004
      dxz     :     0.012268
      dyz     :     0.013737
      dx2y2   :     0.008012
      dxy     :     0.003306
      f0      :     0.000971  f :     0.003694
      f+1     :     0.000839
      f-1     :     0.000831
      f+2     :     0.000223
      f-2     :     0.000077
      f+3     :     0.000151
      f-3     :     0.000602
  2 C s       :     3.232477  s :     3.232477
      pz      :     1.030251  p :     2.860795
      px      :     0.867673
      py      :     0.962871
      dz2     :     0.008983  d :     0.091025
      dxz     :     0.014904
      dyz     :     0.022774
      dx2y2   :     0.018771
      dxy     :     0.025592
      f0      :     0.000388  f :     0.005691
      f+1     :     0.000675
      f-1     :     0.000807
      f+2     :     0.001075
      f-2     :     0.000290
      f+3     :     0.001056
      f-3     :     0.001399
  3 C s       :     3.246121  s :     3.246121
      pz      :     0.961836  p :     2.961102
      px      :     0.930310
      py      :     1.068957
      dz2     :     0.006458  d :     0.076828
      dxz     :     0.028520
      dyz     :     0.011310
      dx2y2   :     0.010656
      dxy     :     0.019884
      f0      :     0.000602  f :     0.005196
      f+1     :     0.001067
      f-1     :     0.000291
      f+2     :     0.001521
      f-2     :     0.000301
      f+3     :     0.000559
      f-3     :     0.000855
  4 C s       :     3.098007  s :     3.098007
      pz      :     0.841830  p :     2.226180
      px      :     0.698603
      py      :     0.685747
      dz2     :     0.060095  d :     0.275832
      dxz     :     0.072883
      dyz     :     0.037052
      dx2y2   :     0.055416
      dxy     :     0.050385
      f0      :     0.005352  f :     0.029143
      f+1     :     0.003340
      f-1     :     0.002826
      f+2     :     0.003853
      f-2     :     0.004992
      f+3     :     0.005922
      f-3     :     0.002858
  5 H s       :     0.836951  s :     0.836951
      pz      :     0.008805  p :     0.021773
      px      :     0.004605
      py      :     0.008363
  6 H s       :     0.841246  s :     0.841246
      pz      :     0.006209  p :     0.021661
      px      :     0.004451
      py      :     0.011001
  7 H s       :     0.885933  s :     0.885933
      pz      :     0.005478  p :     0.023174
      px      :     0.006301
      py      :     0.011395
  8 H s       :     0.753372  s :     0.753372
      pz      :     0.006781  p :     0.053124
      px      :     0.034959
      py      :     0.011384
  9 H s       :     0.888153  s :     0.888153
      pz      :     0.008171  p :     0.023071
      px      :     0.008115
      py      :     0.006785
 10 F s       :     3.883184  s :     3.883184
      pz      :     1.862919  p :     5.149685
      px      :     1.544316
      py      :     1.742450
      dz2     :     0.002334  d :     0.019723
      dxz     :     0.004364
      dyz     :     0.001172
      dx2y2   :     0.005751
      dxy     :     0.006102
      f0      :     0.000107  f :     0.000999
      f+1     :     0.000151
      f-1     :     0.000052
      f+2     :     0.000070
      f-2     :     0.000114
      f+3     :     0.000237
      f-3     :     0.000267
 11 O s       :     3.819792  s :     3.819792
      pz      :     1.444073  p :     4.454032
      px      :     1.647932
      py      :     1.362027
      dz2     :     0.008516  d :     0.029902
      dxz     :     0.005157
      dyz     :     0.007358
      dx2y2   :     0.004432
      dxy     :     0.004439
      f0      :     0.000248  f :     0.001660
      f+1     :     0.000274
      f-1     :     0.000283
      f+2     :     0.000297
      f-2     :     0.000303
      f+3     :     0.000096
      f-3     :     0.000160
 12 H s       :     0.901742  s :     0.901742
      pz      :     0.007015  p :     0.020847
      px      :     0.005180
      py      :     0.008652
 13 H s       :     0.887782  s :     0.887782
      pz      :     0.004520  p :     0.020935
      px      :     0.012472
      py      :     0.003944
 14 H s       :     0.865810  s :     0.865810
      pz      :     0.008451  p :     0.020961
      px      :     0.004492
      py      :     0.008018
 15 H s       :     0.866803  s :     0.866803
      pz      :     0.009535  p :     0.021299
      px      :     0.006511
      py      :     0.005252


                     *******************************
                     * LOEWDIN POPULATION ANALYSIS *
                     *******************************

----------------------
LOEWDIN ATOMIC CHARGES
----------------------
   0 C :   -0.300636
   1 C :   -0.320809
   2 C :   -0.257702
   3 C :   -0.233804
   4 C :   -0.480687
   5 H :    0.158969
   6 H :    0.147553
   7 H :    0.098305
   8 H :    0.070649
   9 H :    0.100694
  10 F :    0.391112
  11 O :    0.081075
  12 H :    0.132166
  13 H :    0.129834
  14 H :    0.142774
  15 H :    0.140506

-------------------------------
LOEWDIN REDUCED ORBITAL CHARGES
-------------------------------
  0 C s       :     2.765254  s :     2.765254
      pz      :     1.052353  p :     3.064984
      px      :     1.012872
      py      :     0.999758
      dz2     :     0.084242  d :     0.426542
      dxz     :     0.073921
      dyz     :     0.122724
      dx2y2   :     0.096360
      dxy     :     0.049295
      f0      :     0.007527  f :     0.043856
      f+1     :     0.008458
      f-1     :     0.007420
      f+2     :     0.004597
      f-2     :     0.006500
      f+3     :     0.005619
      f-3     :     0.003734
  1 C s       :     2.782720  s :     2.782720
      pz      :     1.037035  p :     3.229713
      px      :     1.126094
      py      :     1.066584
      dz2     :     0.071105  d :     0.278174
      dxz     :     0.065376
      dyz     :     0.072113
      dx2y2   :     0.049990
      dxy     :     0.019591
      f0      :     0.006278  f :     0.030202
      f+1     :     0.005950
      f-1     :     0.006523
      f+2     :     0.002010
      f-2     :     0.004981
      f+3     :     0.001044
      f-3     :     0.003416
  2 C s       :     2.772985  s :     2.772985
      pz      :     1.026212  p :     3.051922
      px      :     0.985948
      py      :     1.039762
      dz2     :     0.045402  d :     0.394070
      dxz     :     0.072481
      dyz     :     0.089954
      dx2y2   :     0.093970
      dxy     :     0.092263
      f0      :     0.003307  f :     0.038725
      f+1     :     0.005430
      f-1     :     0.004818
      f+2     :     0.005096
      f-2     :     0.004519
      f+3     :     0.006302
      f-3     :     0.009252
  3 C s       :     2.787390  s :     2.787390
      pz      :     1.001420  p :     3.057826
      px      :     1.022631
      py      :     1.033776
      dz2     :     0.041558  d :     0.354056
      dxz     :     0.108282
      dyz     :     0.062161
      dx2y2   :     0.077242
      dxy     :     0.064813
      f0      :     0.004873  f :     0.034531
      f+1     :     0.006880
      f-1     :     0.002358
      f+2     :     0.006080
      f-2     :     0.003655
      f+3     :     0.004145
      f-3     :     0.006540
  4 C s       :     2.783793  s :     2.783793
      pz      :     0.949366  p :     2.562145
      px      :     0.849826
      py      :     0.762953
      dz2     :     0.192084  d :     0.954182
      dxz     :     0.247089
      dyz     :     0.139849
      dx2y2   :     0.180973
      dxy     :     0.194187
      f0      :     0.032288  f :     0.180567
      f+1     :     0.021524
      f-1     :     0.017835
      f+2     :     0.020121
      f-2     :     0.031553
      f+3     :     0.033869
      f-3     :     0.023377
  5 H s       :     0.781402  s :     0.781402
      pz      :     0.022500  p :     0.059630
      px      :     0.013631
      py      :     0.023499
  6 H s       :     0.792620  s :     0.792620
      pz      :     0.016815  p :     0.059827
      px      :     0.013044
      py      :     0.029968
  7 H s       :     0.828893  s :     0.828893
      pz      :     0.017142  p :     0.072802
      px      :     0.021865
      py      :     0.033795
  8 H s       :     0.748313  s :     0.748313
      pz      :     0.019514  p :     0.181037
      px      :     0.124102
      py      :     0.037421
  9 H s       :     0.826786  s :     0.826786
      pz      :     0.023464  p :     0.072520
      px      :     0.026979
      py      :     0.022077
 10 F s       :     3.512484  s :     3.512484
      pz      :     1.754264  p :     5.052278
      px      :     1.615166
      py      :     1.682848
      dz2     :     0.005276  d :     0.041708
      dxz     :     0.009400
      dyz     :     0.002712
      dx2y2   :     0.011877
      dxy     :     0.012444
      f0      :     0.000282  f :     0.002417
      f+1     :     0.000357
      f-1     :     0.000110
      f+2     :     0.000189
      f-2     :     0.000338
      f+3     :     0.000527
      f-3     :     0.000615
 11 O s       :     3.434723  s :     3.434723
      pz      :     1.489069  p :     4.410382
      px      :     1.555624
      py      :     1.365689
      dz2     :     0.016252  d :     0.068347
      dxz     :     0.010277
      dyz     :     0.019533
      dx2y2   :     0.008798
      dxy     :     0.013488
      f0      :     0.000592  f :     0.005472
      f+1     :     0.000888
      f-1     :     0.001316
      f+2     :     0.000687
      f-2     :     0.001103
      f+3     :     0.000297
      f-3     :     0.000590
 12 H s       :     0.810375  s :     0.810375
      pz      :     0.019392  p :     0.057458
      px      :     0.016200
      py      :     0.021866
 13 H s       :     0.812306  s :     0.812306
      pz      :     0.013996  p :     0.057860
      px      :     0.031799
      py      :     0.012065
 14 H s       :     0.799561  s :     0.799561
      pz      :     0.023741  p :     0.057665
      px      :     0.012989
      py      :     0.020936
 15 H s       :     0.801538  s :     0.801538
      pz      :     0.026210  p :     0.057956
      px      :     0.016907
      py      :     0.014839


                      *****************************
                      * MAYER POPULATION ANALYSIS *
                      *****************************

  NA   - Mulliken gross atomic population
  ZA   - Total nuclear charge
  QA   - Mulliken gross atomic charge
  VA   - Mayer's total valence
  BVA  - Mayer's bonded valence
  FA   - Mayer's free valence

  ATOM       NA         ZA         QA         VA         BVA        FA
  0 C      6.1662     6.0000    -0.1662     3.8097     3.8097     0.0000
  1 C      6.4117     6.0000    -0.4117     3.7517     3.7517    -0.0000
  2 C      6.1900     6.0000    -0.1900     3.8368     3.8368    -0.0000
  3 C      6.2892     6.0000    -0.2892     3.8171     3.8171    -0.0000
  4 C      5.6292     6.0000     0.3708     4.1959     4.1959     0.0000
  5 H      0.8587     1.0000     0.1413     0.9671     0.9671    -0.0000
  6 H      0.8629     1.0000     0.1371     0.9666     0.9666    -0.0000
  7 H      0.9091     1.0000     0.0909     0.9774     0.9774    -0.0000
  8 H      0.8065     1.0000     0.1935     1.0102     1.0102    -0.0000
  9 H      0.9112     1.0000     0.0888     0.9725     0.9725    -0.0000
 10 F      9.0536     9.0000    -0.0536     1.2483     1.2483    -0.0000
 11 O      8.3054     8.0000    -0.3054     2.0303     2.0303     0.0000
 12 H      0.9226     1.0000     0.0774     0.9647     0.9647     0.0000
 13 H      0.9087     1.0000     0.0913     0.9632     0.9632    -0.0000
 14 H      0.8868     1.0000     0.1132     0.9687     0.9687    -0.0000
 15 H      0.8881     1.0000     0.1119     0.9632     0.9632     0.0000

  Mayer bond orders larger than 0.100000
B(  0-C ,  1-C ) :   0.9315 B(  0-C ,  2-C ) :   0.9461 B(  0-C , 12-H ) :   0.9793 
B(  0-C , 13-H ) :   0.9792 B(  1-C ,  7-H ) :   0.9894 B(  1-C ,  8-H ) :   0.9311 
B(  1-C ,  9-H ) :   0.9856 B(  2-C ,  3-C ) :   0.9463 B(  2-C , 14-H ) :   0.9772 
B(  2-C , 15-H ) :   0.9740 B(  3-C ,  4-C ) :   0.9962 B(  3-C ,  5-H ) :   0.9353 
B(  3-C ,  6-H ) :   0.9660 B(  4-C , 10-F ) :   1.2250 B(  4-C , 11-O ) :   1.9484 


-------
TIMINGS
-------

Total SCF time: 0 days 0 hours 0 min 19 sec 

Total time                  ....      19.532 sec
Sum of individual times     ....      19.178 sec  ( 98.2%)

Fock matrix formation       ....      17.962 sec  ( 92.0%)
  Split-RI-J                ....       1.682 sec  (  9.4% of F)
  Chain of spheres X        ....      14.649 sec  ( 81.6% of F)
  XC integration            ....       1.528 sec  (  8.5% of F)
    Basis function eval.    ....       0.418 sec  ( 27.3% of XC)
    Density eval.           ....       0.348 sec  ( 22.8% of XC)
    XC-Functional eval.     ....       0.163 sec  ( 10.7% of XC)
    XC-Potential eval.      ....       0.382 sec  ( 25.0% of XC)
Diagonalization             ....       0.144 sec  (  0.7%)
Density matrix formation    ....       0.014 sec  (  0.1%)
Population analysis         ....       0.026 sec  (  0.1%)
Initial guess               ....       0.124 sec  (  0.6%)
Orbital Transformation      ....       0.000 sec  (  0.0%)
Orbital Orthonormalization  ....       0.000 sec  (  0.0%)
DIIS solution               ....       0.090 sec  (  0.5%)
SOSCF solution              ....       0.112 sec  (  0.6%)
Grid generation             ....       0.705 sec  (  3.6%)

Maximum memory used throughout the entire SCF-calculation: 74.0 MB

-------------------------   --------------------
FINAL SINGLE POINT ENERGY      -370.939088925868
-------------------------   --------------------


                            ***************************************
                            *     ORCA property calculations      *
                            ***************************************

                                    ---------------------
                                    Active property flags
                                    ---------------------
   (+) Dipole Moment


------------------------------------------------------------------------------
                       ORCA ELECTRIC PROPERTIES CALCULATION
------------------------------------------------------------------------------

Dipole Moment Calculation                       ... on
Quadrupole Moment Calculation                   ... off
Polarizability Calculation                      ... off
GBWName                                         ... CAMB3LYP_D1_wb97.gbw
Electron density file                           ... CAMB3LYP_D1_wb97.scfp
The origin for moment calculation is the CENTER OF MASS  = (-2.333312,  3.627128 -6.111704)

-------------
DIPOLE MOMENT
-------------
                                X             Y             Z
Electronic contribution:    -13.01142       4.59661       1.40375
Nuclear contribution   :     12.79331      -3.91961      -2.45895
                        -----------------------------------------
Total Dipole Moment    :     -0.21811       0.67700      -1.05519
                        -----------------------------------------
Magnitude (a.u.)       :      1.27253
Magnitude (Debye)      :      3.23450



--------------------
Rotational spectrum 
--------------------
 
Rotational constants in cm-1:     0.162888     0.059977     0.046450 
Rotational constants in MHz :  4883.250030  1798.063289  1392.548669 

 Dipole components along the rotational axes: 
x,y,z [a.u.] :    -0.461655     1.181421    -0.102189 
x,y,z [Debye]:    -1.173435     3.002933    -0.259744 

 

Timings for individual modules:

Sum of individual times         ...       21.218 sec (=   0.354 min)
GTO integral calculation        ...        1.213 sec (=   0.020 min)   5.7 %
SCF iterations                  ...       20.005 sec (=   0.333 min)  94.3 %
                             ****ORCA TERMINATED NORMALLY****
TOTAL RUN TIME: 0 days 0 hours 0 minutes 21 seconds 807 msec
