
                                        *****************
                                        * O   R   C   A *
                                        *****************

                                            #,                                       
                                            ###                                      
                                            ####                                     
                                            #####                                    
                                            ######                                   
                                           ########,                                 
                                     ,,################,,,,,                         
                               ,,#################################,,                 
                          ,,##########################################,,             
                       ,#########################################, ''#####,          
                    ,#############################################,,   '####,        
                  ,##################################################,,,,####,       
                ,###########''''           ''''###############################       
              ,#####''   ,,,,##########,,,,          '''####'''          '####       
            ,##' ,,,,###########################,,,                        '##       
           ' ,,###''''                  '''############,,,                           
         ,,##''                                '''############,,,,        ,,,,,,###''
      ,#''                                            '''#######################'''  
     '                                                          ''''####''''         
             ,#######,   #######,   ,#######,      ##                                
            ,#'     '#,  ##    ##  ,#'     '#,    #''#        ######   ,####,        
            ##       ##  ##   ,#'  ##            #'  '#       #        #'  '#        
            ##       ##  #######   ##           ,######,      #####,   #    #        
            '#,     ,#'  ##    ##  '#,     ,#' ,#      #,         ##   #,  ,#        
             '#######'   ##     ##  '#######'  #'      '#     #####' # '####'        



                  #######################################################
                  #                        -***-                        #
                  #          Department of theory and spectroscopy      #
                  #    Directorship and core code : Frank Neese         #
                  #        Max Planck Institute fuer Kohlenforschung    #
                  #                Kaiser Wilhelm Platz 1               #
                  #                 D-45470 Muelheim/Ruhr               #
                  #                      Germany                        #
                  #                                                     #
                  #                  All rights reserved                #
                  #                        -***-                        #
                  #######################################################


                         Program Version 5.0.0 -  RELEASE  -
                                (SVN: $Rev: 19529$)
                ($Date: 2021-06-28 11:36:33 +0200 (Mo, 28 Jun 2021) $)


 With contributions from (in alphabetic order):
   Daniel Aravena         : Magnetic Suceptibility
   Michael Atanasov       : Ab Initio Ligand Field Theory (pilot matlab implementation)
   Alexander A. Auer      : GIAO ZORA, VPT2 properties, NMR spectrum
   Ute Becker             : Parallelization
   Giovanni Bistoni       : ED, misc. LED, open-shell LED, HFLD
   Martin Brehm           : Molecular dynamics
   Dmytro Bykov           : SCF Hessian
   Vijay G. Chilkuri      : MRCI spin determinant printing, contributions to CSF-ICE
   Dipayan Datta          : RHF DLPNO-CCSD density
   Achintya Kumar Dutta   : EOM-CC, STEOM-CC
   Dmitry Ganyushin       : Spin-Orbit,Spin-Spin,Magnetic field MRCI
   Miquel Garcia          : C-PCM Hessian, Gaussian charge scheme
   Yang Guo               : DLPNO-NEVPT2, F12-NEVPT2, CIM, IAO-localization
   Andreas Hansen         : Spin unrestricted coupled pair/coupled cluster methods
   Benjamin Helmich-Paris : MC-RPA, TRAH-SCF, COSX integrals
   Lee Huntington         : MR-EOM, pCC
   Robert Izsak           : Overlap fitted RIJCOSX, COSX-SCS-MP3, EOM
   Marcus Kettner         : VPT2
   Christian Kollmar      : KDIIS, OOCD, Brueckner-CCSD(T), CCSD density, CASPT2, CASPT2-K
   Simone Kossmann        : Meta GGA functionals, TD-DFT gradient, OOMP2, MP2 Hessian
   Martin Krupicka        : Initial AUTO-CI
   Lucas Lang             : DCDCAS
   Marvin Lechner         : AUTO-CI (C++ implementation), FIC-MRCC
   Dagmar Lenk            : GEPOL surface, SMD
   Dimitrios Liakos       : Extrapolation schemes; Compound Job, initial MDCI parallelization
   Dimitrios Manganas     : Further ROCIS development; embedding schemes
   Dimitrios Pantazis     : SARC Basis sets
   Anastasios Papadopoulos: AUTO-CI, single reference methods and gradients
   Taras Petrenko         : DFT Hessian,TD-DFT gradient, ASA, ECA, R-Raman, ABS, FL, XAS/XES, NRVS
   Peter Pinski           : DLPNO-MP2, DLPNO-MP2 Gradient
   Christoph Reimann      : Effective Core Potentials
   Marius Retegan         : Local ZFS, SOC
   Christoph Riplinger    : Optimizer, TS searches, QM/MM, DLPNO-CCSD(T), (RO)-DLPNO pert. Triples
   Tobias Risthaus        : Range-separated hybrids, TD-DFT gradient, RPA, STAB
   Michael Roemelt        : Original ROCIS implementation
   Masaaki Saitow         : Open-shell DLPNO-CCSD energy and density
   Barbara Sandhoefer     : DKH picture change effects
   Avijit Sen             : IP-ROCIS
   Kantharuban Sivalingam : CASSCF convergence, NEVPT2, FIC-MRCI
   Bernardo de Souza      : ESD, SOC TD-DFT
   Georgi Stoychev        : AutoAux, RI-MP2 NMR
   Willem Van den Heuvel  : Paramagnetic NMR
   Boris Wezisla          : Elementary symmetry handling
   Frank Wennmohs         : Technical directorship


 We gratefully acknowledge several colleagues who have allowed us to
 interface, adapt or use parts of their codes:
   Stefan Grimme, W. Hujo, H. Kruse, P. Pracht,  : VdW corrections, initial TS optimization,
                  C. Bannwarth, S. Ehlert          DFT functionals, gCP, sTDA/sTD-DF
   Ed Valeev, F. Pavosevic, A. Kumar             : LibInt (2-el integral package), F12 methods
   Garnet Chan, S. Sharma, J. Yang, R. Olivares  : DMRG
   Ulf Ekstrom                                   : XCFun DFT Library
   Mihaly Kallay                                 : mrcc  (arbitrary order and MRCC methods)
   Jiri Pittner, Ondrej Demel                    : Mk-CCSD
   Frank Weinhold                                : gennbo (NPA and NBO analysis)
   Christopher J. Cramer and Donald G. Truhlar   : smd solvation model
   Lars Goerigk                                  : TD-DFT with DH, B97 family of functionals
   V. Asgeirsson, H. Jonsson                     : NEB implementation
   FAccTs GmbH                                   : IRC, NEB, NEB-TS, DLPNO-Multilevel, CI-OPT
                                                   MM, QMMM, 2- and 3-layer-ONIOM, Crystal-QMMM,
                                                   LR-CPCM, SF, NACMEs, symmetry and pop. for TD-DFT,
                                                   nearIR, NL-DFT gradient (VV10), updates on ESD,
                                                   ML-optimized integration grids
   S Lehtola, MJT Oliveira, MAL Marques          : LibXC Library
   Liviu Ungur et al                             : ANISO software


 Your calculation uses the libint2 library for the computation of 2-el integrals
 For citations please refer to: http://libint.valeyev.net

 Your ORCA version has been built with support for libXC version: 5.1.0
 For citations please refer to: https://tddft.org/programs/libxc/

 This ORCA versions uses:
   CBLAS   interface :  Fast vector & matrix operations
   LAPACKE interface :  Fast linear algebra routines
   SCALAPACK package :  Parallel linear algebra routines
   Shared memory     :  Shared parallel matrices
   BLAS/LAPACK       :  OpenBLAS 0.3.15  USE64BITINT DYNAMIC_ARCH NO_AFFINITY Haswell SINGLE_THREADED
        Core in use  :  Haswell
   Copyright (c) 2011-2014, The OpenBLAS Project


Your calculation utilizes the atom-pairwise dispersion correction
with the Becke-Johnson damping scheme (D3BJ)
Cite in your paper:
S.Grimme, S.Ehrlich, L.Goerigk, J Comput Chem, (2011), 32, 1456–1465 
S.Grimme, J.Antony, S.Ehrlich and H.Krieg, J.Chem.Phys., 132, (2010), 154104 
   

================================================================================

----- Orbital basis set information -----
Your calculation utilizes the basis: def2-TZVPD
   F. Weigend and R. Ahlrichs, Phys. Chem. Chem. Phys. 7, 3297 (2005).
   D. Rappoport and F. Furche, J. Chem. Phys. 133 134105 (2010).

----- AuxJ basis set information -----
Your calculation utilizes the auxiliary basis: def2/J
   F. Weigend, Phys. Chem. Chem. Phys. 8, 1057 (2006).

================================================================================
                                        WARNINGS
                       Please study these warnings very carefully!
================================================================================


INFO   : the flag for use of the SHARK integral package has been found!

================================================================================
                                       INPUT FILE
================================================================================
NAME = TZVPD_B3LYP_C2_wt_dlpno_pos.com
|  1> !B3LYP D3BJ RIJCOSX def2-TZVPD def2/J TightSCF
|  2> *xyz 0 1 
|  3> C          3.90595        2.81985       -3.75292
|  4> N          5.29562        3.13151       -4.10533
|  5> C          3.80351        1.37472       -3.26081
|  6> C          5.70862        3.46889       -5.32419
|  7> C          6.90470        3.03895       -5.71708
|  8> N          4.98188        4.29357       -6.09746
|  9> H          5.00055        4.10131       -7.08776
| 10> H          4.08469        4.59690       -5.73965
| 11> H          5.96336        2.52611       -3.64239
| 12> H          7.04716        2.06686       -5.47360
| 13> H          7.19815        3.30799       -6.64523
| 14> H          3.28202        2.94919       -4.64026
| 15> H          3.56525        3.51457       -2.98252
| 16> H          4.14157        0.71142       -4.02935
| 17> H          2.78528        1.15146       -3.01944
| 18> H          4.41205        1.25066       -2.38949
| 19> *
| 20> 
| 21> %MaxCore 64000
| 22> 
| 23> %pal nprocs 4
| 24> end  
| 25> 
| 26> %scf
| 27>   MaxIter 150
| 28> end
| 29> 
| 30> 
| 31>                          ****END OF INPUT****
================================================================================

                       ****************************
                       * Single Point Calculation *
                       ****************************

---------------------------------
CARTESIAN COORDINATES (ANGSTROEM)
---------------------------------
  C      3.905950    2.819850   -3.752920
  N      5.295620    3.131510   -4.105330
  C      3.803510    1.374720   -3.260810
  C      5.708620    3.468890   -5.324190
  C      6.904700    3.038950   -5.717080
  N      4.981880    4.293570   -6.097460
  H      5.000550    4.101310   -7.087760
  H      4.084690    4.596900   -5.739650
  H      5.963360    2.526110   -3.642390
  H      7.047160    2.066860   -5.473600
  H      7.198150    3.307990   -6.645230
  H      3.282020    2.949190   -4.640260
  H      3.565250    3.514570   -2.982520
  H      4.141570    0.711420   -4.029350
  H      2.785280    1.151460   -3.019440
  H      4.412050    1.250660   -2.389490

----------------------------
CARTESIAN COORDINATES (A.U.)
----------------------------
  NO LB      ZA    FRAG     MASS         X           Y           Z
   0 C     6.0000    0    12.011    7.381176    5.328744   -7.091991
   1 N     7.0000    0    14.007   10.007272    5.917696   -7.757949
   2 C     6.0000    0    12.011    7.187592    2.597844   -6.162038
   3 C     6.0000    0    12.011   10.787728    6.555252  -10.061261
   4 C     6.0000    0    12.011   13.047992    5.742783  -10.803715
   5 N     7.0000    0    14.007    9.414389    8.113671  -11.522530
   6 H     1.0000    0     1.008    9.449670    7.750353  -13.393925
   7 H     1.0000    0     1.008    7.718945    8.686882  -10.846367
   8 H     1.0000    0     1.008   11.269117    4.773656   -6.883120
   9 H     1.0000    0     1.008   13.317202    3.905799  -10.343605
  10 H     1.0000    0     1.008   13.602532    6.251195  -12.557665
  11 H     1.0000    0     1.008    6.202119    5.573161   -8.768821
  12 H     1.0000    0     1.008    6.737346    6.641575   -5.636146
  13 H     1.0000    0     1.008    7.826433    1.344389   -7.614368
  14 H     1.0000    0     1.008    5.263416    2.175944   -5.705915
  15 H     1.0000    0     1.008    8.337566    2.363405   -4.515482

--------------------------------
INTERNAL COORDINATES (ANGSTROEM)
--------------------------------
 C      0   0   0     0.000000000000     0.00000000     0.00000000
 N      1   0   0     1.467142621765     0.00000000     0.00000000
 C      1   2   0     1.530054548897   109.95659769     0.00000000
 C      2   1   3     1.330418717547   124.60848250   117.82477566
 C      4   2   1     1.330345189077   117.88568818   216.04039772
 N      4   2   1     1.343947403324   120.98879030    40.55692244
 H      6   4   2     1.008963114539   115.96332282   215.01866637
 H      6   4   2     1.012416406969   117.36806711   356.14703280
 H      2   1   3     1.013261719005   112.80142721   337.30547611
 H      5   4   2     1.012193820422   111.46134138    44.03787504
 H      5   4   2     1.009929624578   116.52326395   180.07681422
 H      1   2   3     1.092423798761   108.70677307   240.06289078
 H      1   2   3     1.091892178010   109.26095115   121.65707238
 H      3   1   2     1.070002422988   109.47110748   300.80763943
 H      3   1   2     1.069998522149   109.47155819   180.80728714
 H      3   1   2     1.070004839989   109.47149351    60.80749791

---------------------------
INTERNAL COORDINATES (A.U.)
---------------------------
 C      0   0   0     0.000000000000     0.00000000     0.00000000
 N      1   0   0     2.772497754539     0.00000000     0.00000000
 C      1   2   0     2.891384067376   109.95659769     0.00000000
 C      2   1   3     2.514127019607   124.60848250   117.82477566
 C      4   2   1     2.513988070935   117.88568818   216.04039772
 N      4   2   1     2.539692530676   120.98879030    40.55692244
 H      6   4   2     1.906663965707   115.96332282   215.01866637
 H      6   4   2     1.913189742660   117.36806711   356.14703280
 H      2   1   3     1.914787150905   112.80142721   337.30547611
 H      5   4   2     1.912769115045   111.46134138    44.03787504
 H      5   4   2     1.908490404986   116.52326395   180.07681422
 H      1   2   3     2.064381801837   108.70677307   240.06289078
 H      1   2   3     2.063377184210   109.26095115   121.65707238
 H      3   1   2     2.022011542079   109.47110748   300.80763943
 H      3   1   2     2.022004170561   109.47155819   180.80728714
 H      3   1   2     2.022016109550   109.47149351    60.80749791

---------------------
BASIS SET INFORMATION
---------------------
There are 3 groups of distinct atoms

 Group   1 Type C   : 12s6p3d1f contracted to 6s3p3d1f pattern {621111/411/111/1}
 Group   2 Type N   : 12s6p3d1f contracted to 6s3p3d1f pattern {621111/411/111/1}
 Group   3 Type H   : 5s2p contracted to 3s2p pattern {311/11}

Atom   0C    basis set group =>   1
Atom   1N    basis set group =>   2
Atom   2C    basis set group =>   1
Atom   3C    basis set group =>   1
Atom   4C    basis set group =>   1
Atom   5N    basis set group =>   2
Atom   6H    basis set group =>   3
Atom   7H    basis set group =>   3
Atom   8H    basis set group =>   3
Atom   9H    basis set group =>   3
Atom  10H    basis set group =>   3
Atom  11H    basis set group =>   3
Atom  12H    basis set group =>   3
Atom  13H    basis set group =>   3
Atom  14H    basis set group =>   3
Atom  15H    basis set group =>   3
---------------------------------
AUXILIARY/J BASIS SET INFORMATION
---------------------------------
There are 3 groups of distinct atoms

 Group   1 Type C   : 12s5p4d2f1g contracted to 6s4p3d1f1g pattern {711111/2111/211/2/1}
 Group   2 Type N   : 12s5p4d2f1g contracted to 6s4p3d1f1g pattern {711111/2111/211/2/1}
 Group   3 Type H   : 5s2p1d contracted to 3s1p1d pattern {311/2/1}

Atom   0C    basis set group =>   1
Atom   1N    basis set group =>   2
Atom   2C    basis set group =>   1
Atom   3C    basis set group =>   1
Atom   4C    basis set group =>   1
Atom   5N    basis set group =>   2
Atom   6H    basis set group =>   3
Atom   7H    basis set group =>   3
Atom   8H    basis set group =>   3
Atom   9H    basis set group =>   3
Atom  10H    basis set group =>   3
Atom  11H    basis set group =>   3
Atom  12H    basis set group =>   3
Atom  13H    basis set group =>   3
Atom  14H    basis set group =>   3
Atom  15H    basis set group =>   3


           ************************************************************
           *        Program running with 4 parallel MPI-processes     *
           *              working on a common directory               *
           ************************************************************
------------------------------------------------------------------------------
                           ORCA GTO INTEGRAL CALCULATION
                           -- RI-GTO INTEGRALS CHOSEN --
------------------------------------------------------------------------------
------------------------------------------------------------------------------
                   ___                                                        
                  /   \      - P O W E R E D   B Y -                         
                 /     \                                                     
                 |  |  |   _    _      __       _____    __    __             
                 |  |  |  | |  | |    /  \     |  _  \  |  |  /  |          
                  \  \/   | |  | |   /    \    | | | |  |  | /  /          
                 / \  \   | |__| |  /  /\  \   | |_| |  |  |/  /          
                |  |  |   |  __  | /  /__\  \  |    /   |      \           
                |  |  |   | |  | | |   __   |  |    \   |  |\   \          
                \     /   | |  | | |  |  |  |  | |\  \  |  | \   \       
                 \___/    |_|  |_| |__|  |__|  |_| \__\ |__|  \__/        
                                                                              
                      - O R C A' S   B I G   F R I E N D -                    
                                      &                                       
                       - I N T E G R A L  F E E D E R -                       
                                                                              
 v1 FN, 2020, v2 2021                                                         
------------------------------------------------------------------------------


Reading SHARK input file TZVPD_B3LYP_C2_wt_dlpno_pos.SHARKINP.tmp ... ok
----------------------
SHARK INTEGRAL PACKAGE
----------------------

Number of atoms                             ...     16
Number of basis functions                   ...    312
Number of shells                            ...    128
Maximum angular momentum                    ...      3
Integral batch strategy                     ... SHARK/LIBINT Hybrid
RI-J (if used) integral strategy            ... SPLIT-RIJ (Revised 2003 algorithm where possible)
Printlevel                                  ...      1
Contraction scheme used                     ... SEGMENTED contraction
Coulomb Range Separation                    ... NOT USED
Exchange Range Separation                   ... NOT USED
Finite Nucleus Model                        ... NOT USED
Auxiliary Coulomb fitting basis             ... AVAILABLE
   # of basis functions in Aux-J            ...    404
   # of shells in Aux-J                     ...    140
   Maximum angular momentum in Aux-J        ...      4
Auxiliary J/K fitting basis                 ... NOT available
Auxiliary Correlation fitting basis         ... NOT available
Auxiliary 'external' fitting basis          ... NOT available
Integral threshold                          ...     2.500000e-11
Primitive cut-off                           ...     2.500000e-12
Primitive pair pre-selection threshold      ...     2.500000e-12

Calculating pre-screening integrals         ... done (  0.1 sec) Dimension = 128
Organizing shell pair data                  ... done (  0.1 sec)
Shell pair information
Total number of shell pairs                 ...      8256
Shell pairs after pre-screening             ...      7905
Total number of primitive shell pairs       ...     20665
Primitive shell pairs kept                  ...     16201
          la=0 lb=0:   2057 shell pairs
          la=1 lb=0:   2403 shell pairs
          la=1 lb=1:    725 shell pairs
          la=2 lb=0:   1152 shell pairs
          la=2 lb=1:    673 shell pairs
          la=2 lb=2:    169 shell pairs
          la=3 lb=0:    374 shell pairs
          la=3 lb=1:    224 shell pairs
          la=3 lb=2:    107 shell pairs
          la=3 lb=3:     21 shell pairs

Calculating one electron integrals          ... done (  0.0 sec)
Calculating RI/J V-Matrix + Cholesky decomp.... done (  0.0 sec)
Calculating Nuclear repulsion               ... done (  0.0 sec) ENN=    248.153704387057 Eh

SHARK setup successfully completed in   0.4 seconds

Maximum memory used throughout the entire GTOINT-calculation: 14.0 MB


           ************************************************************
           *        Program running with 4 parallel MPI-processes     *
           *              working on a common directory               *
           ************************************************************
-------------------------------------------------------------------------------
                                 ORCA SCF
-------------------------------------------------------------------------------

------------
SCF SETTINGS
------------
Hamiltonian:
 Density Functional     Method          .... DFT(GTOs)
 Exchange Functional    Exchange        .... B88
   X-Alpha parameter    XAlpha          ....  0.666667
   Becke's b parameter  XBeta           ....  0.004200
 Correlation Functional Correlation     .... LYP
 LDA part of GGA corr.  LDAOpt          .... VWN-5
 Gradients option       PostSCFGGA      .... off
 Hybrid DFT is turned on
   Fraction HF Exchange ScalHFX         ....  0.200000
   Scaling of DF-GGA-X  ScalDFX         ....  0.720000
   Scaling of DF-GGA-C  ScalDFC         ....  0.810000
   Scaling of DF-LDA-C  ScalLDAC        ....  1.000000
   Perturbative correction              ....  0.000000
   Density functional embedding theory  .... OFF
   NL short-range parameter             ....  4.800000
 RI-approximation to the Coulomb term is turned on
   Number of AuxJ basis functions       .... 404
   RIJ-COSX (HFX calculated with COS-X)).... on


General Settings:
 Integral files         IntName         .... TZVPD_B3LYP_C2_wt_dlpno_pos
 Hartree-Fock type      HFTyp           .... RHF
 Total Charge           Charge          ....    0
 Multiplicity           Mult            ....    1
 Number of Electrons    NEL             ....   48
 Basis Dimension        Dim             ....  312
 Nuclear Repulsion      ENuc            ....    248.1537043871 Eh

Convergence Acceleration:
 DIIS                   CNVDIIS         .... on
   Start iteration      DIISMaxIt       ....    12
   Startup error        DIISStart       ....  0.200000
   # of expansion vecs  DIISMaxEq       ....     5
   Bias factor          DIISBfac        ....   1.050
   Max. coefficient     DIISMaxC        ....  10.000
 Trust-Rad. Augm. Hess. CNVTRAH         .... auto
   Auto Start mean grad. ratio tolernc. ....  1.125000
   Auto Start start iteration           ....    20
   Auto Start num. interpolation iter.  ....    10
   Max. Number of Micro iterations      ....    16
   Max. Number of Macro iterations      .... Maxiter - #DIIS iter
   Number of Davidson start vectors     ....     2
   Converg. threshold I  (grad. norm)   ....   1.000e-05
   Converg. threshold II (energy diff.) ....   1.000e-08
   Grad. Scal. Fac. for Micro threshold ....   0.100
   Minimum threshold for Micro iter.    ....   0.010
   NR start threshold (gradient norm)   ....   0.001
   Initial trust radius                 ....   0.400
   Minimum AH scaling param. (alpha)    ....   1.000
   Maximum AH scaling param. (alpha)    .... 1000.000
   Orbital update algorithm             .... Taylor
   White noise on init. David. guess    .... on
   Maximum white noise                  ....   0.010
   Quad. conv. algorithm                .... NR
 SOSCF                  CNVSOSCF        .... on
   Start iteration      SOSCFMaxIt      ....   150
   Startup grad/error   SOSCFStart      ....  0.003300
 Level Shifting         CNVShift        .... on
   Level shift para.    LevelShift      ....    0.2500
   Turn off err/grad.   ShiftErr        ....    0.0010
 Zerner damping         CNVZerner       .... off
 Static damping         CNVDamp         .... on
   Fraction old density DampFac         ....    0.7000
   Max. Damping (<1)    DampMax         ....    0.9800
   Min. Damping (>=0)   DampMin         ....    0.0000
   Turn off err/grad.   DampErr         ....    0.1000
 Fernandez-Rico         CNVRico         .... off

SCF Procedure:
 Maximum # iterations   MaxIter         ....   150
 SCF integral mode      SCFMode         .... Direct
   Integral package                     .... SHARK and LIBINT hybrid scheme
 Reset frequency        DirectResetFreq ....    20
 Integral Threshold     Thresh          ....  2.500e-11 Eh
 Primitive CutOff       TCut            ....  2.500e-12 Eh

Convergence Tolerance:
 Convergence Check Mode ConvCheckMode   .... Total+1el-Energy
 Convergence forced     ConvForced      .... 0
 Energy Change          TolE            ....  1.000e-08 Eh
 1-El. energy change                    ....  1.000e-05 Eh
 Orbital Gradient       TolG            ....  1.000e-05
 Orbital Rotation angle TolX            ....  1.000e-05
 DIIS Error             TolErr          ....  5.000e-07


Diagonalization of the overlap matrix:
Smallest eigenvalue                        ... 4.705e-06
Time for diagonalization                   ...    0.020 sec
Threshold for overlap eigenvalues          ... 1.000e-08
Number of eigenvalues below threshold      ... 0
Time for construction of square roots      ...    0.015 sec
Total time needed                          ...    0.036 sec

Time for model grid setup =    0.141 sec

------------------------------
INITIAL GUESS: MODEL POTENTIAL
------------------------------
Loading Hartree-Fock densities                     ... done
Calculating cut-offs                               ... done
Initializing the effective Hamiltonian             ... done
Setting up the integral package (SHARK)            ... done
Starting the Coulomb interaction                   ... done (   0.1 sec)
Reading the grid                                   ... done
Mapping shells                                     ... done
Starting the XC term evaluation                    ... done (   0.2 sec)
  promolecular density results
     # of electrons  =     47.995412913
     EX              =    -36.781859726
     EC              =     -1.576788540
     EX+EC           =    -38.358648266
Transforming the Hamiltonian                       ... done (   0.0 sec)
Diagonalizing the Hamiltonian                      ... done (   0.0 sec)
Back transforming the eigenvectors                 ... done (   0.0 sec)
Now organizing SCF variables                       ... done
                      ------------------
                      INITIAL GUESS DONE (   0.5 sec)
                      ------------------
-------------------
DFT GRID GENERATION
-------------------

General Integration Accuracy     IntAcc      ... 4.388
Radial Grid Type                 RadialGrid  ... OptM3 with GC (2021)
Angular Grid (max. ang.)         AngularGrid ... 4 (Lebedev-302)
Angular grid pruning method      GridPruning ... 4 (adaptive)
Weight generation scheme         WeightScheme... Becke
Basis function cutoff            BFCut       ... 1.0000e-11
Integration weight cutoff        WCut        ... 1.0000e-14
Angular grids for H and He will be reduced by one unit
Partially contracted basis set               ... off
Rotationally invariant grid construction     ... off

Total number of grid points                  ...    71889
Total number of batches                      ...     1132
Average number of points per batch           ...       63
Average number of grid points per atom       ...     4493
Time for grid setup =    0.507 sec

--------------------
COSX GRID GENERATION
--------------------

GRIDX 1
-------
General Integration Accuracy     IntAcc      ... 3.816
Radial Grid Type                 RadialGrid  ... OptM3 with GC (2021)
Angular Grid (max. ang.)         AngularGrid ... 1 (Lebedev-50)
Angular grid pruning method      GridPruning ... 4 (adaptive)
Weight generation scheme         WeightScheme... Becke
Basis function cutoff            BFCut       ... 1.0000e-11
Integration weight cutoff        WCut        ... 1.0000e-14
Angular grids for H and He will be reduced by one unit
Partially contracted basis set               ... on
Rotationally invariant grid construction     ... off

Total number of grid points                  ...     9004
Total number of batches                      ...      149
Average number of points per batch           ...       60
Average number of grid points per atom       ...      563
UseSFitting                                  ... on

GRIDX 2
-------
General Integration Accuracy     IntAcc      ... 4.020
Radial Grid Type                 RadialGrid  ... OptM3 with GC (2021)
Angular Grid (max. ang.)         AngularGrid ... 2 (Lebedev-110)
Angular grid pruning method      GridPruning ... 4 (adaptive)
Weight generation scheme         WeightScheme... Becke
Basis function cutoff            BFCut       ... 1.0000e-11
Integration weight cutoff        WCut        ... 1.0000e-14
Angular grids for H and He will be reduced by one unit
Partially contracted basis set               ... on
Rotationally invariant grid construction     ... off

Total number of grid points                  ...    21152
Total number of batches                      ...      340
Average number of points per batch           ...       62
Average number of grid points per atom       ...     1322
UseSFitting                                  ... on

GRIDX 3
-------
General Integration Accuracy     IntAcc      ... 4.338
Radial Grid Type                 RadialGrid  ... OptM3 with GC (2021)
Angular Grid (max. ang.)         AngularGrid ... 3 (Lebedev-194)
Angular grid pruning method      GridPruning ... 4 (adaptive)
Weight generation scheme         WeightScheme... Becke
Basis function cutoff            BFCut       ... 1.0000e-11
Integration weight cutoff        WCut        ... 1.0000e-14
Angular grids for H and He will be reduced by one unit
Partially contracted basis set               ... on
Rotationally invariant grid construction     ... off

Total number of grid points                  ...    47518
Total number of batches                      ...      750
Average number of points per batch           ...       63
Average number of grid points per atom       ...     2970
UseSFitting                                  ... on

Time for X-Grid setup             =    0.652 sec

--------------
SCF ITERATIONS
--------------
ITER       Energy         Delta-E        Max-DP      RMS-DP      [F,P]     Damp
               ***  Starting incremental Fock matrix formation  ***
  0   -267.5020332760   0.000000000000 0.68824402  0.00397997  0.2588592 0.7000
  1   -267.6578158302  -0.155782554162 0.43964755  0.00302607  0.1325729 0.7000
                               ***Turning on DIIS***
  2   -267.7201203066  -0.062304476435 0.38700037  0.00496442  0.0456881 0.0000
  3   -267.8042537650  -0.084133458374 0.39739364  0.00236519  0.0831137 0.0000
  4   -267.8316108547  -0.027357089773 0.05710756  0.00080970  0.0181063 0.0000
  5   -267.8331138480  -0.001502993228 0.02890762  0.00041785  0.0059828 0.0000
                      *** Initiating the SOSCF procedure ***
                           *** Shutting down DIIS ***
                      *** Re-Reading the Fockian *** 
                      *** Removing any level shift *** 
ITER      Energy       Delta-E        Grad      Rot      Max-DP    RMS-DP
  6   -267.83324028  -0.0001264357  0.000541  0.000541  0.014246  0.000222
               *** Restarting incremental Fock matrix formation ***
  7   -267.83325126  -0.0000109810  0.000206  0.000878  0.014332  0.000222
  8   -267.83325367  -0.0000024020  0.000054  0.000214  0.003797  0.000056
  9   -267.83325385  -0.0000001826  0.000047  0.000138  0.002404  0.000035
 10   -267.83325404  -0.0000001889  0.000025  0.000068  0.000521  0.000008
 11   -267.83325403   0.0000000081  0.000022  0.000031  0.000617  0.000008
                  ***Gradient check signals convergence***
              ***Rediagonalizing the Fockian in SOSCF/NRSCF***

               *****************************************************
               *                     SUCCESS                       *
               *           SCF CONVERGED AFTER  12 CYCLES          *
               *****************************************************

Old exchange energy                            =     -7.536332739 Eh
New exchange energy                            =     -7.536331135 Eh
Exchange energy change after final integration =      0.000001603 Eh
Total energy after final integration           =   -267.833252453 Eh
Final COS-X integration done in                =     6.476 sec

----------------
TOTAL SCF ENERGY
----------------

Total Energy       :         -267.83325245 Eh           -7288.11332 eV

Components:
Nuclear Repulsion  :          248.15370439 Eh            6752.60559 eV
Electronic Energy  :         -515.98695684 Eh          -14040.71891 eV
One Electron Energy:         -852.00822934 Eh          -23184.32259 eV
Two Electron Energy:          336.02127250 Eh            9143.60368 eV
Max COSX asymmetry :            0.00000126 Eh               0.00003 eV

Virial components:
Potential Energy   :         -535.07130969 Eh          -14560.03055 eV
Kinetic Energy     :          267.23805724 Eh            7271.91723 eV
Virial Ratio       :            2.00222721


DFT components:
N(Alpha)           :       23.999985388365 electrons
N(Beta)            :       23.999985388365 electrons
N(Total)           :       47.999970776729 electrons
E(X)               :      -29.915736447870 Eh       
E(C)               :       -1.869687028823 Eh       
E(XC)              :      -31.785423476693 Eh       
DFET-embed. en.    :        0.000000000000 Eh       

---------------
SCF CONVERGENCE
---------------

  Last Energy change         ...   -2.6560e-08  Tolerance :   1.0000e-08
  Last MAX-Density change    ...    1.1102e-15  Tolerance :   1.0000e-07
  Last RMS-Density change    ...    1.6380e-17  Tolerance :   5.0000e-09
  Last Orbital Gradient      ...    1.0413e-06  Tolerance :   1.0000e-05
  Last Orbital Rotation      ...    1.8613e-06  Tolerance :   1.0000e-05

             **** THE GBW FILE WAS UPDATED (TZVPD_B3LYP_C2_wt_dlpno_pos.gbw) ****
             **** DENSITY TZVPD_B3LYP_C2_wt_dlpno_pos.scfp WAS UPDATED ****
             **** ENERGY FILE WAS UPDATED (TZVPD_B3LYP_C2_wt_dlpno_pos.en.tmp) ****
             **** THE GBW FILE WAS UPDATED (TZVPD_B3LYP_C2_wt_dlpno_pos.gbw) ****
             **** DENSITY TZVPD_B3LYP_C2_wt_dlpno_pos.scfp WAS UPDATED ****
----------------
ORBITAL ENERGIES
----------------

  NO   OCC          E(Eh)            E(eV) 
   0   2.0000     -14.319392      -389.6505 
   1   2.0000     -14.317588      -389.6014 
   2   2.0000     -10.215499      -277.9778 
   3   2.0000     -10.209073      -277.8030 
   4   2.0000     -10.167182      -276.6631 
   5   2.0000     -10.080913      -274.3156 
   6   2.0000      -0.970592       -26.4112 
   7   2.0000      -0.889244       -24.1976 
   8   2.0000      -0.774138       -21.0654 
   9   2.0000      -0.707401       -19.2494 
  10   2.0000      -0.631357       -17.1801 
  11   2.0000      -0.597177       -16.2500 
  12   2.0000      -0.534572       -14.5464 
  13   2.0000      -0.495901       -13.4941 
  14   2.0000      -0.484376       -13.1805 
  15   2.0000      -0.453770       -12.3477 
  16   2.0000      -0.423720       -11.5300 
  17   2.0000      -0.402365       -10.9489 
  18   2.0000      -0.382078       -10.3969 
  19   2.0000      -0.376421       -10.2429 
  20   2.0000      -0.373275       -10.1573 
  21   2.0000      -0.338735        -9.2174 
  22   2.0000      -0.262359        -7.1392 
  23   2.0000      -0.175147        -4.7660 
  24   0.0000      -0.003746        -0.1019 
  25   0.0000       0.016259         0.4424 
  26   0.0000       0.027921         0.7598 
  27   0.0000       0.034499         0.9388 
  28   0.0000       0.052685         1.4336 
  29   0.0000       0.061925         1.6851 
  30   0.0000       0.064794         1.7631 
  31   0.0000       0.071642         1.9495 
  32   0.0000       0.080241         2.1835 
  33   0.0000       0.089439         2.4337 
  34   0.0000       0.099504         2.7076 
  35   0.0000       0.113832         3.0975 
  36   0.0000       0.123557         3.3621 
  37   0.0000       0.128045         3.4843 
  38   0.0000       0.133868         3.6427 
  39   0.0000       0.142084         3.8663 
  40   0.0000       0.149428         4.0661 
  41   0.0000       0.164294         4.4707 
  42   0.0000       0.168474         4.5844 
  43   0.0000       0.175246         4.7687 
  44   0.0000       0.190036         5.1712 
  45   0.0000       0.191815         5.2196 
  46   0.0000       0.198270         5.3952 
  47   0.0000       0.200415         5.4536 
  48   0.0000       0.213865         5.8196 
  49   0.0000       0.219340         5.9685 
  50   0.0000       0.228512         6.2181 
  51   0.0000       0.233702         6.3593 
  52   0.0000       0.248491         6.7618 
  53   0.0000       0.251944         6.8557 
  54   0.0000       0.255678         6.9573 
  55   0.0000       0.262074         7.1314 
  56   0.0000       0.270663         7.3651 
  57   0.0000       0.276376         7.5206 
  58   0.0000       0.278572         7.5803 
  59   0.0000       0.283743         7.7210 
  60   0.0000       0.288730         7.8567 
  61   0.0000       0.296503         8.0683 
  62   0.0000       0.302996         8.2449 
  63   0.0000       0.309017         8.4088 
  64   0.0000       0.312485         8.5031 
  65   0.0000       0.315451         8.5839 
  66   0.0000       0.317921         8.6511 
  67   0.0000       0.331061         9.0086 
  68   0.0000       0.335879         9.1397 
  69   0.0000       0.340801         9.2737 
  70   0.0000       0.348692         9.4884 
  71   0.0000       0.356359         9.6970 
  72   0.0000       0.358052         9.7431 
  73   0.0000       0.376821        10.2538 
  74   0.0000       0.380140        10.3441 
  75   0.0000       0.383486        10.4352 
  76   0.0000       0.392593        10.6830 
  77   0.0000       0.398302        10.8384 
  78   0.0000       0.407475        11.0880 
  79   0.0000       0.413331        11.2473 
  80   0.0000       0.417598        11.3634 
  81   0.0000       0.430590        11.7169 
  82   0.0000       0.436331        11.8732 
  83   0.0000       0.438586        11.9345 
  84   0.0000       0.449633        12.2351 
  85   0.0000       0.453108        12.3297 
  86   0.0000       0.458052        12.4642 
  87   0.0000       0.461084        12.5467 
  88   0.0000       0.468068        12.7368 
  89   0.0000       0.477049        12.9812 
  90   0.0000       0.480865        13.0850 
  91   0.0000       0.483661        13.1611 
  92   0.0000       0.494749        13.4628 
  93   0.0000       0.498413        13.5625 
  94   0.0000       0.506852        13.7921 
  95   0.0000       0.518768        14.1164 
  96   0.0000       0.533289        14.5115 
  97   0.0000       0.535938        14.5836 
  98   0.0000       0.542791        14.7701 
  99   0.0000       0.548523        14.9261 
 100   0.0000       0.562566        15.3082 
 101   0.0000       0.566355        15.4113 
 102   0.0000       0.581492        15.8232 
 103   0.0000       0.593898        16.1608 
 104   0.0000       0.601749        16.3744 
 105   0.0000       0.611605        16.6426 
 106   0.0000       0.630207        17.1488 
 107   0.0000       0.633618        17.2416 
 108   0.0000       0.651112        17.7177 
 109   0.0000       0.662536        18.0285 
 110   0.0000       0.666578        18.1385 
 111   0.0000       0.681958        18.5570 
 112   0.0000       0.687007        18.6944 
 113   0.0000       0.693034        18.8584 
 114   0.0000       0.695001        18.9120 
 115   0.0000       0.706315        19.2198 
 116   0.0000       0.712178        19.3794 
 117   0.0000       0.721309        19.6278 
 118   0.0000       0.724372        19.7112 
 119   0.0000       0.736692        20.0464 
 120   0.0000       0.757449        20.6112 
 121   0.0000       0.761653        20.7256 
 122   0.0000       0.770806        20.9747 
 123   0.0000       0.774358        21.0714 
 124   0.0000       0.792664        21.5695 
 125   0.0000       0.803918        21.8757 
 126   0.0000       0.813059        22.1245 
 127   0.0000       0.829681        22.5768 
 128   0.0000       0.845247        23.0004 
 129   0.0000       0.859276        23.3821 
 130   0.0000       0.868583        23.6354 
 131   0.0000       0.880160        23.9504 
 132   0.0000       0.891846        24.2684 
 133   0.0000       0.898861        24.4593 
 134   0.0000       0.909689        24.7539 
 135   0.0000       0.939029        25.5523 
 136   0.0000       0.955176        25.9917 
 137   0.0000       0.982005        26.7217 
 138   0.0000       0.995355        27.0850 
 139   0.0000       1.010428        27.4952 
 140   0.0000       1.023564        27.8526 
 141   0.0000       1.052995        28.6535 
 142   0.0000       1.071208        29.1490 
 143   0.0000       1.115877        30.3646 
 144   0.0000       1.130181        30.7538 
 145   0.0000       1.148739        31.2588 
 146   0.0000       1.164897        31.6985 
 147   0.0000       1.184873        32.2420 
 148   0.0000       1.204137        32.7662 
 149   0.0000       1.224945        33.3325 
 150   0.0000       1.244048        33.8523 
 151   0.0000       1.252049        34.0700 
 152   0.0000       1.269559        34.5465 
 153   0.0000       1.281672        34.8761 
 154   0.0000       1.341092        36.4930 
 155   0.0000       1.349312        36.7167 
 156   0.0000       1.357519        36.9400 
 157   0.0000       1.400254        38.1029 
 158   0.0000       1.436250        39.0823 
 159   0.0000       1.445622        39.3374 
 160   0.0000       1.480747        40.2932 
 161   0.0000       1.532898        41.7123 
 162   0.0000       1.577007        42.9125 
 163   0.0000       1.628293        44.3081 
 164   0.0000       1.631131        44.3853 
 165   0.0000       1.658737        45.1365 
 166   0.0000       1.694529        46.1105 
 167   0.0000       1.715136        46.6712 
 168   0.0000       1.759985        47.8916 
 169   0.0000       1.768068        48.1116 
 170   0.0000       1.776942        48.3531 
 171   0.0000       1.800061        48.9821 
 172   0.0000       1.813304        49.3425 
 173   0.0000       1.816848        49.4390 
 174   0.0000       1.825599        49.6771 
 175   0.0000       1.836293        49.9681 
 176   0.0000       1.850254        50.3480 
 177   0.0000       1.865252        50.7561 
 178   0.0000       1.884933        51.2916 
 179   0.0000       1.906414        51.8762 
 180   0.0000       1.916337        52.1462 
 181   0.0000       1.925400        52.3928 
 182   0.0000       1.936048        52.6825 
 183   0.0000       1.984037        53.9884 
 184   0.0000       1.996832        54.3366 
 185   0.0000       2.034545        55.3628 
 186   0.0000       2.037793        55.4512 
 187   0.0000       2.086568        56.7784 
 188   0.0000       2.111236        57.4497 
 189   0.0000       2.121960        57.7415 
 190   0.0000       2.142111        58.2898 
 191   0.0000       2.149104        58.4801 
 192   0.0000       2.176649        59.2296 
 193   0.0000       2.233690        60.7818 
 194   0.0000       2.250138        61.2294 
 195   0.0000       2.283514        62.1376 
 196   0.0000       2.331469        63.4425 
 197   0.0000       2.367415        64.4206 
 198   0.0000       2.382422        64.8290 
 199   0.0000       2.392664        65.1077 
 200   0.0000       2.422185        65.9110 
 201   0.0000       2.438266        66.3486 
 202   0.0000       2.482008        67.5389 
 203   0.0000       2.507346        68.2284 
 204   0.0000       2.507708        68.2382 
 205   0.0000       2.525887        68.7329 
 206   0.0000       2.537535        69.0498 
 207   0.0000       2.550418        69.4004 
 208   0.0000       2.559517        69.6480 
 209   0.0000       2.577812        70.1458 
 210   0.0000       2.606342        70.9222 
 211   0.0000       2.640578        71.8538 
 212   0.0000       2.649472        72.0958 
 213   0.0000       2.674871        72.7869 
 214   0.0000       2.710146        73.7468 
 215   0.0000       2.727202        74.2109 
 216   0.0000       2.744315        74.6766 
 217   0.0000       2.768873        75.3449 
 218   0.0000       2.789243        75.8992 
 219   0.0000       2.811998        76.5184 
 220   0.0000       2.828667        76.9720 
 221   0.0000       2.848477        77.5110 
 222   0.0000       2.882906        78.4479 
 223   0.0000       2.904639        79.0392 
 224   0.0000       2.932000        79.7838 
 225   0.0000       2.965346        80.6912 
 226   0.0000       2.989757        81.3554 
 227   0.0000       3.010093        81.9088 
 228   0.0000       3.057737        83.2053 
 229   0.0000       3.066051        83.4315 
 230   0.0000       3.081723        83.8579 
 231   0.0000       3.134736        85.3005 
 232   0.0000       3.149793        85.7102 
 233   0.0000       3.164780        86.1180 
 234   0.0000       3.186851        86.7186 
 235   0.0000       3.200463        87.0890 
 236   0.0000       3.219273        87.6009 
 237   0.0000       3.224889        87.7537 
 238   0.0000       3.251881        88.4882 
 239   0.0000       3.271740        89.0286 
 240   0.0000       3.287046        89.4451 
 241   0.0000       3.326739        90.5252 
 242   0.0000       3.338817        90.8538 
 243   0.0000       3.353560        91.2550 
 244   0.0000       3.375367        91.8484 
 245   0.0000       3.391806        92.2957 
 246   0.0000       3.400606        92.5352 
 247   0.0000       3.414562        92.9150 
 248   0.0000       3.484096        94.8071 
 249   0.0000       3.500813        95.2620 
 250   0.0000       3.518505        95.7434 
 251   0.0000       3.522780        95.8597 
 252   0.0000       3.550048        96.6017 
 253   0.0000       3.592825        97.7657 
 254   0.0000       3.616321        98.4051 
 255   0.0000       3.646508        99.2265 
 256   0.0000       3.687067       100.3302 
 257   0.0000       3.703005       100.7639 
 258   0.0000       3.772235       102.6477 
 259   0.0000       3.802234       103.4640 
 260   0.0000       3.845378       104.6380 
 261   0.0000       3.870970       105.3344 
 262   0.0000       3.918150       106.6183 
 263   0.0000       3.958341       107.7119 
 264   0.0000       3.995893       108.7338 
 265   0.0000       4.009034       109.0913 
 266   0.0000       4.049222       110.1849 
 267   0.0000       4.077120       110.9441 
 268   0.0000       4.131607       112.4267 
 269   0.0000       4.167516       113.4039 
 270   0.0000       4.216758       114.7438 
 271   0.0000       4.279039       116.4386 
 272   0.0000       4.355358       118.5153 
 273   0.0000       4.410192       120.0074 
 274   0.0000       4.446736       121.0018 
 275   0.0000       4.477501       121.8390 
 276   0.0000       4.516691       122.9054 
 277   0.0000       4.528910       123.2379 
 278   0.0000       4.555078       123.9500 
 279   0.0000       4.641183       126.2930 
 280   0.0000       4.702695       127.9668 
 281   0.0000       4.752845       129.3315 
 282   0.0000       4.781013       130.0980 
 283   0.0000       4.857965       132.1919 
 284   0.0000       4.869717       132.5117 
 285   0.0000       4.896908       133.2516 
 286   0.0000       4.949280       134.6768 
 287   0.0000       4.966824       135.1541 
 288   0.0000       4.986121       135.6792 
 289   0.0000       5.041578       137.1883 
 290   0.0000       5.119292       139.3030 
 291   0.0000       5.155728       140.2945 
 292   0.0000       5.228331       142.2701 
 293   0.0000       5.253456       142.9538 
 294   0.0000       5.322049       144.8203 
 295   0.0000       5.348690       145.5453 
 296   0.0000       5.412087       147.2704 
 297   0.0000       5.479813       149.1133 
 298   0.0000       5.514281       150.0512 
 299   0.0000       5.576277       151.7382 
 300   0.0000       5.580587       151.8555 
 301   0.0000       5.748959       156.4371 
 302   0.0000       5.839288       158.8951 
 303   0.0000       5.959540       162.1673 
 304   0.0000       6.074043       165.2831 
 305   0.0000       6.240617       169.8158 
 306   0.0000      22.569104       614.1366 
 307   0.0000      22.655519       616.4880 
 308   0.0000      22.817796       620.9038 
 309   0.0000      23.519683       640.0031 
 310   0.0000      32.356312       880.4600 
 311   0.0000      32.797998       892.4789 

                    ********************************
                    * MULLIKEN POPULATION ANALYSIS *
                    ********************************

-----------------------
MULLIKEN ATOMIC CHARGES
-----------------------
   0 C :   -0.245370
   1 N :   -0.193283
   2 C :   -1.209767
   3 C :    0.491188
   4 C :   -0.968917
   5 N :   -0.387665
   6 H :    0.188138
   7 H :    0.191392
   8 H :    0.190058
   9 H :    0.229234
  10 H :    0.269033
  11 H :    0.275487
  12 H :    0.212412
  13 H :    0.330657
  14 H :    0.309945
  15 H :    0.317459
Sum of atomic charges:   -0.0000000

--------------------------------
MULLIKEN REDUCED ORBITAL CHARGES
--------------------------------
  0 C s       :     3.340788  s :     3.340788
      pz      :     1.162099  p :     2.941274
      px      :     0.862919
      py      :     0.916257
      dz2     :    -0.011983  d :    -0.045069
      dxz     :    -0.003703
      dyz     :    -0.007459
      dx2y2   :    -0.003721
      dxy     :    -0.018203
      f0      :     0.000465  f :     0.008377
      f+1     :     0.001150
      f-1     :     0.000863
      f+2     :     0.001825
      f-2     :     0.000400
      f+3     :     0.001816
      f-3     :     0.001858
  1 N s       :     3.497309  s :     3.497309
      pz      :     1.116904  p :     3.617386
      px      :     1.017020
      py      :     1.483462
      dz2     :     0.018234  d :     0.074753
      dxz     :     0.029246
      dyz     :     0.014831
      dx2y2   :     0.003886
      dxy     :     0.008557
      f0      :     0.000795  f :     0.003835
      f+1     :     0.000518
      f-1     :     0.000557
      f+2     :     0.000507
      f-2     :     0.000580
      f+3     :     0.000454
      f-3     :     0.000423
  2 C s       :     3.599338  s :     3.599338
      pz      :     1.292447  p :     3.555084
      px      :     1.319113
      py      :     0.943524
      dz2     :     0.002473  d :     0.051701
      dxz     :     0.036229
      dyz     :     0.011331
      dx2y2   :     0.014896
      dxy     :    -0.013228
      f0      :     0.000089  f :     0.003645
      f+1     :     0.000430
      f-1     :     0.000689
      f+2     :     0.001058
      f-2     :     0.000199
      f+3     :     0.000753
      f-3     :     0.000426
  3 C s       :     3.186603  s :     3.186603
      pz      :     0.569884  p :     2.081378
      px      :     0.777444
      py      :     0.734050
      dz2     :     0.075911  d :     0.221837
      dxz     :     0.029030
      dyz     :     0.047444
      dx2y2   :     0.049429
      dxy     :     0.020024
      f0      :     0.002951  f :     0.018994
      f+1     :     0.003514
      f-1     :     0.003117
      f+2     :     0.002993
      f-2     :     0.002506
      f+3     :     0.002187
      f-3     :     0.001725
  4 C s       :     3.421681  s :     3.421681
      pz      :     1.262070  p :     3.479190
      px      :     1.064721
      py      :     1.152399
      dz2     :     0.025473  d :     0.063601
      dxz     :     0.004814
      dyz     :     0.002454
      dx2y2   :     0.023110
      dxy     :     0.007750
      f0      :     0.000466  f :     0.004446
      f+1     :     0.000875
      f-1     :     0.000374
      f+2     :     0.000617
      f-2     :     0.000712
      f+3     :     0.000709
      f-3     :     0.000693
  5 N s       :     3.481094  s :     3.481094
      pz      :     1.107082  p :     3.859685
      px      :     1.252419
      py      :     1.500183
      dz2     :     0.006996  d :     0.043848
      dxz     :     0.004029
      dyz     :     0.008008
      dx2y2   :     0.012768
      dxy     :     0.012047
      f0      :     0.000659  f :     0.003037
      f+1     :     0.000208
      f-1     :     0.000480
      f+2     :     0.000309
      f-2     :     0.000390
      f+3     :     0.000473
      f-3     :     0.000519
  6 H s       :     0.746459  s :     0.746459
      pz      :     0.024006  p :     0.065403
      px      :     0.020834
      py      :     0.020563
  7 H s       :     0.773707  s :     0.773707
      pz      :    -0.001771  p :     0.034901
      px      :     0.017253
      py      :     0.019419
  8 H s       :     0.766319  s :     0.766319
      pz      :     0.015339  p :     0.043623
      px      :     0.011686
      py      :     0.016598
  9 H s       :     0.666844  s :     0.666844
      pz      :     0.034258  p :     0.103921
      px      :     0.016485
      py      :     0.053178
 10 H s       :     0.635889  s :     0.635889
      pz      :     0.083427  p :     0.095077
      px      :    -0.015112
      py      :     0.026763
 11 H s       :     0.664950  s :     0.664950
      pz      :     0.038973  p :     0.059563
      px      :     0.007896
      py      :     0.012693
 12 H s       :     0.692163  s :     0.692163
      pz      :     0.025393  p :     0.095424
      px      :     0.041679
      py      :     0.028353
 13 H s       :     0.603066  s :     0.603066
      pz      :     0.026845  p :     0.066278
      px      :     0.016774
      py      :     0.022658
 14 H s       :     0.616535  s :     0.616535
      pz      :     0.025552  p :     0.073520
      px      :     0.036366
      py      :     0.011601
 15 H s       :     0.614530  s :     0.614530
      pz      :     0.029176  p :     0.068012
      px      :     0.024319
      py      :     0.014516


                     *******************************
                     * LOEWDIN POPULATION ANALYSIS *
                     *******************************

----------------------
LOEWDIN ATOMIC CHARGES
----------------------
   0 C :   -0.234710
   1 N :    0.019812
   2 C :   -0.082021
   3 C :   -0.570304
   4 C :   -0.001488
   5 N :    0.129317
   6 H :    0.106232
   7 H :    0.089771
   8 H :    0.127435
   9 H :    0.007086
  10 H :    0.002358
  11 H :    0.103044
  12 H :    0.105184
  13 H :    0.069538
  14 H :    0.063456
  15 H :    0.065290

-------------------------------
LOEWDIN REDUCED ORBITAL CHARGES
-------------------------------
  0 C s       :     2.681169  s :     2.681169
      pz      :     0.927745  p :     2.691266
      px      :     0.830049
      py      :     0.933473
      dz2     :     0.094091  d :     0.806752
      dxz     :     0.165887
      dyz     :     0.162417
      dx2y2   :     0.184173
      dxy     :     0.200184
      f0      :     0.004378  f :     0.055523
      f+1     :     0.008231
      f-1     :     0.006174
      f+2     :     0.007916
      f-2     :     0.004443
      f+3     :     0.012195
      f-3     :     0.012186
  1 N s       :     2.855998  s :     2.855998
      pz      :     1.152819  p :     3.437826
      px      :     1.051359
      py      :     1.233647
      dz2     :     0.133241  d :     0.669364
      dxz     :     0.205213
      dyz     :     0.095896
      dx2y2   :     0.108657
      dxy     :     0.126356
      f0      :     0.003532  f :     0.017000
      f+1     :     0.003139
      f-1     :     0.002321
      f+2     :     0.002017
      f-2     :     0.002508
      f+3     :     0.001813
      f-3     :     0.001669
  2 C s       :     2.734545  s :     2.734545
      pz      :     0.969797  p :     2.878763
      px      :     0.966174
      py      :     0.942791
      dz2     :     0.060295  d :     0.441238
      dxz     :     0.062697
      dyz     :     0.124656
      dx2y2   :     0.112370
      dxy     :     0.081221
      f0      :     0.002097  f :     0.027476
      f+1     :     0.003483
      f-1     :     0.005385
      f+2     :     0.004237
      f-2     :     0.002923
      f+3     :     0.005609
      f-3     :     0.003742
  3 C s       :     2.600129  s :     2.600129
      pz      :     0.841781  p :     2.528633
      px      :     0.926708
      py      :     0.760143
      dz2     :     0.297396  d :     1.323799
      dxz     :     0.299815
      dyz     :     0.244817
      dx2y2   :     0.276580
      dxy     :     0.205192
      f0      :     0.020298  f :     0.117744
      f+1     :     0.022470
      f-1     :     0.019133
      f+2     :     0.018964
      f-2     :     0.012525
      f+3     :     0.011810
      f-3     :     0.012544
  4 C s       :     2.730580  s :     2.730580
      pz      :     0.937373  p :     2.858197
      px      :     0.984270
      py      :     0.936555
      dz2     :     0.083474  d :     0.379610
      dxz     :     0.087958
      dyz     :     0.031764
      dx2y2   :     0.096747
      dxy     :     0.079667
      f0      :     0.003690  f :     0.033101
      f+1     :     0.005407
      f-1     :     0.002874
      f+2     :     0.005332
      f-2     :     0.002730
      f+3     :     0.005693
      f-3     :     0.007375
  5 N s       :     2.919792  s :     2.919792
      pz      :     1.081563  p :     3.558794
      px      :     1.156166
      py      :     1.321065
      dz2     :     0.113539  d :     0.380094
      dxz     :     0.062934
      dyz     :     0.055439
      dx2y2   :     0.074875
      dxy     :     0.073307
      f0      :     0.001825  f :     0.012003
      f+1     :     0.000994
      f-1     :     0.002179
      f+2     :     0.002105
      f-2     :     0.001942
      f+3     :     0.001422
      f-3     :     0.001538
  6 H s       :     0.628611  s :     0.628611
      pz      :     0.113802  p :     0.265157
      px      :     0.070135
      py      :     0.081220
  7 H s       :     0.629300  s :     0.629300
      pz      :     0.071364  p :     0.280929
      px      :     0.115731
      py      :     0.093834
  8 H s       :     0.597571  s :     0.597571
      pz      :     0.081756  p :     0.274993
      px      :     0.096604
      py      :     0.096633
  9 H s       :     0.717137  s :     0.717137
      pz      :     0.086144  p :     0.275777
      px      :     0.080700
      py      :     0.108932
 10 H s       :     0.728158  s :     0.728158
      pz      :     0.116611  p :     0.269484
      px      :     0.079468
      py      :     0.073404
 11 H s       :     0.680984  s :     0.680984
      pz      :     0.097230  p :     0.215972
      px      :     0.059254
      py      :     0.059488
 12 H s       :     0.700530  s :     0.700530
      pz      :     0.076081  p :     0.194286
      px      :     0.049867
      py      :     0.068338
 13 H s       :     0.707343  s :     0.707343
      pz      :     0.086385  p :     0.223118
      px      :     0.065670
      py      :     0.071063
 14 H s       :     0.711732  s :     0.711732
      pz      :     0.062471  p :     0.224812
      px      :     0.105623
      py      :     0.056718
 15 H s       :     0.708925  s :     0.708925
      pz      :     0.091376  p :     0.225786
      px      :     0.079218
      py      :     0.055192


                      *****************************
                      * MAYER POPULATION ANALYSIS *
                      *****************************

  NA   - Mulliken gross atomic population
  ZA   - Total nuclear charge
  QA   - Mulliken gross atomic charge
  VA   - Mayer's total valence
  BVA  - Mayer's bonded valence
  FA   - Mayer's free valence

  ATOM       NA         ZA         QA         VA         BVA        FA
  0 C      6.2454     6.0000    -0.2454     3.1175     3.1175    -0.0000
  1 N      7.1933     7.0000    -0.1933     3.1037     3.1037    -0.0000
  2 C      7.2098     6.0000    -1.2098     3.5859     3.5859     0.0000
  3 C      5.5088     6.0000     0.4912     3.3067     3.3067    -0.0000
  4 C      6.9689     6.0000    -0.9689     3.6851     3.6851    -0.0000
  5 N      7.3877     7.0000    -0.3877     3.0733     3.0733    -0.0000
  6 H      0.8119     1.0000     0.1881     0.9850     0.9850    -0.0000
  7 H      0.8086     1.0000     0.1914     0.9512     0.9512    -0.0000
  8 H      0.8099     1.0000     0.1901     0.9618     0.9618     0.0000
  9 H      0.7708     1.0000     0.2292     1.1129     1.1129     0.0000
 10 H      0.7310     1.0000     0.2690     1.1328     1.1328    -0.0000
 11 H      0.7245     1.0000     0.2755     0.9374     0.9374    -0.0000
 12 H      0.7876     1.0000     0.2124     1.0889     1.0889    -0.0000
 13 H      0.6693     1.0000     0.3307     0.9956     0.9956     0.0000
 14 H      0.6901     1.0000     0.3099     1.0321     1.0321     0.0000
 15 H      0.6825     1.0000     0.3175     1.0162     1.0162     0.0000

  Mayer bond orders larger than 0.100000
B(  0-C ,  1-N ) :   0.8138 B(  0-C ,  2-C ) :   0.5509 B(  0-C , 11-H ) :   0.9037 
B(  0-C , 12-H ) :   1.0019 B(  1-N ,  3-C ) :   1.1853 B(  1-N ,  8-H ) :   0.9047 
B(  2-C , 13-H ) :   0.9895 B(  2-C , 14-H ) :   0.9683 B(  2-C , 15-H ) :   0.9656 
B(  3-C ,  4-C ) :   1.3274 B(  3-C ,  5-N ) :   0.9830 B(  4-C ,  9-H ) :   1.0187 
B(  4-C , 10-H ) :   1.1093 B(  5-N ,  6-H ) :   0.9696 B(  5-N ,  7-H ) :   0.9325 


-------
TIMINGS
-------

Total SCF time: 0 days 0 hours 0 min 48 sec 

Total time                  ....      48.552 sec
Sum of individual times     ....      47.758 sec  ( 98.4%)

Fock matrix formation       ....      45.453 sec  ( 93.6%)
  Split-RI-J                ....       3.085 sec  (  6.8% of F)
  Chain of spheres X        ....      34.552 sec  ( 76.0% of F)
  XC integration            ....       7.724 sec  ( 17.0% of F)
    Basis function eval.    ....       1.981 sec  ( 25.6% of XC)
    Density eval.           ....       2.104 sec  ( 27.2% of XC)
    XC-Functional eval.     ....       0.228 sec  (  3.0% of XC)
    XC-Potential eval.      ....       3.103 sec  ( 40.2% of XC)
Diagonalization             ....       0.394 sec  (  0.8%)
Density matrix formation    ....       0.014 sec  (  0.0%)
Population analysis         ....       0.029 sec  (  0.1%)
Initial guess               ....       0.373 sec  (  0.8%)
Orbital Transformation      ....       0.000 sec  (  0.0%)
Orbital Orthonormalization  ....       0.000 sec  (  0.0%)
DIIS solution               ....       0.093 sec  (  0.2%)
SOSCF solution              ....       0.102 sec  (  0.2%)
Grid generation             ....       1.300 sec  (  2.7%)

Maximum memory used throughout the entire SCF-calculation: 81.0 MB


-------------------------------------------------------------------------------
                          DFT DISPERSION CORRECTION                            
                                                                               
                              DFTD3 V3.1  Rev 1                                
                          USING Becke-Johnson damping                          
-------------------------------------------------------------------------------
The B3LYP functional is recognized
Active option DFTDOPT                   ...         4   

molecular C6(AA) [au] = 1935.194099 


            DFT-D V3
 parameters
 s6 scaling factor         :     1.0000 
 a1 scaling factor         :     0.3981 
 s8 scaling factor         :     1.9889 
 a2 scaling factor         :     4.4211 
 ad hoc parameters k1-k3   :    16.0000     1.3333    -4.0000 

 Edisp/kcal,au: -13.022548561065  -0.020752749895 
 E6   /kcal   :  -6.472573239 
 E8   /kcal   :  -6.549975322 
 % E8         :  50.297184848 

-------------------------   ----------------
Dispersion correction           -0.020752750
-------------------------   ----------------


-------------------------   --------------------
FINAL SINGLE POINT ENERGY      -267.854005202942
-------------------------   --------------------


                            ***************************************
                            *     ORCA property calculations      *
                            ***************************************

                                    ---------------------
                                    Active property flags
                                    ---------------------
   (+) Dipole Moment


------------------------------------------------------------------------------
                       ORCA ELECTRIC PROPERTIES CALCULATION
------------------------------------------------------------------------------

Dipole Moment Calculation                       ... on
Quadrupole Moment Calculation                   ... off
Polarizability Calculation                      ... off
GBWName                                         ... TZVPD_B3LYP_C2_wt_dlpno_pos.gbw
Electron density file                           ... TZVPD_B3LYP_C2_wt_dlpno_pos.scfp
The origin for moment calculation is the CENTER OF MASS  = ( 9.563232,  5.680622 -8.902233)

-------------
DIPOLE MOMENT
-------------
                                X             Y             Z
Electronic contribution:      1.52809       3.24265      -1.26418
Nuclear contribution   :     -2.93222      -3.63618       1.36440
                        -----------------------------------------
Total Dipole Moment    :     -1.40413      -0.39353       0.10023
                        -----------------------------------------
Magnitude (a.u.)       :      1.46168
Magnitude (Debye)      :      3.71529



--------------------
Rotational spectrum 
--------------------
 
Rotational constants in cm-1:     0.237993     0.072843     0.061284 
Rotational constants in MHz :  7134.860770  2183.763760  1837.240960 

 Dipole components along the rotational axes: 
x,y,z [a.u.] :     1.046177    -0.809965    -0.621271 
x,y,z [Debye]:     2.659171    -2.058767    -1.579144 

 

Timings for individual modules:

Sum of individual times         ...       52.925 sec (=   0.882 min)
GTO integral calculation        ...        2.605 sec (=   0.043 min)   4.9 %
SCF iterations                  ...       50.320 sec (=   0.839 min)  95.1 %
                             ****ORCA TERMINATED NORMALLY****
TOTAL RUN TIME: 0 days 0 hours 0 minutes 53 seconds 477 msec
