
                                        *****************
                                        * O   R   C   A *
                                        *****************

                                            #,                                       
                                            ###                                      
                                            ####                                     
                                            #####                                    
                                            ######                                   
                                           ########,                                 
                                     ,,################,,,,,                         
                               ,,#################################,,                 
                          ,,##########################################,,             
                       ,#########################################, ''#####,          
                    ,#############################################,,   '####,        
                  ,##################################################,,,,####,       
                ,###########''''           ''''###############################       
              ,#####''   ,,,,##########,,,,          '''####'''          '####       
            ,##' ,,,,###########################,,,                        '##       
           ' ,,###''''                  '''############,,,                           
         ,,##''                                '''############,,,,        ,,,,,,###''
      ,#''                                            '''#######################'''  
     '                                                          ''''####''''         
             ,#######,   #######,   ,#######,      ##                                
            ,#'     '#,  ##    ##  ,#'     '#,    #''#        ######   ,####,        
            ##       ##  ##   ,#'  ##            #'  '#       #        #'  '#        
            ##       ##  #######   ##           ,######,      #####,   #    #        
            '#,     ,#'  ##    ##  '#,     ,#' ,#      #,         ##   #,  ,#        
             '#######'   ##     ##  '#######'  #'      '#     #####' # '####'        



                  #######################################################
                  #                        -***-                        #
                  #          Department of theory and spectroscopy      #
                  #    Directorship and core code : Frank Neese         #
                  #        Max Planck Institute fuer Kohlenforschung    #
                  #                Kaiser Wilhelm Platz 1               #
                  #                 D-45470 Muelheim/Ruhr               #
                  #                      Germany                        #
                  #                                                     #
                  #                  All rights reserved                #
                  #                        -***-                        #
                  #######################################################


                         Program Version 5.0.0 -  RELEASE  -
                                (SVN: $Rev: 19529$)
                ($Date: 2021-06-28 11:36:33 +0200 (Mo, 28 Jun 2021) $)


 With contributions from (in alphabetic order):
   Daniel Aravena         : Magnetic Suceptibility
   Michael Atanasov       : Ab Initio Ligand Field Theory (pilot matlab implementation)
   Alexander A. Auer      : GIAO ZORA, VPT2 properties, NMR spectrum
   Ute Becker             : Parallelization
   Giovanni Bistoni       : ED, misc. LED, open-shell LED, HFLD
   Martin Brehm           : Molecular dynamics
   Dmytro Bykov           : SCF Hessian
   Vijay G. Chilkuri      : MRCI spin determinant printing, contributions to CSF-ICE
   Dipayan Datta          : RHF DLPNO-CCSD density
   Achintya Kumar Dutta   : EOM-CC, STEOM-CC
   Dmitry Ganyushin       : Spin-Orbit,Spin-Spin,Magnetic field MRCI
   Miquel Garcia          : C-PCM Hessian, Gaussian charge scheme
   Yang Guo               : DLPNO-NEVPT2, F12-NEVPT2, CIM, IAO-localization
   Andreas Hansen         : Spin unrestricted coupled pair/coupled cluster methods
   Benjamin Helmich-Paris : MC-RPA, TRAH-SCF, COSX integrals
   Lee Huntington         : MR-EOM, pCC
   Robert Izsak           : Overlap fitted RIJCOSX, COSX-SCS-MP3, EOM
   Marcus Kettner         : VPT2
   Christian Kollmar      : KDIIS, OOCD, Brueckner-CCSD(T), CCSD density, CASPT2, CASPT2-K
   Simone Kossmann        : Meta GGA functionals, TD-DFT gradient, OOMP2, MP2 Hessian
   Martin Krupicka        : Initial AUTO-CI
   Lucas Lang             : DCDCAS
   Marvin Lechner         : AUTO-CI (C++ implementation), FIC-MRCC
   Dagmar Lenk            : GEPOL surface, SMD
   Dimitrios Liakos       : Extrapolation schemes; Compound Job, initial MDCI parallelization
   Dimitrios Manganas     : Further ROCIS development; embedding schemes
   Dimitrios Pantazis     : SARC Basis sets
   Anastasios Papadopoulos: AUTO-CI, single reference methods and gradients
   Taras Petrenko         : DFT Hessian,TD-DFT gradient, ASA, ECA, R-Raman, ABS, FL, XAS/XES, NRVS
   Peter Pinski           : DLPNO-MP2, DLPNO-MP2 Gradient
   Christoph Reimann      : Effective Core Potentials
   Marius Retegan         : Local ZFS, SOC
   Christoph Riplinger    : Optimizer, TS searches, QM/MM, DLPNO-CCSD(T), (RO)-DLPNO pert. Triples
   Tobias Risthaus        : Range-separated hybrids, TD-DFT gradient, RPA, STAB
   Michael Roemelt        : Original ROCIS implementation
   Masaaki Saitow         : Open-shell DLPNO-CCSD energy and density
   Barbara Sandhoefer     : DKH picture change effects
   Avijit Sen             : IP-ROCIS
   Kantharuban Sivalingam : CASSCF convergence, NEVPT2, FIC-MRCI
   Bernardo de Souza      : ESD, SOC TD-DFT
   Georgi Stoychev        : AutoAux, RI-MP2 NMR
   Willem Van den Heuvel  : Paramagnetic NMR
   Boris Wezisla          : Elementary symmetry handling
   Frank Wennmohs         : Technical directorship


 We gratefully acknowledge several colleagues who have allowed us to
 interface, adapt or use parts of their codes:
   Stefan Grimme, W. Hujo, H. Kruse, P. Pracht,  : VdW corrections, initial TS optimization,
                  C. Bannwarth, S. Ehlert          DFT functionals, gCP, sTDA/sTD-DF
   Ed Valeev, F. Pavosevic, A. Kumar             : LibInt (2-el integral package), F12 methods
   Garnet Chan, S. Sharma, J. Yang, R. Olivares  : DMRG
   Ulf Ekstrom                                   : XCFun DFT Library
   Mihaly Kallay                                 : mrcc  (arbitrary order and MRCC methods)
   Jiri Pittner, Ondrej Demel                    : Mk-CCSD
   Frank Weinhold                                : gennbo (NPA and NBO analysis)
   Christopher J. Cramer and Donald G. Truhlar   : smd solvation model
   Lars Goerigk                                  : TD-DFT with DH, B97 family of functionals
   V. Asgeirsson, H. Jonsson                     : NEB implementation
   FAccTs GmbH                                   : IRC, NEB, NEB-TS, DLPNO-Multilevel, CI-OPT
                                                   MM, QMMM, 2- and 3-layer-ONIOM, Crystal-QMMM,
                                                   LR-CPCM, SF, NACMEs, symmetry and pop. for TD-DFT,
                                                   nearIR, NL-DFT gradient (VV10), updates on ESD,
                                                   ML-optimized integration grids
   S Lehtola, MJT Oliveira, MAL Marques          : LibXC Library
   Liviu Ungur et al                             : ANISO software


 Your calculation uses the libint2 library for the computation of 2-el integrals
 For citations please refer to: http://libint.valeyev.net

 Your ORCA version has been built with support for libXC version: 5.1.0
 For citations please refer to: https://tddft.org/programs/libxc/

 This ORCA versions uses:
   CBLAS   interface :  Fast vector & matrix operations
   LAPACKE interface :  Fast linear algebra routines
   SCALAPACK package :  Parallel linear algebra routines
   Shared memory     :  Shared parallel matrices
   BLAS/LAPACK       :  OpenBLAS 0.3.15  USE64BITINT DYNAMIC_ARCH NO_AFFINITY Haswell SINGLE_THREADED
        Core in use  :  Haswell
   Copyright (c) 2011-2014, The OpenBLAS Project




***************************************
The coordinates will be read from file: D4.xyz
***************************************


Your calculation utilizes the atom-pairwise dispersion correction
with the Becke-Johnson damping scheme (D3BJ)
Cite in your paper:
S.Grimme, S.Ehrlich, L.Goerigk, J Comput Chem, (2011), 32, 1456–1465 
S.Grimme, J.Antony, S.Ehrlich and H.Krieg, J.Chem.Phys., 132, (2010), 154104 
   

================================================================================

----- Orbital basis set information -----
Your calculation utilizes the basis: def2-TZVPD
   F. Weigend and R. Ahlrichs, Phys. Chem. Chem. Phys. 7, 3297 (2005).
   D. Rappoport and F. Furche, J. Chem. Phys. 133 134105 (2010).

----- AuxJ basis set information -----
Your calculation utilizes the auxiliary basis: def2/J
   F. Weigend, Phys. Chem. Chem. Phys. 8, 1057 (2006).

================================================================================
                                        WARNINGS
                       Please study these warnings very carefully!
================================================================================


INFO   : the flag for use of the SHARK integral package has been found!

================================================================================
                                       INPUT FILE
================================================================================
NAME = 28Oct_TZVPD_B3LYP_D4_wb97.com
|  1> !B3LYP D3BJ RIJCOSX def2-TZVPD def2/J TightSCF xyzfile                                                                                         
|  2> 
|  3> *xyzfile 0 1 D4.xyz
|  4> 
|  5> %MaxCore 64000
|  6> 
|  7> %pal nprocs 4                                                                                                                                                  
|  8> end  
|  9> 
| 10> %scf
| 11>   MaxIter 150
| 12> end
| 13> 
| 14> 
| 15>                          ****END OF INPUT****
================================================================================

                       ****************************
                       * Single Point Calculation *
                       ****************************

---------------------------------
CARTESIAN COORDINATES (ANGSTROEM)
---------------------------------
  C      3.905947    2.819855   -3.752920
  C      5.295615    3.131515   -4.105334
  C      3.803511    1.374716   -3.260807
  C      3.939934    0.320362   -4.367729
  H      4.105043   -0.655085   -3.907733
  H      3.022801    0.280517   -4.957117
  C      5.105846    0.668022   -5.305463
  C      5.708619    3.468885   -5.324190
  N      6.904696    3.038954   -5.717084
  N      4.981884    4.293570   -6.097457
  H      5.000546    4.101311   -7.087761
  H      4.084693    4.596899   -5.739652
  H      5.963358    2.526112   -3.642391
  H      7.047164    2.066861   -5.473604
  H      7.198145    3.307994   -6.645225
  H      3.282025    2.949187   -4.640259
  H      3.565254    3.514574   -2.982523
  H      4.574833    1.215157   -2.500443
  H      2.843514    1.260845   -2.751465
  O      4.809132    1.150187   -6.414361
  F      6.267366    0.564999   -4.819481

----------------------------
CARTESIAN COORDINATES (A.U.)
----------------------------
  NO LB      ZA    FRAG     MASS         X           Y           Z
   0 C     6.0000    0    12.011    7.381171    5.328753   -7.091990
   1 C     6.0000    0    12.011   10.007263    5.917705   -7.757957
   2 C     6.0000    0    12.011    7.187595    2.597836   -6.162033
   3 C     6.0000    0    12.011    7.445396    0.605397   -8.253812
   4 H     1.0000    0     1.008    7.757407   -1.237930   -7.384545
   5 H     1.0000    0     1.008    5.712267    0.530101   -9.367594
   6 C     6.0000    0    12.011    9.648650    1.262379  -10.025871
   7 C     6.0000    0    12.011   10.787727    6.555244  -10.061262
   8 N     7.0000    0    14.007   13.047984    5.742790  -10.803723
   9 N     7.0000    0    14.007    9.414397    8.113671  -11.522523
  10 H     1.0000    0     1.008    9.449663    7.750356  -13.393928
  11 H     1.0000    0     1.008    7.718951    8.686880  -10.846370
  12 H     1.0000    0     1.008   11.269114    4.773660   -6.883122
  13 H     1.0000    0     1.008   13.317210    3.905801  -10.343612
  14 H     1.0000    0     1.008   13.602523    6.251203  -12.557656
  15 H     1.0000    0     1.008    6.202128    5.573156   -8.768819
  16 H     1.0000    0     1.008    6.737353    6.641582   -5.636151
  17 H     1.0000    0     1.008    8.645182    2.296314   -4.725153
  18 H     1.0000    0     1.008    5.373463    2.382653   -5.199515
  19 O     8.0000    0    15.999    9.087942    2.173538  -12.121386
  20 F     9.0000    0    18.998   11.843606    1.067694   -9.107499

--------------------------------
INTERNAL COORDINATES (ANGSTROEM)
--------------------------------
 C      0   0   0     0.000000000000     0.00000000     0.00000000
 C      1   0   0     1.467141978358     0.00000000     0.00000000
 C      1   2   0     1.530063517905   109.95648736     0.00000000
 C      3   1   2     1.534779619809   114.26304417   287.08499053
 H      4   3   1     1.091033620284   108.87872696   165.98404284
 H      4   3   1     1.090916052212   109.87805700   285.05600920
 C      4   3   1     1.536086504513   110.62627363    44.77550193
 C      2   1   3     1.330414023142   124.60886225   117.82427755
 N      8   2   1     1.330340554584   117.88637737   216.04032271
 N      8   2   1     1.343945232509   120.98842718    40.55760065
 H     10   8   2     1.008967339645   115.96355102   215.01872382
 H     10   8   2     1.012415453042   117.36824842   356.14625482
 H      2   1   3     1.013266581664   112.80126275   337.30529129
 H      9   8   2     1.012197712497   111.46140142    44.03797432
 H      9   8   2     1.009921403817   116.52360736   180.07724841
 H      1   2   3     1.092418234860   108.70639248   240.06343406
 H      1   2   3     1.091887397005   109.26080405   121.65715898
 H      3   1   2     1.094783130927   108.29253614    49.74675079
 H      3   1   2     1.092698650205   107.88852219   164.36908434
 O      7   4   3     1.245061367518   116.77397318   256.40244270
 F      7   4   3     1.263298100477   116.39547193    69.30146499

---------------------------
INTERNAL COORDINATES (A.U.)
---------------------------
 C      0   0   0     0.000000000000     0.00000000     0.00000000
 C      1   0   0     2.772496538677     0.00000000     0.00000000
 C      1   2   0     2.891401016345   109.95648736     0.00000000
 C      3   1   2     2.900313157364   114.26304417   287.08499053
 H      4   3   1     2.061754745237   108.87872696   165.98404284
 H      4   3   1     2.061532573779   109.87805700   285.05600920
 C      4   3   1     2.902782811542   110.62627363    44.77550193
 C      2   1   3     2.514118148466   124.60886225   117.82427755
 N      8   2   1     2.513979313013   117.88637737   216.04032271
 N      8   2   1     2.539688428430   120.98842718    40.55760065
 H     10   8   2     1.906671950000   115.96355102   215.01872382
 H     10   8   2     1.913187940000   117.36824842   356.14625482
 H      2   1   3     1.914796340000   112.80126275   337.30529129
 H      9   8   2     1.912776470000   111.46140142    44.03797432
 H      9   8   2     1.908474870000   116.52360736   180.07724841
 H      1   2   3     2.064371287587   108.70639248   240.06343406
 H      1   2   3     2.063368149420   109.26080405   121.65715898
 H      3   1   2     2.068840293488   108.29253614    49.74675079
 H      3   1   2     2.064901195792   107.88852219   164.36908434
 O      7   4   3     2.352825004535   116.77397318   256.40244270
 F      7   4   3     2.387287435404   116.39547193    69.30146499

---------------------
BASIS SET INFORMATION
---------------------
There are 5 groups of distinct atoms

 Group   1 Type C   : 12s6p3d1f contracted to 6s3p3d1f pattern {621111/411/111/1}
 Group   2 Type H   : 5s2p contracted to 3s2p pattern {311/11}
 Group   3 Type N   : 12s6p3d1f contracted to 6s3p3d1f pattern {621111/411/111/1}
 Group   4 Type O   : 12s7p3d1f contracted to 6s4p3d1f pattern {621111/4111/111/1}
 Group   5 Type F   : 12s7p3d1f contracted to 6s4p3d1f pattern {621111/4111/111/1}

Atom   0C    basis set group =>   1
Atom   1C    basis set group =>   1
Atom   2C    basis set group =>   1
Atom   3C    basis set group =>   1
Atom   4H    basis set group =>   2
Atom   5H    basis set group =>   2
Atom   6C    basis set group =>   1
Atom   7C    basis set group =>   1
Atom   8N    basis set group =>   3
Atom   9N    basis set group =>   3
Atom  10H    basis set group =>   2
Atom  11H    basis set group =>   2
Atom  12H    basis set group =>   2
Atom  13H    basis set group =>   2
Atom  14H    basis set group =>   2
Atom  15H    basis set group =>   2
Atom  16H    basis set group =>   2
Atom  17H    basis set group =>   2
Atom  18H    basis set group =>   2
Atom  19O    basis set group =>   4
Atom  20F    basis set group =>   5
---------------------------------
AUXILIARY/J BASIS SET INFORMATION
---------------------------------
There are 5 groups of distinct atoms

 Group   1 Type C   : 12s5p4d2f1g contracted to 6s4p3d1f1g pattern {711111/2111/211/2/1}
 Group   2 Type H   : 5s2p1d contracted to 3s1p1d pattern {311/2/1}
 Group   3 Type N   : 12s5p4d2f1g contracted to 6s4p3d1f1g pattern {711111/2111/211/2/1}
 Group   4 Type O   : 12s5p4d2f1g contracted to 6s4p3d1f1g pattern {711111/2111/211/2/1}
 Group   5 Type F   : 12s5p4d2f1g contracted to 6s4p3d1f1g pattern {711111/2111/211/2/1}

Atom   0C    basis set group =>   1
Atom   1C    basis set group =>   1
Atom   2C    basis set group =>   1
Atom   3C    basis set group =>   1
Atom   4H    basis set group =>   2
Atom   5H    basis set group =>   2
Atom   6C    basis set group =>   1
Atom   7C    basis set group =>   1
Atom   8N    basis set group =>   3
Atom   9N    basis set group =>   3
Atom  10H    basis set group =>   2
Atom  11H    basis set group =>   2
Atom  12H    basis set group =>   2
Atom  13H    basis set group =>   2
Atom  14H    basis set group =>   2
Atom  15H    basis set group =>   2
Atom  16H    basis set group =>   2
Atom  17H    basis set group =>   2
Atom  18H    basis set group =>   2
Atom  19O    basis set group =>   4
Atom  20F    basis set group =>   5


           ************************************************************
           *        Program running with 4 parallel MPI-processes     *
           *              working on a common directory               *
           ************************************************************
------------------------------------------------------------------------------
                           ORCA GTO INTEGRAL CALCULATION
                           -- RI-GTO INTEGRALS CHOSEN --
------------------------------------------------------------------------------
------------------------------------------------------------------------------
                   ___                                                        
                  /   \      - P O W E R E D   B Y -                         
                 /     \                                                     
                 |  |  |   _    _      __       _____    __    __             
                 |  |  |  | |  | |    /  \     |  _  \  |  |  /  |          
                  \  \/   | |  | |   /    \    | | | |  |  | /  /          
                 / \  \   | |__| |  /  /\  \   | |_| |  |  |/  /          
                |  |  |   |  __  | /  /__\  \  |    /   |      \           
                |  |  |   | |  | | |   __   |  |    \   |  |\   \          
                \     /   | |  | | |  |  |  |  | |\  \  |  | \   \       
                 \___/    |_|  |_| |__|  |__|  |_| \__\ |__|  \__/        
                                                                              
                      - O R C A' S   B I G   F R I E N D -                    
                                      &                                       
                       - I N T E G R A L  F E E D E R -                       
                                                                              
 v1 FN, 2020, v2 2021                                                         
------------------------------------------------------------------------------


Reading SHARK input file 28Oct_TZVPD_B3LYP_D4_wb97.SHARKINP.tmp ... ok
----------------------
SHARK INTEGRAL PACKAGE
----------------------

Number of atoms                             ...     21
Number of basis functions                   ...    475
Number of shells                            ...    187
Maximum angular momentum                    ...      3
Integral batch strategy                     ... SHARK/LIBINT Hybrid
RI-J (if used) integral strategy            ... SPLIT-RIJ (Revised 2003 algorithm where possible)
Printlevel                                  ...      1
Contraction scheme used                     ... SEGMENTED contraction
Coulomb Range Separation                    ... NOT USED
Exchange Range Separation                   ... NOT USED
Finite Nucleus Model                        ... NOT USED
Auxiliary Coulomb fitting basis             ... AVAILABLE
   # of basis functions in Aux-J            ...    611
   # of shells in Aux-J                     ...    205
   Maximum angular momentum in Aux-J        ...      4
Auxiliary J/K fitting basis                 ... NOT available
Auxiliary Correlation fitting basis         ... NOT available
Auxiliary 'external' fitting basis          ... NOT available
Integral threshold                          ...     2.500000e-11
Primitive cut-off                           ...     2.500000e-12
Primitive pair pre-selection threshold      ...     2.500000e-12

Calculating pre-screening integrals         ... done (  0.1 sec) Dimension = 187
Organizing shell pair data                  ... done (  0.2 sec)
Shell pair information
Total number of shell pairs                 ...     17578
Shell pairs after pre-screening             ...     16535
Total number of primitive shell pairs       ...     45103
Primitive shell pairs kept                  ...     33320
          la=0 lb=0:   3937 shell pairs
          la=1 lb=0:   4758 shell pairs
          la=1 lb=1:   1447 shell pairs
          la=2 lb=0:   2639 shell pairs
          la=2 lb=1:   1584 shell pairs
          la=2 lb=2:    457 shell pairs
          la=3 lb=0:    843 shell pairs
          la=3 lb=1:    523 shell pairs
          la=3 lb=2:    293 shell pairs
          la=3 lb=3:     54 shell pairs

Calculating one electron integrals          ... done (  0.1 sec)
Calculating RI/J V-Matrix + Cholesky decomp.... done (  0.0 sec)
Calculating Nuclear repulsion               ... done (  0.0 sec) ENN=    595.155202188412 Eh

SHARK setup successfully completed in   0.5 seconds

Maximum memory used throughout the entire GTOINT-calculation: 25.9 MB


           ************************************************************
           *        Program running with 4 parallel MPI-processes     *
           *              working on a common directory               *
           ************************************************************
-------------------------------------------------------------------------------
                                 ORCA SCF
-------------------------------------------------------------------------------

------------
SCF SETTINGS
------------
Hamiltonian:
 Density Functional     Method          .... DFT(GTOs)
 Exchange Functional    Exchange        .... B88
   X-Alpha parameter    XAlpha          ....  0.666667
   Becke's b parameter  XBeta           ....  0.004200
 Correlation Functional Correlation     .... LYP
 LDA part of GGA corr.  LDAOpt          .... VWN-5
 Gradients option       PostSCFGGA      .... off
 Hybrid DFT is turned on
   Fraction HF Exchange ScalHFX         ....  0.200000
   Scaling of DF-GGA-X  ScalDFX         ....  0.720000
   Scaling of DF-GGA-C  ScalDFC         ....  0.810000
   Scaling of DF-LDA-C  ScalLDAC        ....  1.000000
   Perturbative correction              ....  0.000000
   Density functional embedding theory  .... OFF
   NL short-range parameter             ....  4.800000
 RI-approximation to the Coulomb term is turned on
   Number of AuxJ basis functions       .... 611
   RIJ-COSX (HFX calculated with COS-X)).... on


General Settings:
 Integral files         IntName         .... 28Oct_TZVPD_B3LYP_D4_wb97
 Hartree-Fock type      HFTyp           .... RHF
 Total Charge           Charge          ....    0
 Multiplicity           Mult            ....    1
 Number of Electrons    NEL             ....   78
 Basis Dimension        Dim             ....  475
 Nuclear Repulsion      ENuc            ....    595.1552021884 Eh

Convergence Acceleration:
 DIIS                   CNVDIIS         .... on
   Start iteration      DIISMaxIt       ....    12
   Startup error        DIISStart       ....  0.200000
   # of expansion vecs  DIISMaxEq       ....     5
   Bias factor          DIISBfac        ....   1.050
   Max. coefficient     DIISMaxC        ....  10.000
 Trust-Rad. Augm. Hess. CNVTRAH         .... auto
   Auto Start mean grad. ratio tolernc. ....  1.125000
   Auto Start start iteration           ....    20
   Auto Start num. interpolation iter.  ....    10
   Max. Number of Micro iterations      ....    16
   Max. Number of Macro iterations      .... Maxiter - #DIIS iter
   Number of Davidson start vectors     ....     2
   Converg. threshold I  (grad. norm)   ....   1.000e-05
   Converg. threshold II (energy diff.) ....   1.000e-08
   Grad. Scal. Fac. for Micro threshold ....   0.100
   Minimum threshold for Micro iter.    ....   0.010
   NR start threshold (gradient norm)   ....   0.001
   Initial trust radius                 ....   0.400
   Minimum AH scaling param. (alpha)    ....   1.000
   Maximum AH scaling param. (alpha)    .... 1000.000
   Orbital update algorithm             .... Taylor
   White noise on init. David. guess    .... on
   Maximum white noise                  ....   0.010
   Quad. conv. algorithm                .... NR
 SOSCF                  CNVSOSCF        .... on
   Start iteration      SOSCFMaxIt      ....   150
   Startup grad/error   SOSCFStart      ....  0.003300
 Level Shifting         CNVShift        .... on
   Level shift para.    LevelShift      ....    0.2500
   Turn off err/grad.   ShiftErr        ....    0.0010
 Zerner damping         CNVZerner       .... off
 Static damping         CNVDamp         .... on
   Fraction old density DampFac         ....    0.7000
   Max. Damping (<1)    DampMax         ....    0.9800
   Min. Damping (>=0)   DampMin         ....    0.0000
   Turn off err/grad.   DampErr         ....    0.1000
 Fernandez-Rico         CNVRico         .... off

SCF Procedure:
 Maximum # iterations   MaxIter         ....   150
 SCF integral mode      SCFMode         .... Direct
   Integral package                     .... SHARK and LIBINT hybrid scheme
 Reset frequency        DirectResetFreq ....    20
 Integral Threshold     Thresh          ....  2.500e-11 Eh
 Primitive CutOff       TCut            ....  2.500e-12 Eh

Convergence Tolerance:
 Convergence Check Mode ConvCheckMode   .... Total+1el-Energy
 Convergence forced     ConvForced      .... 0
 Energy Change          TolE            ....  1.000e-08 Eh
 1-El. energy change                    ....  1.000e-05 Eh
 Orbital Gradient       TolG            ....  1.000e-05
 Orbital Rotation angle TolX            ....  1.000e-05
 DIIS Error             TolErr          ....  5.000e-07


Diagonalization of the overlap matrix:
Smallest eigenvalue                        ... 1.188e-06
Time for diagonalization                   ...    0.043 sec
Threshold for overlap eigenvalues          ... 1.000e-08
Number of eigenvalues below threshold      ... 0
Time for construction of square roots      ...    0.035 sec
Total time needed                          ...    0.080 sec

Time for model grid setup =    0.253 sec

------------------------------
INITIAL GUESS: MODEL POTENTIAL
------------------------------
Loading Hartree-Fock densities                     ... done
Calculating cut-offs                               ... done
Initializing the effective Hamiltonian             ... done
Setting up the integral package (SHARK)            ... done
Starting the Coulomb interaction                   ... done (   0.3 sec)
Reading the grid                                   ... done
Mapping shells                                     ... done
Starting the XC term evaluation                    ... done (   0.5 sec)
  promolecular density results
     # of electrons  =     77.999710041
     EX              =    -65.639765223
     EC              =     -2.679848114
     EX+EC           =    -68.319613337
Transforming the Hamiltonian                       ... done (   0.0 sec)
Diagonalizing the Hamiltonian                      ... done (   0.0 sec)
Back transforming the eigenvectors                 ... done (   0.0 sec)
Now organizing SCF variables                       ... done
                      ------------------
                      INITIAL GUESS DONE (   1.2 sec)
                      ------------------
-------------------
DFT GRID GENERATION
-------------------

General Integration Accuracy     IntAcc      ... 4.388
Radial Grid Type                 RadialGrid  ... OptM3 with GC (2021)
Angular Grid (max. ang.)         AngularGrid ... 4 (Lebedev-302)
Angular grid pruning method      GridPruning ... 4 (adaptive)
Weight generation scheme         WeightScheme... Becke
Basis function cutoff            BFCut       ... 1.0000e-11
Integration weight cutoff        WCut        ... 1.0000e-14
Angular grids for H and He will be reduced by one unit
Partially contracted basis set               ... off
Rotationally invariant grid construction     ... off

Total number of grid points                  ...    99468
Total number of batches                      ...     1566
Average number of points per batch           ...       63
Average number of grid points per atom       ...     4737
Time for grid setup =    0.867 sec

--------------------
COSX GRID GENERATION
--------------------

GRIDX 1
-------
General Integration Accuracy     IntAcc      ... 3.816
Radial Grid Type                 RadialGrid  ... OptM3 with GC (2021)
Angular Grid (max. ang.)         AngularGrid ... 1 (Lebedev-50)
Angular grid pruning method      GridPruning ... 4 (adaptive)
Weight generation scheme         WeightScheme... Becke
Basis function cutoff            BFCut       ... 1.0000e-11
Integration weight cutoff        WCut        ... 1.0000e-14
Angular grids for H and He will be reduced by one unit
Partially contracted basis set               ... on
Rotationally invariant grid construction     ... off

Total number of grid points                  ...    12442
Total number of batches                      ...      206
Average number of points per batch           ...       60
Average number of grid points per atom       ...      592
UseSFitting                                  ... on

GRIDX 2
-------
General Integration Accuracy     IntAcc      ... 4.020
Radial Grid Type                 RadialGrid  ... OptM3 with GC (2021)
Angular Grid (max. ang.)         AngularGrid ... 2 (Lebedev-110)
Angular grid pruning method      GridPruning ... 4 (adaptive)
Weight generation scheme         WeightScheme... Becke
Basis function cutoff            BFCut       ... 1.0000e-11
Integration weight cutoff        WCut        ... 1.0000e-14
Angular grids for H and He will be reduced by one unit
Partially contracted basis set               ... on
Rotationally invariant grid construction     ... off

Total number of grid points                  ...    29550
Total number of batches                      ...      471
Average number of points per batch           ...       62
Average number of grid points per atom       ...     1407
UseSFitting                                  ... on

GRIDX 3
-------
General Integration Accuracy     IntAcc      ... 4.338
Radial Grid Type                 RadialGrid  ... OptM3 with GC (2021)
Angular Grid (max. ang.)         AngularGrid ... 3 (Lebedev-194)
Angular grid pruning method      GridPruning ... 4 (adaptive)
Weight generation scheme         WeightScheme... Becke
Basis function cutoff            BFCut       ... 1.0000e-11
Integration weight cutoff        WCut        ... 1.0000e-14
Angular grids for H and He will be reduced by one unit
Partially contracted basis set               ... on
Rotationally invariant grid construction     ... off

Total number of grid points                  ...    65698
Total number of batches                      ...     1039
Average number of points per batch           ...       63
Average number of grid points per atom       ...     3128
UseSFitting                                  ... on

Time for X-Grid setup             =    1.406 sec

--------------
SCF ITERATIONS
--------------
ITER       Energy         Delta-E        Max-DP      RMS-DP      [F,P]     Damp
               ***  Starting incremental Fock matrix formation  ***
  0   -519.2164229913   0.000000000000 0.92824613  0.00400498  0.3083348 0.7000
  1   -519.4541941136  -0.237771122269 0.70037369  0.00307391  0.1233904 0.7000
                               ***Turning on DIIS***
  2   -519.5359297428  -0.081735629188 0.80306260  0.00490503  0.0397634 0.0000
  3   -519.6701475336  -0.134217790841 0.57447693  0.00226782  0.0702571 0.0000
  4   -519.7016018983  -0.031454364655 0.14023110  0.00074022  0.0228330 0.0000
  5   -519.7041445209  -0.002542622626 0.09717971  0.00043352  0.0129792 0.0000
                      *** Initiating the SOSCF procedure ***
                           *** Shutting down DIIS ***
                      *** Re-Reading the Fockian *** 
                      *** Removing any level shift *** 
ITER      Energy       Delta-E        Grad      Rot      Max-DP    RMS-DP
  6   -519.70441577  -0.0002712525  0.000380  0.000380  0.034866  0.000342
               *** Restarting incremental Fock matrix formation ***
  7   -519.70445009  -0.0000343212  0.000102  0.000302  0.017961  0.000066
  8   -519.70444894   0.0000011587  0.000162  0.000260  0.001452  0.000018
  9   -519.70445171  -0.0000027767  0.000025  0.000098  0.005765  0.000021
 10   -519.70445163   0.0000000785  0.000044  0.000058  0.001982  0.000009
 11   -519.70445179  -0.0000001575  0.000011  0.000028  0.006035  0.000029
 12   -519.70445178   0.0000000118  0.000019  0.000020  0.001426  0.000011
                  ***Gradient check signals convergence***
              ***Rediagonalizing the Fockian in SOSCF/NRSCF***

               *****************************************************
               *                     SUCCESS                       *
               *           SCF CONVERGED AFTER  13 CYCLES          *
               *****************************************************

Old exchange energy                            =    -13.339883167 Eh
New exchange energy                            =    -13.339878598 Eh
Exchange energy change after final integration =      0.000004569 Eh
Total energy after final integration           =   -519.704447230 Eh
Final COS-X integration done in                =    21.349 sec

----------------
TOTAL SCF ENERGY
----------------

Total Energy       :         -519.70444723 Eh          -14141.87697 eV

Components:
Nuclear Repulsion  :          595.15520219 Eh           16194.99639 eV
Electronic Energy  :        -1114.85964942 Eh          -30336.87336 eV
One Electron Energy:        -1889.95491802 Eh          -51428.28788 eV
Two Electron Energy:          775.09526861 Eh           21091.41453 eV
Max COSX asymmetry :            0.00000233 Eh               0.00006 eV

Virial components:
Potential Energy   :        -1037.90433140 Eh          -28242.81269 eV
Kinetic Energy     :          518.19988417 Eh           14100.93573 eV
Virial Ratio       :            2.00290344


DFT components:
N(Alpha)           :       39.000094508304 electrons
N(Beta)            :       39.000094508304 electrons
N(Total)           :       78.000189016608 electrons
E(X)               :      -53.034820910262 Eh       
E(C)               :       -3.156322063900 Eh       
E(XC)              :      -56.191142974163 Eh       
DFET-embed. en.    :        0.000000000000 Eh       

---------------
SCF CONVERGENCE
---------------

  Last Energy change         ...   -1.9123e-08  Tolerance :   1.0000e-08
  Last MAX-Density change    ...    2.6645e-15  Tolerance :   1.0000e-07
  Last RMS-Density change    ...    1.8806e-17  Tolerance :   5.0000e-09
  Last Orbital Gradient      ...    1.2945e-06  Tolerance :   1.0000e-05
  Last Orbital Rotation      ...    2.8037e-06  Tolerance :   1.0000e-05

             **** THE GBW FILE WAS UPDATED (28Oct_TZVPD_B3LYP_D4_wb97.gbw) ****
             **** DENSITY 28Oct_TZVPD_B3LYP_D4_wb97.scfp WAS UPDATED ****
             **** ENERGY FILE WAS UPDATED (28Oct_TZVPD_B3LYP_D4_wb97.en.tmp) ****
             **** THE GBW FILE WAS UPDATED (28Oct_TZVPD_B3LYP_D4_wb97.gbw) ****
             **** DENSITY 28Oct_TZVPD_B3LYP_D4_wb97.scfp WAS UPDATED ****
----------------
ORBITAL ENERGIES
----------------

  NO   OCC          E(Eh)            E(eV) 
   0   2.0000     -24.757421      -673.6837 
   1   2.0000     -19.130136      -520.5575 
   2   2.0000     -14.317127      -389.5888 
   3   2.0000     -14.306322      -389.2948 
   4   2.0000     -10.347568      -281.5716 
   5   2.0000     -10.212607      -277.8992 
   6   2.0000     -10.194097      -277.3955 
   7   2.0000     -10.175874      -276.8996 
   8   2.0000     -10.155763      -276.3524 
   9   2.0000     -10.097481      -274.7664 
  10   2.0000      -1.326163       -36.0867 
  11   2.0000      -1.042013       -28.3546 
  12   2.0000      -0.962133       -26.1810 
  13   2.0000      -0.874060       -23.7844 
  14   2.0000      -0.816750       -22.2249 
  15   2.0000      -0.751143       -20.4396 
  16   2.0000      -0.695220       -18.9179 
  17   2.0000      -0.660128       -17.9630 
  18   2.0000      -0.609542       -16.5865 
  19   2.0000      -0.589045       -16.0287 
  20   2.0000      -0.555744       -15.1226 
  21   2.0000      -0.544002       -14.8030 
  22   2.0000      -0.528939       -14.3932 
  23   2.0000      -0.510253       -13.8847 
  24   2.0000      -0.501216       -13.6388 
  25   2.0000      -0.469603       -12.7786 
  26   2.0000      -0.463829       -12.6214 
  27   2.0000      -0.443164       -12.0591 
  28   2.0000      -0.429896       -11.6981 
  29   2.0000      -0.399649       -10.8750 
  30   2.0000      -0.384733       -10.4691 
  31   2.0000      -0.372834       -10.1453 
  32   2.0000      -0.364729        -9.9248 
  33   2.0000      -0.347154        -9.4465 
  34   2.0000      -0.338153        -9.2016 
  35   2.0000      -0.329015        -8.9530 
  36   2.0000      -0.291957        -7.9445 
  37   2.0000      -0.266750        -7.2586 
  38   2.0000      -0.175049        -4.7633 
  39   0.0000      -0.031637        -0.8609 
  40   0.0000       0.000613         0.0167 
  41   0.0000       0.014199         0.3864 
  42   0.0000       0.023641         0.6433 
  43   0.0000       0.030183         0.8213 
  44   0.0000       0.040655         1.1063 
  45   0.0000       0.049583         1.3492 
  46   0.0000       0.052455         1.4274 
  47   0.0000       0.062735         1.7071 
  48   0.0000       0.065058         1.7703 
  49   0.0000       0.079843         2.1726 
  50   0.0000       0.085650         2.3307 
  51   0.0000       0.091813         2.4984 
  52   0.0000       0.097318         2.6482 
  53   0.0000       0.106740         2.9045 
  54   0.0000       0.111099         3.0232 
  55   0.0000       0.116109         3.1595 
  56   0.0000       0.124774         3.3953 
  57   0.0000       0.128352         3.4926 
  58   0.0000       0.140162         3.8140 
  59   0.0000       0.148846         4.0503 
  60   0.0000       0.156147         4.2490 
  61   0.0000       0.158581         4.3152 
  62   0.0000       0.162783         4.4295 
  63   0.0000       0.172498         4.6939 
  64   0.0000       0.178029         4.8444 
  65   0.0000       0.180801         4.9198 
  66   0.0000       0.188341         5.1250 
  67   0.0000       0.195900         5.3307 
  68   0.0000       0.203359         5.5337 
  69   0.0000       0.208972         5.6864 
  70   0.0000       0.211358         5.7513 
  71   0.0000       0.216636         5.8950 
  72   0.0000       0.223697         6.0871 
  73   0.0000       0.224911         6.1201 
  74   0.0000       0.230059         6.2602 
  75   0.0000       0.235788         6.4161 
  76   0.0000       0.244645         6.6571 
  77   0.0000       0.248303         6.7567 
  78   0.0000       0.253359         6.8942 
  79   0.0000       0.260747         7.0953 
  80   0.0000       0.262736         7.1494 
  81   0.0000       0.263863         7.1801 
  82   0.0000       0.271964         7.4005 
  83   0.0000       0.274531         7.4704 
  84   0.0000       0.280960         7.6453 
  85   0.0000       0.286453         7.7948 
  86   0.0000       0.289069         7.8660 
  87   0.0000       0.290167         7.8958 
  88   0.0000       0.296787         8.0760 
  89   0.0000       0.304690         8.2910 
  90   0.0000       0.308383         8.3915 
  91   0.0000       0.315044         8.5728 
  92   0.0000       0.317983         8.6528 
  93   0.0000       0.321959         8.7610 
  94   0.0000       0.326261         8.8780 
  95   0.0000       0.337504         9.1840 
  96   0.0000       0.338477         9.2104 
  97   0.0000       0.339665         9.2427 
  98   0.0000       0.349013         9.4971 
  99   0.0000       0.355737         9.6801 
 100   0.0000       0.357131         9.7180 
 101   0.0000       0.360434         9.8079 
 102   0.0000       0.365664         9.9502 
 103   0.0000       0.369529        10.0554 
 104   0.0000       0.371739        10.1155 
 105   0.0000       0.377175        10.2634 
 106   0.0000       0.386020        10.5041 
 107   0.0000       0.390484        10.6256 
 108   0.0000       0.404129        10.9969 
 109   0.0000       0.405468        11.0333 
 110   0.0000       0.409509        11.1433 
 111   0.0000       0.413415        11.2496 
 112   0.0000       0.416979        11.3466 
 113   0.0000       0.423208        11.5161 
 114   0.0000       0.426635        11.6093 
 115   0.0000       0.430762        11.7216 
 116   0.0000       0.436015        11.8646 
 117   0.0000       0.439758        11.9664 
 118   0.0000       0.446472        12.1491 
 119   0.0000       0.451515        12.2863 
 120   0.0000       0.459619        12.5069 
 121   0.0000       0.463107        12.6018 
 122   0.0000       0.467781        12.7290 
 123   0.0000       0.474434        12.9100 
 124   0.0000       0.483378        13.1534 
 125   0.0000       0.485179        13.2024 
 126   0.0000       0.492357        13.3977 
 127   0.0000       0.492867        13.4116 
 128   0.0000       0.499381        13.5889 
 129   0.0000       0.505480        13.7548 
 130   0.0000       0.513035        13.9604 
 131   0.0000       0.519682        14.1413 
 132   0.0000       0.523178        14.2364 
 133   0.0000       0.527243        14.3470 
 134   0.0000       0.542706        14.7678 
 135   0.0000       0.544269        14.8103 
 136   0.0000       0.545101        14.8329 
 137   0.0000       0.556641        15.1470 
 138   0.0000       0.557834        15.1794 
 139   0.0000       0.567859        15.4522 
 140   0.0000       0.573062        15.5938 
 141   0.0000       0.576243        15.6804 
 142   0.0000       0.579954        15.7814 
 143   0.0000       0.586987        15.9727 
 144   0.0000       0.595697        16.2097 
 145   0.0000       0.601994        16.3811 
 146   0.0000       0.608298        16.5526 
 147   0.0000       0.612918        16.6784 
 148   0.0000       0.617760        16.8101 
 149   0.0000       0.620665        16.8892 
 150   0.0000       0.626243        17.0410 
 151   0.0000       0.645387        17.5619 
 152   0.0000       0.651109        17.7176 
 153   0.0000       0.659226        17.9385 
 154   0.0000       0.662099        18.0166 
 155   0.0000       0.674504        18.3542 
 156   0.0000       0.677504        18.4358 
 157   0.0000       0.682984        18.5849 
 158   0.0000       0.688264        18.7286 
 159   0.0000       0.697670        18.9846 
 160   0.0000       0.698099        18.9962 
 161   0.0000       0.705226        19.1902 
 162   0.0000       0.713264        19.4089 
 163   0.0000       0.718615        19.5545 
 164   0.0000       0.723748        19.6942 
 165   0.0000       0.732678        19.9372 
 166   0.0000       0.734868        19.9968 
 167   0.0000       0.744198        20.2507 
 168   0.0000       0.746198        20.3051 
 169   0.0000       0.752091        20.4654 
 170   0.0000       0.761832        20.7305 
 171   0.0000       0.762214        20.7409 
 172   0.0000       0.764674        20.8078 
 173   0.0000       0.787377        21.4256 
 174   0.0000       0.789730        21.4896 
 175   0.0000       0.794463        21.6184 
 176   0.0000       0.802570        21.8390 
 177   0.0000       0.806973        21.9589 
 178   0.0000       0.817289        22.2396 
 179   0.0000       0.825279        22.4570 
 180   0.0000       0.831802        22.6345 
 181   0.0000       0.851817        23.1791 
 182   0.0000       0.855093        23.2683 
 183   0.0000       0.858335        23.3565 
 184   0.0000       0.862232        23.4625 
 185   0.0000       0.870563        23.6892 
 186   0.0000       0.880921        23.9711 
 187   0.0000       0.887056        24.1380 
 188   0.0000       0.899736        24.4831 
 189   0.0000       0.906879        24.6774 
 190   0.0000       0.916181        24.9305 
 191   0.0000       0.923396        25.1269 
 192   0.0000       0.947356        25.7789 
 193   0.0000       0.949940        25.8492 
 194   0.0000       0.964389        26.2424 
 195   0.0000       0.966011        26.2865 
 196   0.0000       0.982220        26.7276 
 197   0.0000       0.986398        26.8412 
 198   0.0000       1.003317        27.3016 
 199   0.0000       1.015150        27.6236 
 200   0.0000       1.032182        28.0871 
 201   0.0000       1.039518        28.2867 
 202   0.0000       1.042278        28.3618 
 203   0.0000       1.065485        28.9933 
 204   0.0000       1.069770        29.1099 
 205   0.0000       1.077458        29.3191 
 206   0.0000       1.091086        29.6900 
 207   0.0000       1.116101        30.3707 
 208   0.0000       1.122128        30.5347 
 209   0.0000       1.136542        30.9269 
 210   0.0000       1.154490        31.4153 
 211   0.0000       1.177070        32.0297 
 212   0.0000       1.188791        32.3486 
 213   0.0000       1.193530        32.4776 
 214   0.0000       1.210646        32.9434 
 215   0.0000       1.213994        33.0345 
 216   0.0000       1.229060        33.4444 
 217   0.0000       1.237278        33.6681 
 218   0.0000       1.263786        34.3894 
 219   0.0000       1.269512        34.5452 
 220   0.0000       1.301419        35.4134 
 221   0.0000       1.313331        35.7376 
 222   0.0000       1.319243        35.8984 
 223   0.0000       1.330010        36.1914 
 224   0.0000       1.355278        36.8790 
 225   0.0000       1.365698        37.1625 
 226   0.0000       1.371812        37.3289 
 227   0.0000       1.377988        37.4970 
 228   0.0000       1.397879        38.0382 
 229   0.0000       1.410240        38.3746 
 230   0.0000       1.418994        38.6128 
 231   0.0000       1.436302        39.0838 
 232   0.0000       1.438692        39.1488 
 233   0.0000       1.449685        39.4479 
 234   0.0000       1.472161        40.0595 
 235   0.0000       1.486452        40.4484 
 236   0.0000       1.500602        40.8335 
 237   0.0000       1.520554        41.3764 
 238   0.0000       1.563003        42.5315 
 239   0.0000       1.573565        42.8189 
 240   0.0000       1.588751        43.2321 
 241   0.0000       1.604116        43.6502 
 242   0.0000       1.633601        44.4525 
 243   0.0000       1.661783        45.2194 
 244   0.0000       1.666248        45.3409 
 245   0.0000       1.713199        46.6185 
 246   0.0000       1.743546        47.4443 
 247   0.0000       1.774398        48.2838 
 248   0.0000       1.794921        48.8423 
 249   0.0000       1.808216        49.2041 
 250   0.0000       1.827260        49.7223 
 251   0.0000       1.838897        50.0389 
 252   0.0000       1.852108        50.3984 
 253   0.0000       1.861438        50.6523 
 254   0.0000       1.875462        51.0339 
 255   0.0000       1.885404        51.3045 
 256   0.0000       1.890668        51.4477 
 257   0.0000       1.902002        51.7561 
 258   0.0000       1.908875        51.9431 
 259   0.0000       1.918514        52.2054 
 260   0.0000       1.925587        52.3979 
 261   0.0000       1.943082        52.8740 
 262   0.0000       1.952542        53.1314 
 263   0.0000       1.973688        53.7068 
 264   0.0000       1.979703        53.8704 
 265   0.0000       1.993443        54.2443 
 266   0.0000       2.002828        54.4997 
 267   0.0000       2.008091        54.6429 
 268   0.0000       2.038967        55.4831 
 269   0.0000       2.068129        56.2766 
 270   0.0000       2.072402        56.3929 
 271   0.0000       2.087389        56.8007 
 272   0.0000       2.099747        57.1370 
 273   0.0000       2.120205        57.6937 
 274   0.0000       2.142980        58.3134 
 275   0.0000       2.156610        58.6843 
 276   0.0000       2.170173        59.0534 
 277   0.0000       2.185208        59.4625 
 278   0.0000       2.196834        59.7789 
 279   0.0000       2.209536        60.1245 
 280   0.0000       2.226539        60.5872 
 281   0.0000       2.239397        60.9371 
 282   0.0000       2.270291        61.7777 
 283   0.0000       2.281661        62.0872 
 284   0.0000       2.298427        62.5434 
 285   0.0000       2.304560        62.7103 
 286   0.0000       2.325120        63.2697 
 287   0.0000       2.348152        63.8965 
 288   0.0000       2.365748        64.3753 
 289   0.0000       2.377251        64.6883 
 290   0.0000       2.385418        64.9105 
 291   0.0000       2.412564        65.6492 
 292   0.0000       2.419062        65.8260 
 293   0.0000       2.436506        66.3007 
 294   0.0000       2.464116        67.0520 
 295   0.0000       2.501690        68.0744 
 296   0.0000       2.511548        68.3427 
 297   0.0000       2.529925        68.8427 
 298   0.0000       2.547191        69.3126 
 299   0.0000       2.565966        69.8235 
 300   0.0000       2.602232        70.8103 
 301   0.0000       2.606125        70.9163 
 302   0.0000       2.609984        71.0213 
 303   0.0000       2.627973        71.5108 
 304   0.0000       2.640708        71.8573 
 305   0.0000       2.653719        72.2114 
 306   0.0000       2.666948        72.5714 
 307   0.0000       2.685924        73.0877 
 308   0.0000       2.692855        73.2763 
 309   0.0000       2.713613        73.8412 
 310   0.0000       2.721640        74.0596 
 311   0.0000       2.736070        74.4523 
 312   0.0000       2.763110        75.1881 
 313   0.0000       2.771559        75.4179 
 314   0.0000       2.791014        75.9474 
 315   0.0000       2.810058        76.4656 
 316   0.0000       2.827487        76.9398 
 317   0.0000       2.839184        77.2581 
 318   0.0000       2.848198        77.5034 
 319   0.0000       2.861550        77.8667 
 320   0.0000       2.874749        78.2259 
 321   0.0000       2.885223        78.5109 
 322   0.0000       2.902960        78.9936 
 323   0.0000       2.924125        79.5695 
 324   0.0000       2.939787        79.9957 
 325   0.0000       2.967255        80.7431 
 326   0.0000       2.993289        81.4515 
 327   0.0000       2.996588        81.5413 
 328   0.0000       3.000413        81.6454 
 329   0.0000       3.030136        82.4542 
 330   0.0000       3.049325        82.9764 
 331   0.0000       3.071593        83.5823 
 332   0.0000       3.087579        84.0173 
 333   0.0000       3.105291        84.4993 
 334   0.0000       3.119998        84.8995 
 335   0.0000       3.136701        85.3540 
 336   0.0000       3.167550        86.1934 
 337   0.0000       3.178830        86.5004 
 338   0.0000       3.201945        87.1294 
 339   0.0000       3.219444        87.6055 
 340   0.0000       3.228621        87.8552 
 341   0.0000       3.246937        88.3536 
 342   0.0000       3.261265        88.7435 
 343   0.0000       3.266828        88.8949 
 344   0.0000       3.272013        89.0360 
 345   0.0000       3.281963        89.3068 
 346   0.0000       3.301635        89.8421 
 347   0.0000       3.310642        90.0871 
 348   0.0000       3.317555        90.2753 
 349   0.0000       3.345525        91.0364 
 350   0.0000       3.351748        91.2057 
 351   0.0000       3.369674        91.6935 
 352   0.0000       3.383018        92.0566 
 353   0.0000       3.394884        92.3795 
 354   0.0000       3.408820        92.7587 
 355   0.0000       3.442759        93.6822 
 356   0.0000       3.451961        93.9326 
 357   0.0000       3.463140        94.2368 
 358   0.0000       3.467307        94.3502 
 359   0.0000       3.487361        94.8959 
 360   0.0000       3.500384        95.2503 
 361   0.0000       3.509972        95.5112 
 362   0.0000       3.526394        95.9581 
 363   0.0000       3.535829        96.2148 
 364   0.0000       3.557013        96.7912 
 365   0.0000       3.582914        97.4961 
 366   0.0000       3.597069        97.8812 
 367   0.0000       3.614578        98.3577 
 368   0.0000       3.639273        99.0297 
 369   0.0000       3.663470        99.6881 
 370   0.0000       3.688255       100.3625 
 371   0.0000       3.691188       100.4423 
 372   0.0000       3.725801       101.3842 
 373   0.0000       3.736165       101.6662 
 374   0.0000       3.750920       102.0677 
 375   0.0000       3.771707       102.6334 
 376   0.0000       3.789784       103.1253 
 377   0.0000       3.804881       103.5361 
 378   0.0000       3.861388       105.0737 
 379   0.0000       3.877671       105.5168 
 380   0.0000       3.908450       106.3543 
 381   0.0000       3.926437       106.8438 
 382   0.0000       3.947946       107.4291 
 383   0.0000       3.962038       107.8125 
 384   0.0000       3.985393       108.4481 
 385   0.0000       4.001392       108.8834 
 386   0.0000       4.010988       109.1445 
 387   0.0000       4.053547       110.3026 
 388   0.0000       4.069805       110.7450 
 389   0.0000       4.101673       111.6122 
 390   0.0000       4.108801       111.8062 
 391   0.0000       4.127960       112.3275 
 392   0.0000       4.155529       113.0777 
 393   0.0000       4.192289       114.0780 
 394   0.0000       4.232780       115.1798 
 395   0.0000       4.256597       115.8279 
 396   0.0000       4.274875       116.3253 
 397   0.0000       4.317267       117.4788 
 398   0.0000       4.336772       118.0096 
 399   0.0000       4.383496       119.2810 
 400   0.0000       4.417703       120.2118 
 401   0.0000       4.434632       120.6725 
 402   0.0000       4.469583       121.6235 
 403   0.0000       4.504282       122.5677 
 404   0.0000       4.544043       123.6497 
 405   0.0000       4.574102       124.4676 
 406   0.0000       4.582328       124.6915 
 407   0.0000       4.623037       125.7992 
 408   0.0000       4.649953       126.5317 
 409   0.0000       4.720320       128.4464 
 410   0.0000       4.732715       128.7837 
 411   0.0000       4.793750       130.4446 
 412   0.0000       4.810585       130.9027 
 413   0.0000       4.824452       131.2800 
 414   0.0000       4.841009       131.7306 
 415   0.0000       4.874254       132.6352 
 416   0.0000       4.900713       133.3552 
 417   0.0000       4.910819       133.6302 
 418   0.0000       4.969321       135.2221 
 419   0.0000       5.002423       136.1229 
 420   0.0000       5.014225       136.4440 
 421   0.0000       5.059528       137.6767 
 422   0.0000       5.070960       137.9878 
 423   0.0000       5.088270       138.4589 
 424   0.0000       5.110482       139.0633 
 425   0.0000       5.142872       139.9447 
 426   0.0000       5.206891       141.6867 
 427   0.0000       5.220023       142.0440 
 428   0.0000       5.247386       142.7886 
 429   0.0000       5.261358       143.1688 
 430   0.0000       5.290136       143.9519 
 431   0.0000       5.348466       145.5391 
 432   0.0000       5.410828       147.2361 
 433   0.0000       5.427720       147.6958 
 434   0.0000       5.490147       149.3945 
 435   0.0000       5.508038       149.8813 
 436   0.0000       5.531203       150.5117 
 437   0.0000       5.535352       150.6246 
 438   0.0000       5.574758       151.6969 
 439   0.0000       5.670488       154.3018 
 440   0.0000       5.737710       156.1310 
 441   0.0000       5.758248       156.6899 
 442   0.0000       6.045061       164.4945 
 443   0.0000       6.050951       164.6548 
 444   0.0000       6.066387       165.0748 
 445   0.0000       6.202664       168.7831 
 446   0.0000       6.243413       169.8919 
 447   0.0000       6.318561       171.9368 
 448   0.0000       6.582182       179.1103 
 449   0.0000       6.643598       180.7815 
 450   0.0000       6.817479       185.5130 
 451   0.0000       6.838693       186.0903 
 452   0.0000       6.907358       187.9588 
 453   0.0000       6.928098       188.5231 
 454   0.0000       7.081105       192.6867 
 455   0.0000       7.150638       194.5787 
 456   0.0000       7.248932       197.2535 
 457   0.0000       7.404670       201.4913 
 458   0.0000       7.558906       205.6883 
 459   0.0000       7.819946       212.7916 
 460   0.0000       8.572072       233.2580 
 461   0.0000       8.596093       233.9116 
 462   0.0000       8.879072       241.6118 
 463   0.0000       9.014570       245.2989 
 464   0.0000       9.261762       252.0254 
 465   0.0000      22.672791       616.9580 
 466   0.0000      22.734418       618.6350 
 467   0.0000      22.834048       621.3460 
 468   0.0000      23.141318       629.7073 
 469   0.0000      23.479815       638.9183 
 470   0.0000      23.594334       642.0345 
 471   0.0000      32.413265       882.0098 
 472   0.0000      32.618999       887.6081 
 473   0.0000      44.427245      1208.9268 
 474   0.0000      57.870979      1574.7494 

                    ********************************
                    * MULLIKEN POPULATION ANALYSIS *
                    ********************************

-----------------------
MULLIKEN ATOMIC CHARGES
-----------------------
   0 C :   -0.050121
   1 C :   -0.592704
   2 C :   -0.644367
   3 C :   -0.482379
   4 H :    0.263019
   5 H :    0.233768
   6 C :    0.898737
   7 C :   -0.044832
   8 N :   -0.372900
   9 N :   -0.425426
  10 H :    0.145118
  11 H :    0.209885
  12 H :    0.489408
  13 H :    0.267977
  14 H :    0.165135
  15 H :    0.255598
  16 H :    0.099324
  17 H :    0.266675
  18 H :    0.195199
  19 O :   -0.568644
  20 F :   -0.308469
Sum of atomic charges:    0.0000000

--------------------------------
MULLIKEN REDUCED ORBITAL CHARGES
--------------------------------
  0 C s       :     3.031626  s :     3.031626
      pz      :     1.121228  p :     2.994306
      px      :     1.000580
      py      :     0.872498
      dz2     :    -0.019260  d :     0.017996
      dxz     :    -0.000582
      dyz     :     0.041989
      dx2y2   :     0.002892
      dxy     :    -0.007043
      f0      :     0.000261  f :     0.006194
      f+1     :     0.000978
      f-1     :     0.000676
      f+2     :     0.001474
      f-2     :     0.000385
      f+3     :     0.001141
      f-3     :     0.001278
  1 C s       :     3.275568  s :     3.275568
      pz      :     0.979147  p :     3.255638
      px      :     0.956246
      py      :     1.320245
      dz2     :     0.002865  d :     0.054308
      dxz     :    -0.020497
      dyz     :     0.019787
      dx2y2   :     0.055050
      dxy     :    -0.002897
      f0      :     0.001591  f :     0.007190
      f+1     :     0.001075
      f-1     :     0.000771
      f+2     :     0.001191
      f-2     :     0.000948
      f+3     :     0.000839
      f-3     :     0.000773
  2 C s       :     3.399496  s :     3.399496
      pz      :     1.073590  p :     3.199844
      px      :     1.176899
      py      :     0.949356
      dz2     :    -0.005126  d :     0.039187
      dxz     :     0.023259
      dyz     :     0.007994
      dx2y2   :     0.037932
      dxy     :    -0.024872
      f0      :     0.000448  f :     0.005839
      f+1     :     0.000216
      f-1     :     0.001288
      f+2     :     0.001821
      f-2     :     0.000723
      f+3     :     0.000897
      f-3     :     0.000446
  3 C s       :     3.290457  s :     3.290457
      pz      :     0.993783  p :     3.122162
      px      :     1.015296
      py      :     1.113083
      dz2     :     0.000174  d :     0.064237
      dxz     :     0.008556
      dyz     :     0.016669
      dx2y2   :     0.044057
      dxy     :    -0.005220
      f0      :     0.000707  f :     0.005523
      f+1     :     0.000587
      f-1     :     0.000647
      f+2     :     0.001977
      f-2     :     0.000958
      f+3     :     0.000357
      f-3     :     0.000291
  4 H s       :     0.701482  s :     0.701482
      pz      :     0.011263  p :     0.035499
      px      :    -0.003894
      py      :     0.028130
  5 H s       :     0.730350  s :     0.730350
      pz      :     0.006965  p :     0.035882
      px      :     0.027510
      py      :     0.001406
  6 C s       :     3.076804  s :     3.076804
      pz      :     0.615511  p :     1.724293
      px      :     0.484244
      py      :     0.624538
      dz2     :     0.038425  d :     0.271571
      dxz     :     0.119436
      dyz     :     0.043775
      dx2y2   :     0.030756
      dxy     :     0.039179
      f0      :     0.004188  f :     0.028596
      f+1     :     0.007859
      f-1     :     0.002327
      f+2     :     0.004438
      f-2     :     0.003626
      f+3     :     0.002463
      f-3     :     0.003695
  7 C s       :     3.515146  s :     3.515146
      pz      :     0.771457  p :     2.296383
      px      :     0.609089
      py      :     0.915836
      dz2     :     0.056063  d :     0.214105
      dxz     :     0.036615
      dyz     :     0.064722
      dx2y2   :     0.046948
      dxy     :     0.009757
      f0      :     0.002429  f :     0.019199
      f+1     :     0.003284
      f-1     :     0.002214
      f+2     :     0.003386
      f-2     :     0.002593
      f+3     :     0.002865
      f-3     :     0.002427
  8 N s       :     3.538631  s :     3.538631
      pz      :     1.273092  p :     3.813756
      px      :     1.271178
      py      :     1.269485
      dz2     :     0.000348  d :     0.017527
      dxz     :    -0.005378
      dyz     :     0.008763
      dx2y2   :     0.008020
      dxy     :     0.005775
      f0      :     0.000361  f :     0.002986
      f+1     :     0.000529
      f-1     :     0.000330
      f+2     :     0.000432
      f-2     :     0.000359
      f+3     :     0.000378
      f-3     :     0.000597
  9 N s       :     3.514329  s :     3.514329
      pz      :     1.093129  p :     3.874514
      px      :     1.260181
      py      :     1.521204
      dz2     :     0.000968  d :     0.033513
      dxz     :     0.004882
      dyz     :     0.010419
      dx2y2   :     0.009530
      dxy     :     0.007715
      f0      :     0.000646  f :     0.003069
      f+1     :     0.000212
      f-1     :     0.000409
      f+2     :     0.000331
      f-2     :     0.000394
      f+3     :     0.000504
      f-3     :     0.000574
 10 H s       :     0.807311  s :     0.807311
      pz      :     0.022282  p :     0.047571
      px      :     0.011349
      py      :     0.013940
 11 H s       :     0.757346  s :     0.757346
      pz      :    -0.002086  p :     0.032769
      px      :     0.021255
      py      :     0.013600
 12 H s       :     0.452909  s :     0.452909
      pz      :     0.010595  p :     0.057683
      px      :     0.010351
      py      :     0.036738
 13 H s       :     0.706203  s :     0.706203
      pz      :     0.021410  p :     0.025820
      px      :    -0.009010
      py      :     0.013420
 14 H s       :     0.797170  s :     0.797170
      pz      :     0.019246  p :     0.037695
      px      :     0.006926
      py      :     0.011523
 15 H s       :     0.686481  s :     0.686481
      pz      :     0.037176  p :     0.057921
      px      :     0.027509
      py      :    -0.006764
 16 H s       :     0.817403  s :     0.817403
      pz      :     0.038600  p :     0.083273
      px      :     0.029026
      py      :     0.015647
 17 H s       :     0.696099  s :     0.696099
      pz      :     0.015587  p :     0.037226
      px      :     0.010544
      py      :     0.011094
 18 H s       :     0.736043  s :     0.736043
      pz      :     0.016352  p :     0.068758
      px      :     0.027412
      py      :     0.024994
 19 O s       :     4.015937  s :     4.015937
      pz      :     1.318108  p :     4.517927
      px      :     1.789051
      py      :     1.410769
      dz2     :     0.012447  d :     0.033073
      dxz     :     0.004333
      dyz     :     0.010455
      dx2y2   :     0.004331
      dxy     :     0.001507
      f0      :     0.000501  f :     0.001706
      f+1     :     0.000361
      f-1     :     0.000323
      f+2     :     0.000222
      f-2     :     0.000217
      f+3     :     0.000042
      f-3     :     0.000039
 20 F s       :     4.018719  s :     4.018719
      pz      :     1.852045  p :     5.260664
      px      :     1.537814
      py      :     1.870805
      dz2     :     0.004121  d :     0.028234
      dxz     :     0.003454
      dyz     :     0.004615
      dx2y2   :     0.006936
      dxy     :     0.009108
      f0      :     0.000094  f :     0.000852
      f+1     :     0.000168
      f-1     :     0.000006
      f+2     :     0.000201
      f-2     :     0.000080
      f+3     :     0.000165
      f-3     :     0.000139


                     *******************************
                     * LOEWDIN POPULATION ANALYSIS *
                     *******************************

----------------------
LOEWDIN ATOMIC CHARGES
----------------------
   0 C :   -0.217305
   1 C :   -0.134808
   2 C :   -0.188208
   3 C :   -0.083941
   4 H :    0.114379
   5 H :    0.120218
   6 C :   -0.485014
   7 C :   -0.561926
   8 N :    0.140434
   9 N :    0.151176
  10 H :    0.100190
  11 H :    0.102009
  12 H :    0.066082
  13 H :    0.079348
  14 H :    0.105976
  15 H :    0.107129
  16 H :    0.102950
  17 H :    0.113801
  18 H :    0.108210
  19 O :    0.083342
  20 F :    0.175959

-------------------------------
LOEWDIN REDUCED ORBITAL CHARGES
-------------------------------
  0 C s       :     2.659624  s :     2.659624
      pz      :     0.903075  p :     2.730483
      px      :     0.934644
      py      :     0.892763
      dz2     :     0.084916  d :     0.781709
      dxz     :     0.173434
      dyz     :     0.163030
      dx2y2   :     0.169951
      dxy     :     0.190379
      f0      :     0.003323  f :     0.045490
      f+1     :     0.007302
      f-1     :     0.005421
      f+2     :     0.006712
      f-2     :     0.004346
      f+3     :     0.009025
      f-3     :     0.009362
  1 C s       :     2.642252  s :     2.642252
      pz      :     0.931502  p :     2.713055
      px      :     0.894941
      py      :     0.886612
      dz2     :     0.136389  d :     0.730667
      dxz     :     0.217025
      dyz     :     0.110518
      dx2y2   :     0.126801
      dxy     :     0.139934
      f0      :     0.010794  f :     0.048834
      f+1     :     0.009557
      f-1     :     0.005677
      f+2     :     0.006167
      f-2     :     0.006150
      f+3     :     0.005286
      f-3     :     0.005201
  2 C s       :     2.674423  s :     2.674423
      pz      :     0.902595  p :     2.732119
      px      :     0.921784
      py      :     0.907740
      dz2     :     0.112450  d :     0.741797
      dxz     :     0.159010
      dyz     :     0.178482
      dx2y2   :     0.174517
      dxy     :     0.117338
      f0      :     0.005366  f :     0.039869
      f+1     :     0.002446
      f-1     :     0.008414
      f+2     :     0.007203
      f-2     :     0.004810
      f+3     :     0.007524
      f-3     :     0.004107
  3 C s       :     2.674199  s :     2.674199
      pz      :     0.912188  p :     2.719535
      px      :     0.887129
      py      :     0.920218
      dz2     :     0.125359  d :     0.652671
      dxz     :     0.176214
      dyz     :     0.134319
      dx2y2   :     0.146574
      dxy     :     0.070205
      f0      :     0.007655  f :     0.037537
      f+1     :     0.004262
      f-1     :     0.004847
      f+2     :     0.007204
      f-2     :     0.005902
      f+3     :     0.004112
      f-3     :     0.003554
  4 H s       :     0.684171  s :     0.684171
      pz      :     0.060066  p :     0.201449
      px      :     0.052619
      py      :     0.088764
  5 H s       :     0.674828  s :     0.674828
      pz      :     0.069628  p :     0.204955
      px      :     0.083374
      py      :     0.051953
  6 C s       :     2.628565  s :     2.628565
      pz      :     0.863577  p :     2.303197
      px      :     0.786958
      py      :     0.652661
      dz2     :     0.299774  d :     1.371221
      dxz     :     0.414774
      dyz     :     0.226160
      dx2y2   :     0.220084
      dxy     :     0.210430
      f0      :     0.025592  f :     0.182032
      f+1     :     0.047468
      f-1     :     0.016514
      f+2     :     0.027602
      f-2     :     0.021861
      f+3     :     0.020539
      f-3     :     0.022456
  7 C s       :     2.589889  s :     2.589889
      pz      :     0.916902  p :     2.515423
      px      :     0.834353
      py      :     0.764167
      dz2     :     0.290179  d :     1.338392
      dxz     :     0.289556
      dyz     :     0.269225
      dx2y2   :     0.284155
      dxy     :     0.205277
      f0      :     0.014886  f :     0.118221
      f+1     :     0.022660
      f-1     :     0.015279
      f+2     :     0.019433
      f-2     :     0.012948
      f+3     :     0.017604
      f-3     :     0.015412
  8 N s       :     2.908702  s :     2.908702
      pz      :     1.159064  p :     3.531076
      px      :     1.233936
      py      :     1.138077
      dz2     :     0.082951  d :     0.406691
      dxz     :     0.093302
      dyz     :     0.038769
      dx2y2   :     0.099098
      dxy     :     0.092571
      f0      :     0.001417  f :     0.013096
      f+1     :     0.001944
      f-1     :     0.001299
      f+2     :     0.002209
      f-2     :     0.001175
      f+3     :     0.002042
      f-3     :     0.003011
  9 N s       :     2.917859  s :     2.917859
      pz      :     1.083517  p :     3.543128
      px      :     1.152361
      py      :     1.307250
      dz2     :     0.125133  d :     0.375740
      dxz     :     0.057641
      dyz     :     0.062096
      dx2y2   :     0.068072
      dxy     :     0.062798
      f0      :     0.001766  f :     0.012097
      f+1     :     0.001041
      f-1     :     0.002116
      f+2     :     0.002194
      f-2     :     0.001964
      f+3     :     0.001282
      f-3     :     0.001734
 10 H s       :     0.632035  s :     0.632035
      pz      :     0.114356  p :     0.267774
      px      :     0.067332
      py      :     0.086086
 11 H s       :     0.619241  s :     0.619241
      pz      :     0.072136  p :     0.278750
      px      :     0.117922
      py      :     0.088693
 12 H s       :     0.669892  s :     0.669892
      pz      :     0.079082  p :     0.264026
      px      :     0.081895
      py      :     0.103049
 13 H s       :     0.590788  s :     0.590788
      pz      :     0.084874  p :     0.329864
      px      :     0.082040
      py      :     0.162950
 14 H s       :     0.632149  s :     0.632149
      pz      :     0.121026  p :     0.261875
      px      :     0.075732
      py      :     0.065117
 15 H s       :     0.667259  s :     0.667259
      pz      :     0.096640  p :     0.225612
      px      :     0.067580
      py      :     0.061391
 16 H s       :     0.692290  s :     0.692290
      pz      :     0.074954  p :     0.204760
      px      :     0.062966
      py      :     0.066840
 17 H s       :     0.676458  s :     0.676458
      pz      :     0.071269  p :     0.209741
      px      :     0.085394
      py      :     0.053079
 18 H s       :     0.688529  s :     0.688529
      pz      :     0.060586  p :     0.203261
      px      :     0.090124
      py      :     0.052551
 19 O s       :     3.348377  s :     3.348377
      pz      :     1.442521  p :     4.316663
      px      :     1.579120
      py      :     1.295022
      dz2     :     0.071344  d :     0.246119
      dxz     :     0.063156
      dyz     :     0.065544
      dx2y2   :     0.022160
      dxy     :     0.023916
      f0      :     0.001248  f :     0.005499
      f+1     :     0.001294
      f-1     :     0.001450
      f+2     :     0.000586
      f-2     :     0.000755
      f+3     :     0.000078
      f-3     :     0.000087
 20 F s       :     3.480623  s :     3.480623
      pz      :     1.736062  p :     5.073767
      px      :     1.615184
      py      :     1.722521
      dz2     :     0.040063  d :     0.267519
      dxz     :     0.064328
      dyz     :     0.029663
      dx2y2   :     0.073246
      dxy     :     0.060220
      f0      :     0.000200  f :     0.002131
      f+1     :     0.000514
      f-1     :     0.000008
      f+2     :     0.000467
      f-2     :     0.000216
      f+3     :     0.000431
      f-3     :     0.000296


                      *****************************
                      * MAYER POPULATION ANALYSIS *
                      *****************************

  NA   - Mulliken gross atomic population
  ZA   - Total nuclear charge
  QA   - Mulliken gross atomic charge
  VA   - Mayer's total valence
  BVA  - Mayer's bonded valence
  FA   - Mayer's free valence

  ATOM       NA         ZA         QA         VA         BVA        FA
  0 C      6.0501     6.0000    -0.0501     3.3812     3.3812     0.0000
  1 C      6.5927     6.0000    -0.5927     3.3854     3.3854    -0.0000
  2 C      6.6444     6.0000    -0.6444     3.9083     3.9083     0.0000
  3 C      6.4824     6.0000    -0.4824     3.8620     3.8620    -0.0000
  4 H      0.7370     1.0000     0.2630     0.9267     0.9267    -0.0000
  5 H      0.7662     1.0000     0.2338     0.9909     0.9909    -0.0000
  6 C      5.1013     6.0000     0.8987     3.3227     3.3227    -0.0000
  7 C      6.0448     6.0000    -0.0448     3.4882     3.4882    -0.0000
  8 N      7.3729     7.0000    -0.3729     2.8560     2.8560    -0.0000
  9 N      7.4254     7.0000    -0.4254     2.9664     2.9664     0.0000
 10 H      0.8549     1.0000     0.1451     0.9973     0.9973     0.0000
 11 H      0.7901     1.0000     0.2099     0.9263     0.9263     0.0000
 12 H      0.5106     1.0000     0.4894     0.8557     0.8557    -0.0000
 13 H      0.7320     1.0000     0.2680     0.8947     0.8947    -0.0000
 14 H      0.8349     1.0000     0.1651     0.9443     0.9443     0.0000
 15 H      0.7444     1.0000     0.2556     0.9470     0.9470     0.0000
 16 H      0.9007     1.0000     0.0993     1.1418     1.1418     0.0000
 17 H      0.7333     1.0000     0.2667     0.9518     0.9518     0.0000
 18 H      0.8048     1.0000     0.1952     1.0241     1.0241     0.0000
 19 O      8.5686     8.0000    -0.5686     1.8334     1.8334    -0.0000
 20 F      9.3085     9.0000    -0.3085     0.9565     0.9565    -0.0000

  Mayer bond orders larger than 0.100000
B(  0-C ,  1-C ) :   0.6043 B(  0-C ,  2-C ) :   0.7531 B(  0-C , 15-H ) :   0.8789 
B(  0-C , 16-H ) :   1.1300 B(  1-C ,  2-C ) :   0.2187 B(  1-C ,  7-C ) :   1.6575 
B(  1-C ,  9-N ) :   0.1020 B(  1-C , 12-H ) :   0.8430 B(  2-C ,  3-C ) :   0.9338 
B(  2-C , 17-H ) :   0.9235 B(  2-C , 18-H ) :   1.0169 B(  3-C ,  4-H ) :   0.9248 
B(  3-C ,  5-H ) :   0.9706 B(  3-C ,  6-C ) :   0.9144 B(  6-C , 19-O ) :   1.5893 
B(  6-C , 20-F ) :   0.7845 B(  7-C ,  8-N ) :   0.9658 B(  7-C ,  9-N ) :   0.8290 
B(  8-N , 13-H ) :   0.8434 B(  8-N , 14-H ) :   0.9117 B(  9-N , 10-H ) :   0.9845 
B(  9-N , 11-H ) :   0.9164 

-------
TIMINGS
-------

Total SCF time: 0 days 0 hours 2 min 31 sec 

Total time                  ....     151.157 sec
Sum of individual times     ....     150.497 sec  ( 99.6%)

Fock matrix formation       ....     145.762 sec  ( 96.4%)
  Split-RI-J                ....       9.556 sec  (  6.6% of F)
  Chain of spheres X        ....     115.767 sec  ( 79.4% of F)
  XC integration            ....      20.216 sec  ( 13.9% of F)
    Basis function eval.    ....       4.515 sec  ( 22.3% of XC)
    Density eval.           ....       6.374 sec  ( 31.5% of XC)
    XC-Functional eval.     ....       0.383 sec  (  1.9% of XC)
    XC-Potential eval.      ....       8.184 sec  ( 40.5% of XC)
Diagonalization             ....       0.526 sec  (  0.3%)
Density matrix formation    ....       0.035 sec  (  0.0%)
Population analysis         ....       0.061 sec  (  0.0%)
Initial guess               ....       0.917 sec  (  0.6%)
Orbital Transformation      ....       0.000 sec  (  0.0%)
Orbital Orthonormalization  ....       0.000 sec  (  0.0%)
DIIS solution               ....       0.279 sec  (  0.2%)
SOSCF solution              ....       0.392 sec  (  0.3%)
Grid generation             ....       2.526 sec  (  1.7%)

Maximum memory used throughout the entire SCF-calculation: 107.5 MB


-------------------------------------------------------------------------------
                          DFT DISPERSION CORRECTION                            
                                                                               
                              DFTD3 V3.1  Rev 1                                
                          USING Becke-Johnson damping                          
-------------------------------------------------------------------------------
The B3LYP functional is recognized
Active option DFTDOPT                   ...         4   

molecular C6(AA) [au] = 3727.685838 


            DFT-D V3
 parameters
 s6 scaling factor         :     1.0000 
 a1 scaling factor         :     0.3981 
 s8 scaling factor         :     1.9889 
 a2 scaling factor         :     4.4211 
 ad hoc parameters k1-k3   :    16.0000     1.3333    -4.0000 

 Edisp/kcal,au: -23.782753904116  -0.037900226770 
 E6   /kcal   : -11.533646952 
 E8   /kcal   : -12.249106952 
 % E8         :  51.504157177 

-------------------------   ----------------
Dispersion correction           -0.037900227
-------------------------   ----------------


-------------------------   --------------------
FINAL SINGLE POINT ENERGY      -519.742347456351
-------------------------   --------------------


                            ***************************************
                            *     ORCA property calculations      *
                            ***************************************

                                    ---------------------
                                    Active property flags
                                    ---------------------
   (+) Dipole Moment


------------------------------------------------------------------------------
                       ORCA ELECTRIC PROPERTIES CALCULATION
------------------------------------------------------------------------------

Dipole Moment Calculation                       ... on
Quadrupole Moment Calculation                   ... off
Polarizability Calculation                      ... off
GBWName                                         ... 28Oct_TZVPD_B3LYP_D4_wb97.gbw
Electron density file                           ... 28Oct_TZVPD_B3LYP_D4_wb97.scfp
The origin for moment calculation is the CENTER OF MASS  = ( 9.657959,  3.862298 -9.361498)

-------------
DIPOLE MOMENT
-------------
                                X             Y             Z
Electronic contribution:      5.84065      -4.48909      -3.89542
Nuclear contribution   :     -6.25608       3.89116       3.75052
                        -----------------------------------------
Total Dipole Moment    :     -0.41543      -0.59793      -0.14490
                        -----------------------------------------
Magnitude (a.u.)       :      0.74236
Magnitude (Debye)      :      1.88693



--------------------
Rotational spectrum 
--------------------
 
Rotational constants in cm-1:     0.061229     0.042568     0.033282 
Rotational constants in MHz :  1835.590871  1276.154029   997.769927 

 Dipole components along the rotational axes: 
x,y,z [a.u.] :    -0.593911     0.151187    -0.418939 
x,y,z [Debye]:    -1.509603     0.384286    -1.064859 

 

Timings for individual modules:

Sum of individual times         ...      152.388 sec (=   2.540 min)
GTO integral calculation        ...        0.858 sec (=   0.014 min)   0.6 %
SCF iterations                  ...      151.529 sec (=   2.525 min)  99.4 %
                             ****ORCA TERMINATED NORMALLY****
TOTAL RUN TIME: 0 days 0 hours 2 minutes 32 seconds 967 msec
