
                                        *****************
                                        * O   R   C   A *
                                        *****************

                                            #,                                       
                                            ###                                      
                                            ####                                     
                                            #####                                    
                                            ######                                   
                                           ########,                                 
                                     ,,################,,,,,                         
                               ,,#################################,,                 
                          ,,##########################################,,             
                       ,#########################################, ''#####,          
                    ,#############################################,,   '####,        
                  ,##################################################,,,,####,       
                ,###########''''           ''''###############################       
              ,#####''   ,,,,##########,,,,          '''####'''          '####       
            ,##' ,,,,###########################,,,                        '##       
           ' ,,###''''                  '''############,,,                           
         ,,##''                                '''############,,,,        ,,,,,,###''
      ,#''                                            '''#######################'''  
     '                                                          ''''####''''         
             ,#######,   #######,   ,#######,      ##                                
            ,#'     '#,  ##    ##  ,#'     '#,    #''#        ######   ,####,        
            ##       ##  ##   ,#'  ##            #'  '#       #        #'  '#        
            ##       ##  #######   ##           ,######,      #####,   #    #        
            '#,     ,#'  ##    ##  '#,     ,#' ,#      #,         ##   #,  ,#        
             '#######'   ##     ##  '#######'  #'      '#     #####' # '####'        



                  #######################################################
                  #                        -***-                        #
                  #          Department of theory and spectroscopy      #
                  #    Directorship and core code : Frank Neese         #
                  #        Max Planck Institute fuer Kohlenforschung    #
                  #                Kaiser Wilhelm Platz 1               #
                  #                 D-45470 Muelheim/Ruhr               #
                  #                      Germany                        #
                  #                                                     #
                  #                  All rights reserved                #
                  #                        -***-                        #
                  #######################################################


                         Program Version 5.0.0 -  RELEASE  -
                                (SVN: $Rev: 19529$)
                ($Date: 2021-06-28 11:36:33 +0200 (Mo, 28 Jun 2021) $)


 With contributions from (in alphabetic order):
   Daniel Aravena         : Magnetic Suceptibility
   Michael Atanasov       : Ab Initio Ligand Field Theory (pilot matlab implementation)
   Alexander A. Auer      : GIAO ZORA, VPT2 properties, NMR spectrum
   Ute Becker             : Parallelization
   Giovanni Bistoni       : ED, misc. LED, open-shell LED, HFLD
   Martin Brehm           : Molecular dynamics
   Dmytro Bykov           : SCF Hessian
   Vijay G. Chilkuri      : MRCI spin determinant printing, contributions to CSF-ICE
   Dipayan Datta          : RHF DLPNO-CCSD density
   Achintya Kumar Dutta   : EOM-CC, STEOM-CC
   Dmitry Ganyushin       : Spin-Orbit,Spin-Spin,Magnetic field MRCI
   Miquel Garcia          : C-PCM Hessian, Gaussian charge scheme
   Yang Guo               : DLPNO-NEVPT2, F12-NEVPT2, CIM, IAO-localization
   Andreas Hansen         : Spin unrestricted coupled pair/coupled cluster methods
   Benjamin Helmich-Paris : MC-RPA, TRAH-SCF, COSX integrals
   Lee Huntington         : MR-EOM, pCC
   Robert Izsak           : Overlap fitted RIJCOSX, COSX-SCS-MP3, EOM
   Marcus Kettner         : VPT2
   Christian Kollmar      : KDIIS, OOCD, Brueckner-CCSD(T), CCSD density, CASPT2, CASPT2-K
   Simone Kossmann        : Meta GGA functionals, TD-DFT gradient, OOMP2, MP2 Hessian
   Martin Krupicka        : Initial AUTO-CI
   Lucas Lang             : DCDCAS
   Marvin Lechner         : AUTO-CI (C++ implementation), FIC-MRCC
   Dagmar Lenk            : GEPOL surface, SMD
   Dimitrios Liakos       : Extrapolation schemes; Compound Job, initial MDCI parallelization
   Dimitrios Manganas     : Further ROCIS development; embedding schemes
   Dimitrios Pantazis     : SARC Basis sets
   Anastasios Papadopoulos: AUTO-CI, single reference methods and gradients
   Taras Petrenko         : DFT Hessian,TD-DFT gradient, ASA, ECA, R-Raman, ABS, FL, XAS/XES, NRVS
   Peter Pinski           : DLPNO-MP2, DLPNO-MP2 Gradient
   Christoph Reimann      : Effective Core Potentials
   Marius Retegan         : Local ZFS, SOC
   Christoph Riplinger    : Optimizer, TS searches, QM/MM, DLPNO-CCSD(T), (RO)-DLPNO pert. Triples
   Tobias Risthaus        : Range-separated hybrids, TD-DFT gradient, RPA, STAB
   Michael Roemelt        : Original ROCIS implementation
   Masaaki Saitow         : Open-shell DLPNO-CCSD energy and density
   Barbara Sandhoefer     : DKH picture change effects
   Avijit Sen             : IP-ROCIS
   Kantharuban Sivalingam : CASSCF convergence, NEVPT2, FIC-MRCI
   Bernardo de Souza      : ESD, SOC TD-DFT
   Georgi Stoychev        : AutoAux, RI-MP2 NMR
   Willem Van den Heuvel  : Paramagnetic NMR
   Boris Wezisla          : Elementary symmetry handling
   Frank Wennmohs         : Technical directorship


 We gratefully acknowledge several colleagues who have allowed us to
 interface, adapt or use parts of their codes:
   Stefan Grimme, W. Hujo, H. Kruse, P. Pracht,  : VdW corrections, initial TS optimization,
                  C. Bannwarth, S. Ehlert          DFT functionals, gCP, sTDA/sTD-DF
   Ed Valeev, F. Pavosevic, A. Kumar             : LibInt (2-el integral package), F12 methods
   Garnet Chan, S. Sharma, J. Yang, R. Olivares  : DMRG
   Ulf Ekstrom                                   : XCFun DFT Library
   Mihaly Kallay                                 : mrcc  (arbitrary order and MRCC methods)
   Jiri Pittner, Ondrej Demel                    : Mk-CCSD
   Frank Weinhold                                : gennbo (NPA and NBO analysis)
   Christopher J. Cramer and Donald G. Truhlar   : smd solvation model
   Lars Goerigk                                  : TD-DFT with DH, B97 family of functionals
   V. Asgeirsson, H. Jonsson                     : NEB implementation
   FAccTs GmbH                                   : IRC, NEB, NEB-TS, DLPNO-Multilevel, CI-OPT
                                                   MM, QMMM, 2- and 3-layer-ONIOM, Crystal-QMMM,
                                                   LR-CPCM, SF, NACMEs, symmetry and pop. for TD-DFT,
                                                   nearIR, NL-DFT gradient (VV10), updates on ESD,
                                                   ML-optimized integration grids
   S Lehtola, MJT Oliveira, MAL Marques          : LibXC Library
   Liviu Ungur et al                             : ANISO software


 Your calculation uses the libint2 library for the computation of 2-el integrals
 For citations please refer to: http://libint.valeyev.net

 Your ORCA version has been built with support for libXC version: 5.1.0
 For citations please refer to: https://tddft.org/programs/libxc/

 This ORCA versions uses:
   CBLAS   interface :  Fast vector & matrix operations
   LAPACKE interface :  Fast linear algebra routines
   SCALAPACK package :  Parallel linear algebra routines
   Shared memory     :  Shared parallel matrices
   BLAS/LAPACK       :  OpenBLAS 0.3.15  USE64BITINT DYNAMIC_ARCH NO_AFFINITY Haswell SINGLE_THREADED
        Core in use  :  Haswell
   Copyright (c) 2011-2014, The OpenBLAS Project


Your calculation utilizes the atom-pairwise dispersion correction
with the Becke-Johnson damping scheme (D3BJ)
Cite in your paper:
S.Grimme, S.Ehrlich, L.Goerigk, J Comput Chem, (2011), 32, 1456–1465 
S.Grimme, J.Antony, S.Ehrlich and H.Krieg, J.Chem.Phys., 132, (2010), 154104 
   

================================================================================

----- Orbital basis set information -----
Your calculation utilizes the basis: def2-SVPD
   F. Weigend and R. Ahlrichs, Phys. Chem. Chem. Phys. 7, 3297 (2005).
   D. Rappoport and F. Furche, J. Chem. Phys. 133 134105 (2010).

----- AuxJ basis set information -----
Your calculation utilizes the auxiliary basis: def2/J
   F. Weigend, Phys. Chem. Chem. Phys. 8, 1057 (2006).

================================================================================
                                        WARNINGS
                       Please study these warnings very carefully!
================================================================================


INFO   : the flag for use of the SHARK integral package has been found!

================================================================================
                                       INPUT FILE
================================================================================
NAME = 14Feb_SVPD_PBE0_A_wt_wb97_typ1_neg.com
|  1> !PBE0 D3BJ RIJCOSX def2-SVPD def2/J TightSCF 
|  2> *xyz -1 1
|  3> C          4.93020       -7.37532       -2.64962
|  4> C          3.84189       -6.95161       -3.63283
|  5> H          3.45814       -5.95442       -3.40712
|  6> H          2.98848       -7.64361       -3.56708
|  7> S          4.31812       -6.91593       -5.36869
|  8> O          5.40615       -5.89948       -5.51297
|  9> O          3.11191       -6.44508       -6.04379
| 10> C          6.17399       -6.48552       -2.60631
| 11> H          4.46961       -7.40617       -1.65588
| 12> H          5.23013       -8.39868       -2.88591
| 13> O          4.76340       -8.23942       -5.69863
| 14> H          6.62449       -6.45478       -3.57637
| 15> H          6.87304       -6.88376       -1.90088
| 16> H          5.89434       -5.49571       -2.31140
| 17> *
| 18> 
| 19> %MaxCore 64000
| 20> 
| 21> %pal nprocs 8
| 22> end  
| 23> 
| 24> %scf
| 25>   MaxIter 150
| 26> end
| 27> 
| 28> 
| 29>                          ****END OF INPUT****
================================================================================

                       ****************************
                       * Single Point Calculation *
                       ****************************

---------------------------------
CARTESIAN COORDINATES (ANGSTROEM)
---------------------------------
  C      4.930200   -7.375320   -2.649620
  C      3.841890   -6.951610   -3.632830
  H      3.458140   -5.954420   -3.407120
  H      2.988480   -7.643610   -3.567080
  S      4.318120   -6.915930   -5.368690
  O      5.406150   -5.899480   -5.512970
  O      3.111910   -6.445080   -6.043790
  C      6.173990   -6.485520   -2.606310
  H      4.469610   -7.406170   -1.655880
  H      5.230130   -8.398680   -2.885910
  O      4.763400   -8.239420   -5.698630
  H      6.624490   -6.454780   -3.576370
  H      6.873040   -6.883760   -1.900880
  H      5.894340   -5.495710   -2.311400

----------------------------
CARTESIAN COORDINATES (A.U.)
----------------------------
  NO LB      ZA    FRAG     MASS         X           Y           Z
   0 C     6.0000    0    12.011    9.316728  -13.937335   -5.007056
   1 C     6.0000    0    12.011    7.260120  -13.136639   -6.865054
   2 H     1.0000    0     1.008    6.534938  -11.252223   -6.438524
   3 H     1.0000    0     1.008    5.647409  -14.444330   -6.740804
   4 S    16.0000    0    32.060    8.160064  -13.069214  -10.145354
   5 O     8.0000    0    15.999   10.216143  -11.148402  -10.418003
   6 O     8.0000    0    15.999    5.880658  -12.179436  -11.421108
   7 C     6.0000    0    12.011   11.667150  -12.255857   -4.925212
   8 H     1.0000    0     1.008    8.446339  -13.995633   -3.129160
   9 H     1.0000    0     1.008    9.883513  -15.871205   -5.453580
  10 O     8.0000    0    15.999    9.001521  -15.570247  -10.768850
  11 H     1.0000    0     1.008   12.518472  -12.197766   -6.758360
  12 H     1.0000    0     1.008   12.988163  -13.008421   -3.592143
  13 H     1.0000    0     1.008   11.138688  -10.385387   -4.367913

--------------------------------
INTERNAL COORDINATES (ANGSTROEM)
--------------------------------
 C      0   0   0     0.000000000000     0.00000000     0.00000000
 C      1   0   0     1.526646889199     0.00000000     0.00000000
 H      2   1   0     1.092060878660   111.76657198     0.00000000
 H      2   1   3     1.100679649398   109.86246394   241.61204958
 S      2   1   3     1.800354969138   115.96941522   121.52143752
 O      5   2   1     1.495926669927   107.38869656   297.68884658
 O      5   2   1     1.460274733261   103.51153753   181.67714202
 C      1   2   3     1.529912860329   115.87230956   299.62488677
 H      1   2   3     1.095725357104   106.99235855    61.93754525
 H      1   2   3     1.092271330119   108.44900947   176.54294881
 O      5   2   1     1.434838130975   106.58999943    58.18902687
 H      8   1   2     1.070005421108   109.47102995   301.01982198
 H      8   1   2     1.069998824766   109.47126889   181.02026995
 H      8   1   2     1.069999937710   109.47161890    61.01999562

---------------------------
INTERNAL COORDINATES (A.U.)
---------------------------
 C      0   0   0     0.000000000000     0.00000000     0.00000000
 C      1   0   0     2.884944523788     0.00000000     0.00000000
 H      2   1   0     2.063695982237   111.76657198     0.00000000
 H      2   1   3     2.079983098544   109.86246394   241.61204958
 S      2   1   3     3.402177835515   115.96941522   121.52143752
 O      5   2   1     2.826891722592   107.38869656   297.68884658
 O      5   2   1     2.759519326148   103.51153753   181.67714202
 C      1   2   3     2.891116314786   115.87230956   299.62488677
 H      1   2   3     2.070620842919   106.99235855    61.93754525
 H      1   2   3     2.064093677859   108.44900947   176.54294881
 O      5   2   1     2.711451114050   106.58999943    58.18902687
 H      8   1   2     2.022017207705   109.47102995   301.01982198
 H      8   1   2     2.022004742425   109.47126889   181.02026995
 H      8   1   2     2.022006845585   109.47161890    61.01999562

---------------------
BASIS SET INFORMATION
---------------------
There are 4 groups of distinct atoms

 Group   1 Type C   : 8s4p2d contracted to 4s2p2d pattern {5111/31/11}
 Group   2 Type H   : 4s2p contracted to 2s2p pattern {31/11}
 Group   3 Type S   : 11s8p2d contracted to 5s4p2d pattern {53111/5111/11}
 Group   4 Type O   : 8s5p2d contracted to 4s3p2d pattern {5111/311/11}

Atom   0C    basis set group =>   1
Atom   1C    basis set group =>   1
Atom   2H    basis set group =>   2
Atom   3H    basis set group =>   2
Atom   4S    basis set group =>   3
Atom   5O    basis set group =>   4
Atom   6O    basis set group =>   4
Atom   7C    basis set group =>   1
Atom   8H    basis set group =>   2
Atom   9H    basis set group =>   2
Atom  10O    basis set group =>   4
Atom  11H    basis set group =>   2
Atom  12H    basis set group =>   2
Atom  13H    basis set group =>   2
---------------------------------
AUXILIARY/J BASIS SET INFORMATION
---------------------------------
There are 4 groups of distinct atoms

 Group   1 Type C   : 12s5p4d2f1g contracted to 6s4p3d1f1g pattern {711111/2111/211/2/1}
 Group   2 Type H   : 5s2p1d contracted to 3s1p1d pattern {311/2/1}
 Group   3 Type S   : 14s5p5d2f1g contracted to 8s4p3d1f1g pattern {71111111/2111/311/2/1}
 Group   4 Type O   : 12s5p4d2f1g contracted to 6s4p3d1f1g pattern {711111/2111/211/2/1}

Atom   0C    basis set group =>   1
Atom   1C    basis set group =>   1
Atom   2H    basis set group =>   2
Atom   3H    basis set group =>   2
Atom   4S    basis set group =>   3
Atom   5O    basis set group =>   4
Atom   6O    basis set group =>   4
Atom   7C    basis set group =>   1
Atom   8H    basis set group =>   2
Atom   9H    basis set group =>   2
Atom  10O    basis set group =>   4
Atom  11H    basis set group =>   2
Atom  12H    basis set group =>   2
Atom  13H    basis set group =>   2


           ************************************************************
           *        Program running with 8 parallel MPI-processes     *
           *              working on a common directory               *
           ************************************************************
------------------------------------------------------------------------------
                           ORCA GTO INTEGRAL CALCULATION
                           -- RI-GTO INTEGRALS CHOSEN --
------------------------------------------------------------------------------
------------------------------------------------------------------------------
                   ___                                                        
                  /   \      - P O W E R E D   B Y -                         
                 /     \                                                     
                 |  |  |   _    _      __       _____    __    __             
                 |  |  |  | |  | |    /  \     |  _  \  |  |  /  |          
                  \  \/   | |  | |   /    \    | | | |  |  | /  /          
                 / \  \   | |__| |  /  /\  \   | |_| |  |  |/  /          
                |  |  |   |  __  | /  /__\  \  |    /   |      \           
                |  |  |   | |  | | |   __   |  |    \   |  |\   \          
                \     /   | |  | | |  |  |  |  | |\  \  |  | \   \       
                 \___/    |_|  |_| |__|  |__|  |_| \__\ |__|  \__/        
                                                                              
                      - O R C A' S   B I G   F R I E N D -                    
                                      &                                       
                       - I N T E G R A L  F E E D E R -                       
                                                                              
 v1 FN, 2020, v2 2021                                                         
------------------------------------------------------------------------------


Reading SHARK input file 14Feb_SVPD_PBE0_A_wt_wb97_typ1_neg.SHARKINP.tmp ... ok
----------------------
SHARK INTEGRAL PACKAGE
----------------------

Number of atoms                             ...     14
Number of basis functions                   ...    212
Number of shells                            ...     90
Maximum angular momentum                    ...      2
Integral batch strategy                     ... SHARK/LIBINT Hybrid
RI-J (if used) integral strategy            ... SPLIT-RIJ (Revised 2003 algorithm where possible)
Printlevel                                  ...      1
Contraction scheme used                     ... SEGMENTED contraction
Coulomb Range Separation                    ... NOT USED
Exchange Range Separation                   ... NOT USED
Finite Nucleus Model                        ... NOT USED
Auxiliary Coulomb fitting basis             ... AVAILABLE
   # of basis functions in Aux-J            ...    422
   # of shells in Aux-J                     ...    142
   Maximum angular momentum in Aux-J        ...      4
Auxiliary J/K fitting basis                 ... NOT available
Auxiliary Correlation fitting basis         ... NOT available
Auxiliary 'external' fitting basis          ... NOT available
Integral threshold                          ...     2.500000e-11
Primitive cut-off                           ...     2.500000e-12
Primitive pair pre-selection threshold      ...     2.500000e-12

Calculating pre-screening integrals         ... done (  0.1 sec) Dimension = 90
Organizing shell pair data                  ... done (  0.0 sec)
Shell pair information
Total number of shell pairs                 ...      4095
Shell pairs after pre-screening             ...      3995
Total number of primitive shell pairs       ...     11447
Primitive shell pairs kept                  ...      9108
          la=0 lb=0:    910 shell pairs
          la=1 lb=0:   1382 shell pairs
          la=1 lb=1:    553 shell pairs
          la=2 lb=0:    590 shell pairs
          la=2 lb=1:    456 shell pairs
          la=2 lb=2:    104 shell pairs

Calculating one electron integrals          ... done (  0.0 sec)
Calculating RI/J V-Matrix + Cholesky decomp.... done (  0.0 sec)
Calculating Nuclear repulsion               ... done (  0.0 sec) ENN=    433.720736545401 Eh

SHARK setup successfully completed in   0.2 seconds

Maximum memory used throughout the entire GTOINT-calculation: 8.9 MB


           ************************************************************
           *        Program running with 8 parallel MPI-processes     *
           *              working on a common directory               *
           ************************************************************
-------------------------------------------------------------------------------
                                 ORCA SCF
-------------------------------------------------------------------------------

------------
SCF SETTINGS
------------
Hamiltonian:
 Density Functional     Method          .... DFT(GTOs)
 Exchange Functional    Exchange        .... PBE
   PBE kappa parameter   XKappa         ....  0.804000
   PBE mue parameter    XMuePBE         ....  0.219520
 Correlation Functional Correlation     .... PBE
   PBE beta parameter  CBetaPBE         ....  0.066725
 LDA part of GGA corr.  LDAOpt          .... PW91-LDA
 Gradients option       PostSCFGGA      .... off
 Hybrid DFT is turned on
   Fraction HF Exchange ScalHFX         ....  0.250000
   Scaling of DF-GGA-X  ScalDFX         ....  0.750000
   Scaling of DF-GGA-C  ScalDFC         ....  1.000000
   Scaling of DF-LDA-C  ScalLDAC        ....  1.000000
   Perturbative correction              ....  0.000000
   Density functional embedding theory  .... OFF
   NL short-range parameter             ....  6.900000
 RI-approximation to the Coulomb term is turned on
   Number of AuxJ basis functions       .... 422
   RIJ-COSX (HFX calculated with COS-X)).... on


General Settings:
 Integral files         IntName         .... 14Feb_SVPD_PBE0_A_wt_wb97_typ1_neg
 Hartree-Fock type      HFTyp           .... RHF
 Total Charge           Charge          ....   -1
 Multiplicity           Mult            ....    1
 Number of Electrons    NEL             ....   66
 Basis Dimension        Dim             ....  212
 Nuclear Repulsion      ENuc            ....    433.7207365454 Eh

Convergence Acceleration:
 DIIS                   CNVDIIS         .... on
   Start iteration      DIISMaxIt       ....    12
   Startup error        DIISStart       ....  0.200000
   # of expansion vecs  DIISMaxEq       ....     5
   Bias factor          DIISBfac        ....   1.050
   Max. coefficient     DIISMaxC        ....  10.000
 Trust-Rad. Augm. Hess. CNVTRAH         .... auto
   Auto Start mean grad. ratio tolernc. ....  1.125000
   Auto Start start iteration           ....    20
   Auto Start num. interpolation iter.  ....    10
   Max. Number of Micro iterations      ....    16
   Max. Number of Macro iterations      .... Maxiter - #DIIS iter
   Number of Davidson start vectors     ....     2
   Converg. threshold I  (grad. norm)   ....   1.000e-05
   Converg. threshold II (energy diff.) ....   1.000e-08
   Grad. Scal. Fac. for Micro threshold ....   0.100
   Minimum threshold for Micro iter.    ....   0.010
   NR start threshold (gradient norm)   ....   0.001
   Initial trust radius                 ....   0.400
   Minimum AH scaling param. (alpha)    ....   1.000
   Maximum AH scaling param. (alpha)    .... 1000.000
   Orbital update algorithm             .... Taylor
   White noise on init. David. guess    .... on
   Maximum white noise                  ....   0.010
   Quad. conv. algorithm                .... NR
 SOSCF                  CNVSOSCF        .... on
   Start iteration      SOSCFMaxIt      ....   150
   Startup grad/error   SOSCFStart      ....  0.003300
 Level Shifting         CNVShift        .... on
   Level shift para.    LevelShift      ....    0.2500
   Turn off err/grad.   ShiftErr        ....    0.0010
 Zerner damping         CNVZerner       .... off
 Static damping         CNVDamp         .... on
   Fraction old density DampFac         ....    0.7000
   Max. Damping (<1)    DampMax         ....    0.9800
   Min. Damping (>=0)   DampMin         ....    0.0000
   Turn off err/grad.   DampErr         ....    0.1000
 Fernandez-Rico         CNVRico         .... off

SCF Procedure:
 Maximum # iterations   MaxIter         ....   150
 SCF integral mode      SCFMode         .... Direct
   Integral package                     .... SHARK and LIBINT hybrid scheme
 Reset frequency        DirectResetFreq ....    20
 Integral Threshold     Thresh          ....  2.500e-11 Eh
 Primitive CutOff       TCut            ....  2.500e-12 Eh

Convergence Tolerance:
 Convergence Check Mode ConvCheckMode   .... Total+1el-Energy
 Convergence forced     ConvForced      .... 0
 Energy Change          TolE            ....  1.000e-08 Eh
 1-El. energy change                    ....  1.000e-05 Eh
 Orbital Gradient       TolG            ....  1.000e-05
 Orbital Rotation angle TolX            ....  1.000e-05
 DIIS Error             TolErr          ....  5.000e-07


Diagonalization of the overlap matrix:
Smallest eigenvalue                        ... 1.695e-04
Time for diagonalization                   ...    0.012 sec
Threshold for overlap eigenvalues          ... 1.000e-08
Number of eigenvalues below threshold      ... 0
Time for construction of square roots      ...    0.009 sec
Total time needed                          ...    0.022 sec

Time for model grid setup =    0.073 sec

------------------------------
INITIAL GUESS: MODEL POTENTIAL
------------------------------
Loading Hartree-Fock densities                     ... done
Calculating cut-offs                               ... done
Initializing the effective Hamiltonian             ... done
Setting up the integral package (SHARK)            ... done
Starting the Coulomb interaction                   ... done (   0.0 sec)
Reading the grid                                   ... done
Mapping shells                                     ... done
Starting the XC term evaluation                    ... done (   0.1 sec)
  promolecular density results
     # of electrons  =     64.999276197
     EX              =    -66.867969585
     EC              =     -2.280058126
     EX+EC           =    -69.148027711
Transforming the Hamiltonian                       ... done (   0.0 sec)
Diagonalizing the Hamiltonian                      ... done (   0.0 sec)
Back transforming the eigenvectors                 ... done (   0.0 sec)
Now organizing SCF variables                       ... done
                      ------------------
                      INITIAL GUESS DONE (   0.2 sec)
                      ------------------
-------------------
DFT GRID GENERATION
-------------------

General Integration Accuracy     IntAcc      ... 4.388
Radial Grid Type                 RadialGrid  ... OptM3 with GC (2021)
Angular Grid (max. ang.)         AngularGrid ... 4 (Lebedev-302)
Angular grid pruning method      GridPruning ... 4 (adaptive)
Weight generation scheme         WeightScheme... Becke
Basis function cutoff            BFCut       ... 1.0000e-11
Integration weight cutoff        WCut        ... 1.0000e-14
Angular grids for H and He will be reduced by one unit
Partially contracted basis set               ... off
Rotationally invariant grid construction     ... off

Total number of grid points                  ...    68617
Total number of batches                      ...     1080
Average number of points per batch           ...       63
Average number of grid points per atom       ...     4901
Time for grid setup =    0.391 sec

--------------------
COSX GRID GENERATION
--------------------

GRIDX 1
-------
General Integration Accuracy     IntAcc      ... 3.816
Radial Grid Type                 RadialGrid  ... OptM3 with GC (2021)
Angular Grid (max. ang.)         AngularGrid ... 1 (Lebedev-50)
Angular grid pruning method      GridPruning ... 4 (adaptive)
Weight generation scheme         WeightScheme... Becke
Basis function cutoff            BFCut       ... 1.0000e-11
Integration weight cutoff        WCut        ... 1.0000e-14
Angular grids for H and He will be reduced by one unit
Partially contracted basis set               ... on
Rotationally invariant grid construction     ... off

Total number of grid points                  ...     8514
Total number of batches                      ...      143
Average number of points per batch           ...       59
Average number of grid points per atom       ...      608
UseSFitting                                  ... on

GRIDX 2
-------
General Integration Accuracy     IntAcc      ... 4.020
Radial Grid Type                 RadialGrid  ... OptM3 with GC (2021)
Angular Grid (max. ang.)         AngularGrid ... 2 (Lebedev-110)
Angular grid pruning method      GridPruning ... 4 (adaptive)
Weight generation scheme         WeightScheme... Becke
Basis function cutoff            BFCut       ... 1.0000e-11
Integration weight cutoff        WCut        ... 1.0000e-14
Angular grids for H and He will be reduced by one unit
Partially contracted basis set               ... on
Rotationally invariant grid construction     ... off

Total number of grid points                  ...    19986
Total number of batches                      ...      321
Average number of points per batch           ...       62
Average number of grid points per atom       ...     1428
UseSFitting                                  ... on

GRIDX 3
-------
General Integration Accuracy     IntAcc      ... 4.338
Radial Grid Type                 RadialGrid  ... OptM3 with GC (2021)
Angular Grid (max. ang.)         AngularGrid ... 3 (Lebedev-194)
Angular grid pruning method      GridPruning ... 4 (adaptive)
Weight generation scheme         WeightScheme... Becke
Basis function cutoff            BFCut       ... 1.0000e-11
Integration weight cutoff        WCut        ... 1.0000e-14
Angular grids for H and He will be reduced by one unit
Partially contracted basis set               ... on
Rotationally invariant grid construction     ... off

Total number of grid points                  ...    45484
Total number of batches                      ...      720
Average number of points per batch           ...       63
Average number of grid points per atom       ...     3249
UseSFitting                                  ... on

Time for X-Grid setup             =    0.328 sec

--------------
SCF ITERATIONS
--------------
ITER       Energy         Delta-E        Max-DP      RMS-DP      [F,P]     Damp
               ***  Starting incremental Fock matrix formation  ***
  0   -741.1559760698   0.000000000000 0.15258441  0.00302194  0.2834008 0.7000
  1   -741.3459953925  -0.190019322709 0.06754244  0.00181206  0.1164345 0.7000
                               ***Turning on DIIS***
  2   -741.4139096037  -0.067914211147 0.12814951  0.00289088  0.0363464 0.0000
  3   -741.5256481280  -0.111738524382 0.05106836  0.00117864  0.0668539 0.0000
  4   -741.5494278322  -0.023779704179 0.01542613  0.00032486  0.0148286 0.0000
  5   -741.5505635486  -0.001135716361 0.00283214  0.00011760  0.0046547 0.0000
                      *** Initiating the SOSCF procedure ***
                           *** Shutting down DIIS ***
                      *** Re-Reading the Fockian *** 
                      *** Removing any level shift *** 
ITER      Energy       Delta-E        Grad      Rot      Max-DP    RMS-DP
  6   -741.55065335  -0.0000897980  0.000195  0.000195  0.002953  0.000083
               *** Restarting incremental Fock matrix formation ***
  7   -741.55041671   0.0002366393  0.000150  0.000292  0.001689  0.000049
  8   -741.55041363   0.0000030749  0.000295  0.000182  0.000716  0.000015
  9   -741.55041827  -0.0000046402  0.000019  0.000025  0.000243  0.000004
 10   -741.55041826   0.0000000114  0.000022  0.000013  0.000133  0.000002
 11   -741.55041831  -0.0000000480  0.000004  0.000003  0.000016  0.000000
 12   -741.55041831  -0.0000000053  0.000005  0.000002  0.000010  0.000000
                  ***Gradient check signals convergence***
              ***Rediagonalizing the Fockian in SOSCF/NRSCF***

               *****************************************************
               *                     SUCCESS                       *
               *           SCF CONVERGED AFTER  13 CYCLES          *
               *****************************************************

Old exchange energy                            =    -17.007577906 Eh
New exchange energy                            =    -17.007588486 Eh
Exchange energy change after final integration =     -0.000010579 Eh
Total energy after final integration           =   -741.550428892 Eh
Final COS-X integration done in                =     1.595 sec

----------------
TOTAL SCF ENERGY
----------------

Total Energy       :         -741.55042889 Eh          -20178.61303 eV

Components:
Nuclear Repulsion  :          433.72073655 Eh           11802.14125 eV
Electronic Energy  :        -1175.27116544 Eh          -31980.75428 eV
One Electron Energy:        -1892.37178024 Eh          -51494.05405 eV
Two Electron Energy:          717.10061480 Eh           19513.29977 eV
Max COSX asymmetry :            0.00000752 Eh               0.00020 eV

Virial components:
Potential Energy   :        -1479.19960272 Eh          -40251.06751 eV
Kinetic Energy     :          737.64917383 Eh           20072.45448 eV
Virial Ratio       :            2.00528877


DFT components:
N(Alpha)           :       33.000239706727 electrons
N(Beta)            :       33.000239706727 electrons
N(Total)           :       66.000479413455 electrons
E(X)               :      -50.879934117870 Eh       
E(C)               :       -2.321774043148 Eh       
E(XC)              :      -53.201708161018 Eh       
DFET-embed. en.    :        0.000000000000 Eh       

---------------
SCF CONVERGENCE
---------------

  Last Energy change         ...    1.4880e-09  Tolerance :   1.0000e-08
  Last MAX-Density change    ...    4.4409e-15  Tolerance :   1.0000e-07
  Last RMS-Density change    ...    5.0306e-17  Tolerance :   5.0000e-09
  Last Orbital Gradient      ...    4.5743e-07  Tolerance :   1.0000e-05
  Last Orbital Rotation      ...    5.6576e-07  Tolerance :   1.0000e-05

             **** THE GBW FILE WAS UPDATED (14Feb_SVPD_PBE0_A_wt_wb97_typ1_neg.gbw) ****
             **** DENSITY 14Feb_SVPD_PBE0_A_wt_wb97_typ1_neg.scfp WAS UPDATED ****
             **** ENERGY FILE WAS UPDATED (14Feb_SVPD_PBE0_A_wt_wb97_typ1_neg.en.tmp) ****
             **** THE GBW FILE WAS UPDATED (14Feb_SVPD_PBE0_A_wt_wb97_typ1_neg.gbw) ****
             **** DENSITY 14Feb_SVPD_PBE0_A_wt_wb97_typ1_neg.scfp WAS UPDATED ****
----------------
ORBITAL ENERGIES
----------------

  NO   OCC          E(Eh)            E(eV) 
   0   2.0000     -89.040234     -2422.9079 
   1   2.0000     -19.004718      -517.1447 
   2   2.0000     -18.994994      -516.8801 
   3   2.0000     -18.988327      -516.6986 
   4   2.0000     -10.106367      -275.0082 
   5   2.0000     -10.101273      -274.8696 
   6   2.0000     -10.084021      -274.4002 
   7   2.0000      -7.999417      -217.6752 
   8   2.0000      -5.941731      -161.6827 
   9   2.0000      -5.941492      -161.6762 
  10   2.0000      -5.941100      -161.6655 
  11   2.0000      -0.958518       -26.0826 
  12   2.0000      -0.820680       -22.3318 
  13   2.0000      -0.791173       -21.5289 
  14   2.0000      -0.676382       -18.4053 
  15   2.0000      -0.584110       -15.8944 
  16   2.0000      -0.487505       -13.2657 
  17   2.0000      -0.401488       -10.9250 
  18   2.0000      -0.348620        -9.4864 
  19   2.0000      -0.334682        -9.1072 
  20   2.0000      -0.310665        -8.4536 
  21   2.0000      -0.295688        -8.0461 
  22   2.0000      -0.280594        -7.6354 
  23   2.0000      -0.270717        -7.3666 
  24   2.0000      -0.236702        -6.4410 
  25   2.0000      -0.229919        -6.2564 
  26   2.0000      -0.217216        -5.9108 
  27   2.0000      -0.167922        -4.5694 
  28   2.0000      -0.166794        -4.5387 
  29   2.0000      -0.132794        -3.6135 
  30   2.0000      -0.121476        -3.3055 
  31   2.0000      -0.114072        -3.1041 
  32   2.0000      -0.079404        -2.1607 
  33   0.0000       0.141489         3.8501 
  34   0.0000       0.166826         4.5396 
  35   0.0000       0.173269         4.7149 
  36   0.0000       0.182231         4.9587 
  37   0.0000       0.200049         5.4436 
  38   0.0000       0.204922         5.5762 
  39   0.0000       0.215631         5.8676 
  40   0.0000       0.228938         6.2297 
  41   0.0000       0.242805         6.6071 
  42   0.0000       0.257171         6.9980 
  43   0.0000       0.259099         7.0504 
  44   0.0000       0.278778         7.5859 
  45   0.0000       0.283348         7.7103 
  46   0.0000       0.290590         7.9074 
  47   0.0000       0.291997         7.9456 
  48   0.0000       0.301036         8.1916 
  49   0.0000       0.307720         8.3735 
  50   0.0000       0.321354         8.7445 
  51   0.0000       0.328698         8.9443 
  52   0.0000       0.334535         9.1032 
  53   0.0000       0.344916         9.3856 
  54   0.0000       0.347932         9.4677 
  55   0.0000       0.352691         9.5972 
  56   0.0000       0.357897         9.7389 
  57   0.0000       0.376282        10.2391 
  58   0.0000       0.383999        10.4491 
  59   0.0000       0.385914        10.5013 
  60   0.0000       0.388747        10.5783 
  61   0.0000       0.397747        10.8232 
  62   0.0000       0.407626        11.0921 
  63   0.0000       0.418834        11.3970 
  64   0.0000       0.426317        11.6007 
  65   0.0000       0.436238        11.8707 
  66   0.0000       0.442879        12.0513 
  67   0.0000       0.453111        12.3298 
  68   0.0000       0.463594        12.6150 
  69   0.0000       0.470216        12.7952 
  70   0.0000       0.475503        12.9391 
  71   0.0000       0.485760        13.2182 
  72   0.0000       0.500347        13.6151 
  73   0.0000       0.506446        13.7811 
  74   0.0000       0.511237        13.9115 
  75   0.0000       0.519463        14.1353 
  76   0.0000       0.520094        14.1525 
  77   0.0000       0.532081        14.4787 
  78   0.0000       0.536801        14.6071 
  79   0.0000       0.551172        14.9982 
  80   0.0000       0.556032        15.1304 
  81   0.0000       0.568831        15.4787 
  82   0.0000       0.572356        15.5746 
  83   0.0000       0.579487        15.7686 
  84   0.0000       0.594639        16.1809 
  85   0.0000       0.598171        16.2771 
  86   0.0000       0.609090        16.5742 
  87   0.0000       0.619299        16.8520 
  88   0.0000       0.631020        17.1709 
  89   0.0000       0.633168        17.2294 
  90   0.0000       0.644537        17.5387 
  91   0.0000       0.651007        17.7148 
  92   0.0000       0.657623        17.8948 
  93   0.0000       0.669149        18.2085 
  94   0.0000       0.673300        18.3214 
  95   0.0000       0.674294        18.3485 
  96   0.0000       0.689655        18.7665 
  97   0.0000       0.698808        19.0155 
  98   0.0000       0.703366        19.1396 
  99   0.0000       0.704004        19.1569 
 100   0.0000       0.726855        19.7787 
 101   0.0000       0.737335        20.0639 
 102   0.0000       0.740172        20.1411 
 103   0.0000       0.756173        20.5765 
 104   0.0000       0.766130        20.8475 
 105   0.0000       0.782662        21.2973 
 106   0.0000       0.799560        21.7571 
 107   0.0000       0.808552        22.0018 
 108   0.0000       0.830118        22.5887 
 109   0.0000       0.851080        23.1591 
 110   0.0000       0.875230        23.8162 
 111   0.0000       0.882565        24.0158 
 112   0.0000       0.887603        24.1529 
 113   0.0000       0.898363        24.4457 
 114   0.0000       0.911095        24.7922 
 115   0.0000       0.917872        24.9766 
 116   0.0000       0.926223        25.2038 
 117   0.0000       0.962531        26.1918 
 118   0.0000       0.974465        26.5166 
 119   0.0000       0.998365        27.1669 
 120   0.0000       1.015810        27.6416 
 121   0.0000       1.064151        28.9570 
 122   0.0000       1.100494        29.9460 
 123   0.0000       1.109534        30.1920 
 124   0.0000       1.126183        30.6450 
 125   0.0000       1.131911        30.8009 
 126   0.0000       1.155953        31.4551 
 127   0.0000       1.164274        31.6815 
 128   0.0000       1.174431        31.9579 
 129   0.0000       1.189737        32.3744 
 130   0.0000       1.193475        32.4761 
 131   0.0000       1.203938        32.7608 
 132   0.0000       1.219274        33.1781 
 133   0.0000       1.230572        33.4856 
 134   0.0000       1.261285        34.3213 
 135   0.0000       1.277496        34.7624 
 136   0.0000       1.295836        35.2615 
 137   0.0000       1.315821        35.8053 
 138   0.0000       1.349344        36.7175 
 139   0.0000       1.355879        36.8953 
 140   0.0000       1.390837        37.8466 
 141   0.0000       1.430171        38.9169 
 142   0.0000       1.455337        39.6017 
 143   0.0000       1.472781        40.0764 
 144   0.0000       1.486300        40.4443 
 145   0.0000       1.509312        41.0705 
 146   0.0000       1.531729        41.6805 
 147   0.0000       1.575164        42.8624 
 148   0.0000       1.586470        43.1701 
 149   0.0000       1.658702        45.1356 
 150   0.0000       1.716412        46.7060 
 151   0.0000       1.736932        47.2643 
 152   0.0000       1.758795        47.8592 
 153   0.0000       1.771109        48.1943 
 154   0.0000       1.791474        48.7485 
 155   0.0000       1.805048        49.1178 
 156   0.0000       1.807387        49.1815 
 157   0.0000       1.832260        49.8583 
 158   0.0000       1.857045        50.5328 
 159   0.0000       1.886673        51.3390 
 160   0.0000       1.896604        51.6092 
 161   0.0000       1.905269        51.8450 
 162   0.0000       1.915391        52.1204 
 163   0.0000       1.937028        52.7092 
 164   0.0000       1.971298        53.6417 
 165   0.0000       2.030216        55.2450 
 166   0.0000       2.060993        56.0825 
 167   0.0000       2.077635        56.5353 
 168   0.0000       2.102488        57.2116 
 169   0.0000       2.132068        58.0165 
 170   0.0000       2.144786        58.3626 
 171   0.0000       2.165799        58.9344 
 172   0.0000       2.186685        59.5027 
 173   0.0000       2.198672        59.8289 
 174   0.0000       2.218975        60.3814 
 175   0.0000       2.235618        60.8342 
 176   0.0000       2.287344        62.2418 
 177   0.0000       2.297319        62.5132 
 178   0.0000       2.380271        64.7705 
 179   0.0000       2.397111        65.2287 
 180   0.0000       2.461912        66.9920 
 181   0.0000       2.490658        67.7743 
 182   0.0000       2.584901        70.3387 
 183   0.0000       2.625694        71.4488 
 184   0.0000       2.679027        72.9000 
 185   0.0000       2.727981        74.2321 
 186   0.0000       2.738888        74.5289 
 187   0.0000       2.812404        76.5294 
 188   0.0000       2.856124        77.7191 
 189   0.0000       2.887270        78.5666 
 190   0.0000       3.002035        81.6895 
 191   0.0000       3.040993        82.7496 
 192   0.0000       3.079443        83.7959 
 193   0.0000       3.086837        83.9971 
 194   0.0000       3.092697        84.1566 
 195   0.0000       3.112268        84.6891 
 196   0.0000       3.117318        84.8265 
 197   0.0000       3.132076        85.2281 
 198   0.0000       3.152259        85.7773 
 199   0.0000       3.156273        85.8866 
 200   0.0000       3.172461        86.3271 
 201   0.0000       3.207105        87.2698 
 202   0.0000       3.242120        88.2226 
 203   0.0000       3.263754        88.8113 
 204   0.0000       3.305343        89.9430 
 205   0.0000       3.318269        90.2947 
 206   0.0000       3.321219        90.3750 
 207   0.0000       3.372687        91.7755 
 208   0.0000       3.390510        92.2605 
 209   0.0000       3.531067        96.0852 
 210   0.0000       3.770797       102.6086 
 211   0.0000       3.818797       103.9147 

                    ********************************
                    * MULLIKEN POPULATION ANALYSIS *
                    ********************************

-----------------------
MULLIKEN ATOMIC CHARGES
-----------------------
   0 C :   -0.409088
   1 C :   -0.146852
   2 H :    0.066973
   3 H :    0.079618
   4 S :    1.440594
   5 O :   -0.874282
   6 O :   -0.866771
   7 C :    0.621340
   8 H :   -0.050966
   9 H :    0.025143
  10 O :   -0.815620
  11 H :   -0.045943
  12 H :   -0.034464
  13 H :    0.010317
Sum of atomic charges:   -1.0000000

--------------------------------
MULLIKEN REDUCED ORBITAL CHARGES
--------------------------------
  0 C s       :     2.867033  s :     2.867033
      pz      :     0.932587  p :     3.007253
      px      :     1.013228
      py      :     1.061437
      dz2     :     0.019416  d :     0.534802
      dxz     :     0.152500
      dyz     :     0.066899
      dx2y2   :     0.200170
      dxy     :     0.095817
  1 C s       :     2.897248  s :     2.897248
      pz      :     0.985354  p :     3.004761
      px      :     1.020350
      py      :     0.999057
      dz2     :     0.129779  d :     0.244843
      dxz     :    -0.000201
      dyz     :     0.015127
      dx2y2   :     0.014891
      dxy     :     0.085247
  2 H s       :     0.862609  s :     0.862609
      pz      :     0.010718  p :     0.070417
      px      :     0.017386
      py      :     0.042313
  3 H s       :     0.866189  s :     0.866189
      pz      :     0.007072  p :     0.054193
      px      :     0.037299
      py      :     0.009823
  4 S s       :     4.916309  s :     4.916309
      pz      :     3.063872  p :     8.838852
      px      :     2.897879
      py      :     2.877101
      dz2     :     0.159689  d :     0.804246
      dxz     :     0.126064
      dyz     :     0.123736
      dx2y2   :     0.190220
      dxy     :     0.204536
  5 O s       :     3.955772  s :     3.955772
      pz      :     1.794200  p :     4.910226
      px      :     1.538985
      py      :     1.577040
      dz2     :     0.003012  d :     0.008283
      dxz     :     0.000379
      dyz     :     0.004657
      dx2y2   :    -0.003107
      dxy     :     0.003342
  6 O s       :     3.959711  s :     3.959711
      pz      :     1.681756  p :     4.893774
      px      :     1.450069
      py      :     1.761949
      dz2     :     0.004266  d :     0.013286
      dxz     :     0.001251
      dyz     :     0.003950
      dx2y2   :     0.003044
      dxy     :     0.000775
  7 C s       :     2.443917  s :     2.443917
      pz      :     0.962226  p :     2.826009
      px      :     0.922625
      py      :     0.941158
      dz2     :    -0.007837  d :     0.108734
      dxz     :     0.043287
      dyz     :     0.003703
      dx2y2   :     0.049473
      dxy     :     0.020109
  8 H s       :     1.030116  s :     1.030116
      pz      :     0.041133  p :     0.020850
      px      :     0.001231
      py      :    -0.021514
  9 H s       :     0.927991  s :     0.927991
      pz      :     0.000393  p :     0.046867
      px      :    -0.013700
      py      :     0.060173
 10 O s       :     3.941851  s :     3.941851
      pz      :     1.758844  p :     4.866088
      px      :     1.757300
      py      :     1.349944
      dz2     :     0.002307  d :     0.007681
      dxz     :     0.001118
      dyz     :     0.001950
      dx2y2   :     0.003857
      dxy     :    -0.001550
 11 H s       :     0.919301  s :     0.919301
      pz      :     0.112147  p :     0.126641
      px      :     0.028604
      py      :    -0.014110
 12 H s       :     1.009388  s :     1.009388
      pz      :     0.016952  p :     0.025076
      px      :     0.002771
      py      :     0.005354
 13 H s       :     0.953280  s :     0.953280
      pz      :    -0.017330  p :     0.036403
      px      :     0.012799
      py      :     0.040933


                     *******************************
                     * LOEWDIN POPULATION ANALYSIS *
                     *******************************

----------------------
LOEWDIN ATOMIC CHARGES
----------------------
   0 C :   -0.100101
   1 C :   -0.102235
   2 H :    0.009160
   3 H :    0.012943
   4 S :    0.874752
   5 O :   -0.589675
   6 O :   -0.588162
   7 C :    0.114121
   8 H :    0.007897
   9 H :    0.018250
  10 O :   -0.570181
  11 H :   -0.037965
  12 H :   -0.031661
  13 H :   -0.017143

-------------------------------
LOEWDIN REDUCED ORBITAL CHARGES
-------------------------------
  0 C s       :     2.686262  s :     2.686262
      pz      :     0.896686  p :     2.713853
      px      :     0.898051
      py      :     0.919117
      dz2     :     0.137588  d :     0.699986
      dxz     :     0.168848
      dyz     :     0.067768
      dx2y2   :     0.179020
      dxy     :     0.146763
  1 C s       :     2.722651  s :     2.722651
      pz      :     0.886854  p :     2.739482
      px      :     0.914977
      py      :     0.937651
      dz2     :     0.191113  d :     0.640102
      dxz     :     0.139889
      dyz     :     0.105028
      dx2y2   :     0.072366
      dxy     :     0.131707
  2 H s       :     0.723759  s :     0.723759
      pz      :     0.071109  p :     0.267081
      px      :     0.073304
      py      :     0.122668
  3 H s       :     0.723043  s :     0.723043
      pz      :     0.067129  p :     0.264013
      px      :     0.101482
      py      :     0.095403
  4 S s       :     4.668010  s :     4.668010
      pz      :     2.815455  p :     8.466968
      px      :     2.823453
      py      :     2.828060
      dz2     :     0.401288  d :     1.990269
      dxz     :     0.352426
      dyz     :     0.318677
      dx2y2   :     0.432881
      dxy     :     0.484997
  5 O s       :     3.573164  s :     3.573164
      pz      :     1.651154  p :     4.770154
      px      :     1.549314
      py      :     1.569686
      dz2     :     0.036214  d :     0.246357
      dxz     :     0.044531
      dyz     :     0.029635
      dx2y2   :     0.072631
      dxy     :     0.063348
  6 O s       :     3.563980  s :     3.563980
      pz      :     1.606230  p :     4.773727
      px      :     1.513825
      py      :     1.653673
      dz2     :     0.052327  d :     0.250454
      dxz     :     0.058816
      dyz     :     0.022417
      dx2y2   :     0.053667
      dxy     :     0.063228
  7 C s       :     2.697630  s :     2.697630
      pz      :     0.941640  p :     2.764559
      px      :     0.905439
      py      :     0.917480
      dz2     :     0.060412  d :     0.423691
      dxz     :     0.119714
      dyz     :     0.044811
      dx2y2   :     0.115929
      dxy     :     0.082825
  8 H s       :     0.735006  s :     0.735006
      pz      :     0.115727  p :     0.257098
      px      :     0.073292
      py      :     0.068079
  9 H s       :     0.719294  s :     0.719294
      pz      :     0.081552  p :     0.262456
      px      :     0.065736
      py      :     0.115169
 10 O s       :     3.553690  s :     3.553690
      pz      :     1.632285  p :     4.762853
      px      :     1.647477
      py      :     1.483091
      dz2     :     0.038232  d :     0.253638
      dxz     :     0.018025
      dyz     :     0.059567
      dx2y2   :     0.062613
      dxy     :     0.075201
 11 H s       :     0.707703  s :     0.707703
      pz      :     0.167795  p :     0.330262
      px      :     0.086698
      py      :     0.075769
 12 H s       :     0.751115  s :     0.751115
      pz      :     0.102554  p :     0.280546
      px      :     0.094751
      py      :     0.083242
 13 H s       :     0.741159  s :     0.741159
      pz      :     0.077830  p :     0.275984
      px      :     0.076579
      py      :     0.121576


                      *****************************
                      * MAYER POPULATION ANALYSIS *
                      *****************************

  NA   - Mulliken gross atomic population
  ZA   - Total nuclear charge
  QA   - Mulliken gross atomic charge
  VA   - Mayer's total valence
  BVA  - Mayer's bonded valence
  FA   - Mayer's free valence

  ATOM       NA         ZA         QA         VA         BVA        FA
  0 C      6.4091     6.0000    -0.4091     5.1983     5.1983     0.0000
  1 C      6.1469     6.0000    -0.1469     4.4743     4.4743     0.0000
  2 H      0.9330     1.0000     0.0670     1.1579     1.1579    -0.0000
  3 H      0.9204     1.0000     0.0796     1.1052     1.1052    -0.0000
  4 S     14.5594    16.0000     1.4406     4.8270     4.8270    -0.0000
  5 O      8.8743     8.0000    -0.8743     1.3688     1.3688    -0.0000
  6 O      8.8668     8.0000    -0.8668     1.3843     1.3843    -0.0000
  7 C      5.3787     6.0000     0.6213     3.8373     3.8373    -0.0000
  8 H      1.0510     1.0000    -0.0510     1.1103     1.1103     0.0000
  9 H      0.9749     1.0000     0.0251     1.1268     1.1268     0.0000
 10 O      8.8156     8.0000    -0.8156     1.4043     1.4043    -0.0000
 11 H      1.0459     1.0000    -0.0459     1.3040     1.3040     0.0000
 12 H      1.0345     1.0000    -0.0345     1.0277     1.0277    -0.0000
 13 H      0.9897     1.0000     0.0103     1.0358     1.0358     0.0000

  Mayer bond orders larger than 0.100000
B(  0-C ,  1-C ) :   1.2429 B(  0-C ,  2-H ) :   0.1297 B(  0-C ,  3-H ) :   0.1191 
B(  0-C ,  7-C ) :   1.2785 B(  0-C ,  8-H ) :   0.9058 B(  0-C ,  9-H ) :   0.9296 
B(  0-C , 11-H ) :   0.2102 B(  0-C , 12-H ) :   0.1813 B(  0-C , 13-H ) :   0.2004 
B(  1-C ,  2-H ) :   0.9462 B(  1-C ,  3-H ) :   0.9121 B(  1-C ,  4-S ) :   0.9383 
B(  1-C ,  8-H ) :   0.1319 B(  1-C ,  9-H ) :   0.1288 B(  4-S ,  5-O ) :   1.2187 
B(  4-S ,  6-O ) :   1.2972 B(  4-S , 10-O ) :   1.2572 B(  7-C , 11-H ) :   0.8531 
B(  7-C , 12-H ) :   0.7920 B(  7-C , 13-H ) :   0.7756 B( 11-H , 13-H ) :   0.1119 


-------
TIMINGS
-------

Total SCF time: 0 days 0 hours 0 min 13 sec 

Total time                  ....      13.359 sec
Sum of individual times     ....      13.087 sec  ( 98.0%)

Fock matrix formation       ....      12.012 sec  ( 89.9%)
  Split-RI-J                ....       1.023 sec  (  8.5% of F)
  Chain of spheres X        ....       8.634 sec  ( 71.9% of F)
  XC integration            ....       2.304 sec  ( 19.2% of F)
    Basis function eval.    ....       0.735 sec  ( 31.9% of XC)
    Density eval.           ....       0.577 sec  ( 25.0% of XC)
    XC-Functional eval.     ....       0.110 sec  (  4.8% of XC)
    XC-Potential eval.      ....       0.731 sec  ( 31.7% of XC)
Diagonalization             ....       0.073 sec  (  0.5%)
Density matrix formation    ....       0.006 sec  (  0.0%)
Population analysis         ....       0.009 sec  (  0.1%)
Initial guess               ....       0.098 sec  (  0.7%)
Orbital Transformation      ....       0.000 sec  (  0.0%)
Orbital Orthonormalization  ....       0.000 sec  (  0.0%)
DIIS solution               ....       0.043 sec  (  0.3%)
SOSCF solution              ....       0.054 sec  (  0.4%)
Grid generation             ....       0.793 sec  (  5.9%)

Maximum memory used throughout the entire SCF-calculation: 55.2 MB


-------------------------------------------------------------------------------
                          DFT DISPERSION CORRECTION                            
                                                                               
                              DFTD3 V3.1  Rev 1                                
                          USING Becke-Johnson damping                          
-------------------------------------------------------------------------------
The PBE0 functional is recognized
Active option DFTDOPT                   ...         4   

molecular C6(AA) [au] = 2189.642060 


            DFT-D V3
 parameters
 s6 scaling factor         :     1.0000 
 a1 scaling factor         :     0.4145 
 s8 scaling factor         :     1.2177 
 a2 scaling factor         :     4.8593 
 ad hoc parameters k1-k3   :    16.0000     1.3333    -4.0000 

 Edisp/kcal,au: -7.180843542545  -0.011443401372 
 E6   /kcal   :  -4.477389930 
 E8   /kcal   :  -2.703453612 
 % E8         :  37.648134180 

-------------------------   ----------------
Dispersion correction           -0.011443401
-------------------------   ----------------


-------------------------   --------------------
FINAL SINGLE POINT ENERGY      -741.561872293752
-------------------------   --------------------


                            ***************************************
                            *     ORCA property calculations      *
                            ***************************************

                                    ---------------------
                                    Active property flags
                                    ---------------------
   (+) Dipole Moment


------------------------------------------------------------------------------
                       ORCA ELECTRIC PROPERTIES CALCULATION
------------------------------------------------------------------------------

Dipole Moment Calculation                       ... on
Quadrupole Moment Calculation                   ... off
Polarizability Calculation                      ... off
GBWName                                         ... 14Feb_SVPD_PBE0_A_wt_wb97_typ1_neg.gbw
Electron density file                           ... 14Feb_SVPD_PBE0_A_wt_wb97_typ1_neg.scfp
The origin for moment calculation is the CENTER OF MASS  = ( 8.689630, -13.038217 -8.814576)

-------------
DIPOLE MOMENT
-------------
                                X             Y             Z
Electronic contribution:     -3.08684      -0.30445     -10.15403
Nuclear contribution   :      3.14317       0.05805      12.49367
                        -----------------------------------------
Total Dipole Moment    :      0.05634      -0.24640       2.33964
                        -----------------------------------------
Magnitude (a.u.)       :      2.35326
Magnitude (Debye)      :      5.98150



--------------------
Rotational spectrum 
--------------------
 
Rotational constants in cm-1:     0.133431     0.055055     0.052069 
Rotational constants in MHz :  4000.170974  1650.506165  1561.001383 

 Dipole components along the rotational axes: 
x,y,z [a.u.] :     2.131133     0.957911    -0.280174 
x,y,z [Debye]:     5.416911     2.434816    -0.712146 

 

Timings for individual modules:

Sum of individual times         ...       13.939 sec (=   0.232 min)
GTO integral calculation        ...        0.369 sec (=   0.006 min)   2.6 %
SCF iterations                  ...       13.570 sec (=   0.226 min)  97.4 %
                             ****ORCA TERMINATED NORMALLY****
TOTAL RUN TIME: 0 days 0 hours 0 minutes 14 seconds 296 msec
