
                                        *****************
                                        * O   R   C   A *
                                        *****************

                                            #,                                       
                                            ###                                      
                                            ####                                     
                                            #####                                    
                                            ######                                   
                                           ########,                                 
                                     ,,################,,,,,                         
                               ,,#################################,,                 
                          ,,##########################################,,             
                       ,#########################################, ''#####,          
                    ,#############################################,,   '####,        
                  ,##################################################,,,,####,       
                ,###########''''           ''''###############################       
              ,#####''   ,,,,##########,,,,          '''####'''          '####       
            ,##' ,,,,###########################,,,                        '##       
           ' ,,###''''                  '''############,,,                           
         ,,##''                                '''############,,,,        ,,,,,,###''
      ,#''                                            '''#######################'''  
     '                                                          ''''####''''         
             ,#######,   #######,   ,#######,      ##                                
            ,#'     '#,  ##    ##  ,#'     '#,    #''#        ######   ,####,        
            ##       ##  ##   ,#'  ##            #'  '#       #        #'  '#        
            ##       ##  #######   ##           ,######,      #####,   #    #        
            '#,     ,#'  ##    ##  '#,     ,#' ,#      #,         ##   #,  ,#        
             '#######'   ##     ##  '#######'  #'      '#     #####' # '####'        



                  #######################################################
                  #                        -***-                        #
                  #          Department of theory and spectroscopy      #
                  #    Directorship and core code : Frank Neese         #
                  #        Max Planck Institute fuer Kohlenforschung    #
                  #                Kaiser Wilhelm Platz 1               #
                  #                 D-45470 Muelheim/Ruhr               #
                  #                      Germany                        #
                  #                                                     #
                  #                  All rights reserved                #
                  #                        -***-                        #
                  #######################################################


                         Program Version 5.0.0 -  RELEASE  -
                                (SVN: $Rev: 19529$)
                ($Date: 2021-06-28 11:36:33 +0200 (Mo, 28 Jun 2021) $)


 With contributions from (in alphabetic order):
   Daniel Aravena         : Magnetic Suceptibility
   Michael Atanasov       : Ab Initio Ligand Field Theory (pilot matlab implementation)
   Alexander A. Auer      : GIAO ZORA, VPT2 properties, NMR spectrum
   Ute Becker             : Parallelization
   Giovanni Bistoni       : ED, misc. LED, open-shell LED, HFLD
   Martin Brehm           : Molecular dynamics
   Dmytro Bykov           : SCF Hessian
   Vijay G. Chilkuri      : MRCI spin determinant printing, contributions to CSF-ICE
   Dipayan Datta          : RHF DLPNO-CCSD density
   Achintya Kumar Dutta   : EOM-CC, STEOM-CC
   Dmitry Ganyushin       : Spin-Orbit,Spin-Spin,Magnetic field MRCI
   Miquel Garcia          : C-PCM Hessian, Gaussian charge scheme
   Yang Guo               : DLPNO-NEVPT2, F12-NEVPT2, CIM, IAO-localization
   Andreas Hansen         : Spin unrestricted coupled pair/coupled cluster methods
   Benjamin Helmich-Paris : MC-RPA, TRAH-SCF, COSX integrals
   Lee Huntington         : MR-EOM, pCC
   Robert Izsak           : Overlap fitted RIJCOSX, COSX-SCS-MP3, EOM
   Marcus Kettner         : VPT2
   Christian Kollmar      : KDIIS, OOCD, Brueckner-CCSD(T), CCSD density, CASPT2, CASPT2-K
   Simone Kossmann        : Meta GGA functionals, TD-DFT gradient, OOMP2, MP2 Hessian
   Martin Krupicka        : Initial AUTO-CI
   Lucas Lang             : DCDCAS
   Marvin Lechner         : AUTO-CI (C++ implementation), FIC-MRCC
   Dagmar Lenk            : GEPOL surface, SMD
   Dimitrios Liakos       : Extrapolation schemes; Compound Job, initial MDCI parallelization
   Dimitrios Manganas     : Further ROCIS development; embedding schemes
   Dimitrios Pantazis     : SARC Basis sets
   Anastasios Papadopoulos: AUTO-CI, single reference methods and gradients
   Taras Petrenko         : DFT Hessian,TD-DFT gradient, ASA, ECA, R-Raman, ABS, FL, XAS/XES, NRVS
   Peter Pinski           : DLPNO-MP2, DLPNO-MP2 Gradient
   Christoph Reimann      : Effective Core Potentials
   Marius Retegan         : Local ZFS, SOC
   Christoph Riplinger    : Optimizer, TS searches, QM/MM, DLPNO-CCSD(T), (RO)-DLPNO pert. Triples
   Tobias Risthaus        : Range-separated hybrids, TD-DFT gradient, RPA, STAB
   Michael Roemelt        : Original ROCIS implementation
   Masaaki Saitow         : Open-shell DLPNO-CCSD energy and density
   Barbara Sandhoefer     : DKH picture change effects
   Avijit Sen             : IP-ROCIS
   Kantharuban Sivalingam : CASSCF convergence, NEVPT2, FIC-MRCI
   Bernardo de Souza      : ESD, SOC TD-DFT
   Georgi Stoychev        : AutoAux, RI-MP2 NMR
   Willem Van den Heuvel  : Paramagnetic NMR
   Boris Wezisla          : Elementary symmetry handling
   Frank Wennmohs         : Technical directorship


 We gratefully acknowledge several colleagues who have allowed us to
 interface, adapt or use parts of their codes:
   Stefan Grimme, W. Hujo, H. Kruse, P. Pracht,  : VdW corrections, initial TS optimization,
                  C. Bannwarth, S. Ehlert          DFT functionals, gCP, sTDA/sTD-DF
   Ed Valeev, F. Pavosevic, A. Kumar             : LibInt (2-el integral package), F12 methods
   Garnet Chan, S. Sharma, J. Yang, R. Olivares  : DMRG
   Ulf Ekstrom                                   : XCFun DFT Library
   Mihaly Kallay                                 : mrcc  (arbitrary order and MRCC methods)
   Jiri Pittner, Ondrej Demel                    : Mk-CCSD
   Frank Weinhold                                : gennbo (NPA and NBO analysis)
   Christopher J. Cramer and Donald G. Truhlar   : smd solvation model
   Lars Goerigk                                  : TD-DFT with DH, B97 family of functionals
   V. Asgeirsson, H. Jonsson                     : NEB implementation
   FAccTs GmbH                                   : IRC, NEB, NEB-TS, DLPNO-Multilevel, CI-OPT
                                                   MM, QMMM, 2- and 3-layer-ONIOM, Crystal-QMMM,
                                                   LR-CPCM, SF, NACMEs, symmetry and pop. for TD-DFT,
                                                   nearIR, NL-DFT gradient (VV10), updates on ESD,
                                                   ML-optimized integration grids
   S Lehtola, MJT Oliveira, MAL Marques          : LibXC Library
   Liviu Ungur et al                             : ANISO software


 Your calculation uses the libint2 library for the computation of 2-el integrals
 For citations please refer to: http://libint.valeyev.net

 Your ORCA version has been built with support for libXC version: 5.1.0
 For citations please refer to: https://tddft.org/programs/libxc/

 This ORCA versions uses:
   CBLAS   interface :  Fast vector & matrix operations
   LAPACKE interface :  Fast linear algebra routines
   SCALAPACK package :  Parallel linear algebra routines
   Shared memory     :  Shared parallel matrices
   BLAS/LAPACK       :  OpenBLAS 0.3.15  USE64BITINT DYNAMIC_ARCH NO_AFFINITY Haswell SINGLE_THREADED
        Core in use  :  Haswell
   Copyright (c) 2011-2014, The OpenBLAS Project




***************************************
The coordinates will be read from file: B.xyz
***************************************


XCFun DFT library Copyright 2009-2010 Ulf Ekstrom and contributors.
See http://admol.org/xcfun for more information.
This is free software; see the source code for copying conditions.
There is ABSOLUTELY NO WARRANTY; not even for MERCHANTABILITY or FITNESS FOR A PARTICULAR PURPOSE.
For details see the documentation.
Scientific users of this library should cite U. Ekstrom, L. Visscher, R. Bast, A. J. Thorvaldsen and K. Ruud;
J.Chem.Theor.Comp. 2010, DOI: 10.1021/ct100117s
XCFun Version 0.99 

================================================================================

----- Orbital basis set information -----
Your calculation utilizes the basis: def2-SVPD
   F. Weigend and R. Ahlrichs, Phys. Chem. Chem. Phys. 7, 3297 (2005).
   D. Rappoport and F. Furche, J. Chem. Phys. 133 134105 (2010).

----- AuxJ basis set information -----
Your calculation utilizes the auxiliary basis: def2/J
   F. Weigend, Phys. Chem. Chem. Phys. 8, 1057 (2006).

================================================================================
                                        WARNINGS
                       Please study these warnings very carefully!
================================================================================


INFO   : the flag for use of the SHARK integral package has been found!

================================================================================
                                       INPUT FILE
================================================================================
NAME = 28Oct_SVPD_LC_BLYP_B_wt_wb97.com
|  1> !LC-BLYP RIJCOSX def2-SVPD def2/J TightSCF xyzfile                                                                                         
|  2> 
|  3> *xyzfile 0 1 B.xyz
|  4> 
|  5> %MaxCore 64000
|  6> 
|  7> %pal nprocs 4                                                                                                                                                  
|  8> end  
|  9> 
| 10> %scf
| 11>   MaxIter 150
| 12> end
| 13> 
| 14> 
| 15>                          ****END OF INPUT****
================================================================================

                       ****************************
                       * Single Point Calculation *
                       ****************************

---------------------------------
CARTESIAN COORDINATES (ANGSTROEM)
---------------------------------
  C      3.343500    3.354571   -3.591998
  C      2.952633    1.863077   -3.574849
  C      4.129209    0.898394   -3.418950
  H      3.733687   -0.100605   -3.237633
  H      4.719095    0.862556   -4.339005
  C      5.017344    1.315212   -2.221305
  C      4.255868    3.703851   -4.726054
  N      3.734032    4.293783   -5.800770
  N      5.515039    3.407255   -4.637185
  H      6.149187    3.601203   -5.399053
  H      5.813584    2.899504   -3.808785
  H      2.741380    4.513109   -5.824701
  H      4.287548    4.521260   -6.614341
  H      2.278938    1.735250   -2.725496
  H      2.377466    1.625787   -4.475869
  O      4.737055    0.854112   -1.122825
  O      5.928146    2.168108   -2.491365
  H      3.861246    3.597252   -2.662979
  H      2.446493    3.973461   -3.656556

----------------------------
CARTESIAN COORDINATES (A.U.)
----------------------------
  NO LB      ZA    FRAG     MASS         X           Y           Z
   0 C     6.0000    0    12.011    6.318299    6.339220   -6.787892
   1 C     6.0000    0    12.011    5.579668    3.520705   -6.755485
   2 C     6.0000    0    12.011    7.803074    1.697719   -6.460880
   3 H     1.0000    0     1.008    7.055645   -0.190115   -6.118240
   4 H     1.0000    0     1.008    8.917798    1.629994   -8.199532
   5 C     6.0000    0    12.011    9.481405    2.485390   -4.197658
   6 C     6.0000    0    12.011    8.042425    6.999265   -8.930948
   7 N     7.0000    0    14.007    7.056298    8.114075  -10.961867
   8 N     7.0000    0    14.007   10.421913    6.438778   -8.763009
   9 H     1.0000    0     1.008   11.620279    6.805287  -10.202732
  10 H     1.0000    0     1.008   10.986082    5.479268   -7.197561
  11 H     1.0000    0     1.008    5.180457    8.528540  -11.007090
  12 H     1.0000    0     1.008    8.102292    8.543944  -12.499293
  13 H     1.0000    0     1.008    4.306568    3.279147   -5.150441
  14 H     1.0000    0     1.008    4.492760    3.072291   -8.458167
  15 O     8.0000    0    15.999    8.951737    1.614038   -2.121832
  16 O     8.0000    0    15.999   11.202573    4.097131   -4.707997
  17 H     1.0000    0     1.008    7.296698    6.797822   -5.032300
  18 H     1.0000    0     1.008    4.623202    7.508754   -6.909890

--------------------------------
INTERNAL COORDINATES (ANGSTROEM)
--------------------------------
 C      0   0   0     0.000000000000     0.00000000     0.00000000
 C      1   0   0     1.541955024880     0.00000000     0.00000000
 C      2   1   0     1.529459731877   114.59647875     0.00000000
 H      3   2   1     1.089638404615   108.42080280   169.84269645
 H      3   2   1     1.093504202718   110.48067446   287.77495084
 C      3   2   1     1.548184316806   110.50829043    50.38237693
 C      1   2   3     1.496828833341   112.87029798    60.99277320
 N      7   1   2     1.332421496251   118.40475339   100.88730349
 N      7   1   2     1.296679672360   119.11744996   281.82651921
 H      9   7   1     1.010051189819   120.93457194   177.85654102
 H      9   7   1     1.016457414395   117.08628344     3.23408230
 H      8   7   1     1.016874596539   119.78805900     1.33715241
 H      8   7   1     1.009962060502   122.33188892   182.52589138
 H      2   1   3     1.091606836098   106.16254242   120.06039675
 H      2   1   3     1.094970931493   109.48850295   235.12365012
 O      6   3   2     1.223859674100   117.48492925    89.39693928
 O      6   3   2     1.276685429462   115.18110245   272.92014429
 H      1   2   3     1.090885930422   109.02734392   301.35657719
 H      1   2   3     1.091702678778   109.92131780   182.76836174

---------------------------
INTERNAL COORDINATES (A.U.)
---------------------------
 C      0   0   0     0.000000000000     0.00000000     0.00000000
 C      1   0   0     2.913872707847     0.00000000     0.00000000
 C      2   1   0     2.890260026108   114.59647875     0.00000000
 H      3   2   1     2.059118169725   108.42080280   169.84269645
 H      3   2   1     2.066423469429   110.48067446   287.77495084
 C      3   2   1     2.925644363596   110.50829043    50.38237693
 C      1   2   3     2.828596564372   112.87029798    60.99277320
 N      7   1   2     2.517911722863   118.40475339   100.88730349
 N      7   1   2     2.450369464184   119.11744996   281.82651921
 H      9   7   1     1.908720130000   120.93457194   177.85654102
 H      9   7   1     1.920826140000   117.08628344     3.23408230
 H      8   7   1     1.921614500000   119.78805900     1.33715241
 H      8   7   1     1.908551700000   122.33188892   182.52589138
 H      2   1   3     2.062837966141   106.16254242   120.06039675
 H      2   1   3     2.069195185126   109.48850295   235.12365012
 O      6   3   2     2.312759610399   117.48492925    89.39693928
 O      6   3   2     2.412585820850   115.18110245   272.92014429
 H      1   2   3     2.061475651846   109.02734392   301.35657719
 H      1   2   3     2.063019082559   109.92131780   182.76836174

---------------------
BASIS SET INFORMATION
---------------------
There are 4 groups of distinct atoms

 Group   1 Type C   : 8s4p2d contracted to 4s2p2d pattern {5111/31/11}
 Group   2 Type H   : 4s2p contracted to 2s2p pattern {31/11}
 Group   3 Type N   : 8s4p2d contracted to 4s2p2d pattern {5111/31/11}
 Group   4 Type O   : 8s5p2d contracted to 4s3p2d pattern {5111/311/11}

Atom   0C    basis set group =>   1
Atom   1C    basis set group =>   1
Atom   2C    basis set group =>   1
Atom   3H    basis set group =>   2
Atom   4H    basis set group =>   2
Atom   5C    basis set group =>   1
Atom   6C    basis set group =>   1
Atom   7N    basis set group =>   3
Atom   8N    basis set group =>   3
Atom   9H    basis set group =>   2
Atom  10H    basis set group =>   2
Atom  11H    basis set group =>   2
Atom  12H    basis set group =>   2
Atom  13H    basis set group =>   2
Atom  14H    basis set group =>   2
Atom  15O    basis set group =>   4
Atom  16O    basis set group =>   4
Atom  17H    basis set group =>   2
Atom  18H    basis set group =>   2
---------------------------------
AUXILIARY/J BASIS SET INFORMATION
---------------------------------
There are 4 groups of distinct atoms

 Group   1 Type C   : 12s5p4d2f1g contracted to 6s4p3d1f1g pattern {711111/2111/211/2/1}
 Group   2 Type H   : 5s2p1d contracted to 3s1p1d pattern {311/2/1}
 Group   3 Type N   : 12s5p4d2f1g contracted to 6s4p3d1f1g pattern {711111/2111/211/2/1}
 Group   4 Type O   : 12s5p4d2f1g contracted to 6s4p3d1f1g pattern {711111/2111/211/2/1}

Atom   0C    basis set group =>   1
Atom   1C    basis set group =>   1
Atom   2C    basis set group =>   1
Atom   3H    basis set group =>   2
Atom   4H    basis set group =>   2
Atom   5C    basis set group =>   1
Atom   6C    basis set group =>   1
Atom   7N    basis set group =>   3
Atom   8N    basis set group =>   3
Atom   9H    basis set group =>   2
Atom  10H    basis set group =>   2
Atom  11H    basis set group =>   2
Atom  12H    basis set group =>   2
Atom  13H    basis set group =>   2
Atom  14H    basis set group =>   2
Atom  15O    basis set group =>   4
Atom  16O    basis set group =>   4
Atom  17H    basis set group =>   2
Atom  18H    basis set group =>   2


           ************************************************************
           *        Program running with 4 parallel MPI-processes     *
           *              working on a common directory               *
           ************************************************************
------------------------------------------------------------------------------
                           ORCA GTO INTEGRAL CALCULATION
                           -- RI-GTO INTEGRALS CHOSEN --
------------------------------------------------------------------------------
------------------------------------------------------------------------------
                   ___                                                        
                  /   \      - P O W E R E D   B Y -                         
                 /     \                                                     
                 |  |  |   _    _      __       _____    __    __             
                 |  |  |  | |  | |    /  \     |  _  \  |  |  /  |          
                  \  \/   | |  | |   /    \    | | | |  |  | /  /          
                 / \  \   | |__| |  /  /\  \   | |_| |  |  |/  /          
                |  |  |   |  __  | /  /__\  \  |    /   |      \           
                |  |  |   | |  | | |   __   |  |    \   |  |\   \          
                \     /   | |  | | |  |  |  |  | |\  \  |  | \   \       
                 \___/    |_|  |_| |__|  |__|  |_| \__\ |__|  \__/        
                                                                              
                      - O R C A' S   B I G   F R I E N D -                    
                                      &                                       
                       - I N T E G R A L  F E E D E R -                       
                                                                              
 v1 FN, 2020, v2 2021                                                         
------------------------------------------------------------------------------


Reading SHARK input file 28Oct_SVPD_LC_BLYP_B_wt_wb97.SHARKINP.tmp ... ok
----------------------
SHARK INTEGRAL PACKAGE
----------------------

Number of atoms                             ...     19
Number of basis functions                   ...    266
Number of shells                            ...    114
Maximum angular momentum                    ...      2
Integral batch strategy                     ... SHARK/LIBINT Hybrid
RI-J (if used) integral strategy            ... SPLIT-RIJ (Revised 2003 algorithm where possible)
Printlevel                                  ...      1
Contraction scheme used                     ... SEGMENTED contraction
Coulomb Range Separation                    ... NOT USED
Exchange Range Separation                   ... Long Range
   Mu parameter                             ...  0.330000
   Scaling (regular/separated)              ...  0.000000  1.000000
Finite Nucleus Model                        ... NOT USED
Auxiliary Coulomb fitting basis             ... AVAILABLE
   # of basis functions in Aux-J            ...    551
   # of shells in Aux-J                     ...    185
   Maximum angular momentum in Aux-J        ...      4
Auxiliary J/K fitting basis                 ... NOT available
Auxiliary Correlation fitting basis         ... NOT available
Auxiliary 'external' fitting basis          ... NOT available
Integral threshold                          ...     2.500000e-11
Primitive cut-off                           ...     2.500000e-12
Primitive pair pre-selection threshold      ...     2.500000e-12

Calculating pre-screening integrals         ... done (  0.1 sec) Dimension = 114
Organizing shell pair data                  ... done (  0.0 sec)
Shell pair information
Total number of shell pairs                 ...      6555
Shell pairs after pre-screening             ...      6352
Total number of primitive shell pairs       ...     17913
Primitive shell pairs kept                  ...     14019
          la=0 lb=0:   1534 shell pairs
          la=1 lb=0:   2170 shell pairs
          la=1 lb=1:    802 shell pairs
          la=2 lb=0:    978 shell pairs
          la=2 lb=1:    702 shell pairs
          la=2 lb=2:    166 shell pairs

Calculating one electron integrals          ... done (  0.0 sec)
Calculating RI/J V-Matrix + Cholesky decomp.... done (  0.0 sec)
Calculating Nuclear repulsion               ... done (  0.0 sec) ENN=    475.934600022799 Eh

SHARK setup successfully completed in   0.2 seconds

Maximum memory used throughout the entire GTOINT-calculation: 12.0 MB


           ************************************************************
           *        Program running with 4 parallel MPI-processes     *
           *              working on a common directory               *
           ************************************************************
-------------------------------------------------------------------------------
                                 ORCA SCF
-------------------------------------------------------------------------------

------------
SCF SETTINGS
------------
Hamiltonian:
 Density Functional     Method          .... DFT(GTOs)
 Exchange Functional    Exchange        .... WB88
 Correlation Functional Correlation     .... LYP
 Gradients option       PostSCFGGA      .... off
   Density functional embedding theory  .... OFF
 Long-range corrected/Screened/Range-Separated Hybrid DFT is turned on
   Amount of maximum screened exact exchange              ....  1.000000
   Range separation parameter mu (erf(mu*r12)/r12)        ....  0.330000
 RI-approximation to the Coulomb term is turned on
   Number of AuxJ basis functions       .... 551
   RIJ-COSX (HFX calculated with COS-X)).... on


General Settings:
 Integral files         IntName         .... 28Oct_SVPD_LC_BLYP_B_wt_wb97
 Hartree-Fock type      HFTyp           .... RHF
 Total Charge           Charge          ....    0
 Multiplicity           Mult            ....    1
 Number of Electrons    NEL             ....   70
 Basis Dimension        Dim             ....  266
 Nuclear Repulsion      ENuc            ....    475.9346000228 Eh

Convergence Acceleration:
 DIIS                   CNVDIIS         .... on
   Start iteration      DIISMaxIt       ....    12
   Startup error        DIISStart       ....  0.200000
   # of expansion vecs  DIISMaxEq       ....     5
   Bias factor          DIISBfac        ....   1.050
   Max. coefficient     DIISMaxC        ....  10.000
 Trust-Rad. Augm. Hess. CNVTRAH         .... auto
   Auto Start mean grad. ratio tolernc. ....  1.125000
   Auto Start start iteration           ....    20
   Auto Start num. interpolation iter.  ....    10
   Max. Number of Micro iterations      ....    16
   Max. Number of Macro iterations      .... Maxiter - #DIIS iter
   Number of Davidson start vectors     ....     2
   Converg. threshold I  (grad. norm)   ....   1.000e-05
   Converg. threshold II (energy diff.) ....   1.000e-08
   Grad. Scal. Fac. for Micro threshold ....   0.100
   Minimum threshold for Micro iter.    ....   0.010
   NR start threshold (gradient norm)   ....   0.001
   Initial trust radius                 ....   0.400
   Minimum AH scaling param. (alpha)    ....   1.000
   Maximum AH scaling param. (alpha)    .... 1000.000
   Orbital update algorithm             .... Taylor
   White noise on init. David. guess    .... on
   Maximum white noise                  ....   0.010
   Quad. conv. algorithm                .... NR
 SOSCF                  CNVSOSCF        .... on
   Start iteration      SOSCFMaxIt      ....   150
   Startup grad/error   SOSCFStart      ....  0.003300
 Level Shifting         CNVShift        .... on
   Level shift para.    LevelShift      ....    0.2500
   Turn off err/grad.   ShiftErr        ....    0.0010
 Zerner damping         CNVZerner       .... off
 Static damping         CNVDamp         .... on
   Fraction old density DampFac         ....    0.7000
   Max. Damping (<1)    DampMax         ....    0.9800
   Min. Damping (>=0)   DampMin         ....    0.0000
   Turn off err/grad.   DampErr         ....    0.1000
 Fernandez-Rico         CNVRico         .... off

SCF Procedure:
 Maximum # iterations   MaxIter         ....   150
 SCF integral mode      SCFMode         .... Direct
   Integral package                     .... SHARK and LIBINT hybrid scheme
 Reset frequency        DirectResetFreq ....    20
 Integral Threshold     Thresh          ....  2.500e-11 Eh
 Primitive CutOff       TCut            ....  2.500e-12 Eh

Convergence Tolerance:
 Convergence Check Mode ConvCheckMode   .... Total+1el-Energy
 Convergence forced     ConvForced      .... 0
 Energy Change          TolE            ....  1.000e-08 Eh
 1-El. energy change                    ....  1.000e-05 Eh
 Orbital Gradient       TolG            ....  1.000e-05
 Orbital Rotation angle TolX            ....  1.000e-05
 DIIS Error             TolErr          ....  5.000e-07


Diagonalization of the overlap matrix:
Smallest eigenvalue                        ... 4.285e-05
Time for diagonalization                   ...    0.017 sec
Threshold for overlap eigenvalues          ... 1.000e-08
Number of eigenvalues below threshold      ... 0
Time for construction of square roots      ...    0.013 sec
Total time needed                          ...    0.031 sec

Time for model grid setup =    0.162 sec

------------------------------
INITIAL GUESS: MODEL POTENTIAL
------------------------------
Loading Hartree-Fock densities                     ... done
Calculating cut-offs                               ... done
Initializing the effective Hamiltonian             ... done
Setting up the integral package (SHARK)            ... done
Starting the Coulomb interaction                   ... done (   0.1 sec)
Reading the grid                                   ... done
Mapping shells                                     ... done
Starting the XC term evaluation                    ... done (   0.2 sec)
  promolecular density results
     # of electrons  =     69.989757683
     EX              =    -57.956547490
     EC              =     -2.344152218
     EX+EC           =    -60.300699709
Transforming the Hamiltonian                       ... done (   0.0 sec)
Diagonalizing the Hamiltonian                      ... done (   0.0 sec)
Back transforming the eigenvectors                 ... done (   0.0 sec)
Now organizing SCF variables                       ... done
                      ------------------
                      INITIAL GUESS DONE (   0.5 sec)
                      ------------------
-------------------
DFT GRID GENERATION
-------------------

General Integration Accuracy     IntAcc      ... 4.388
Radial Grid Type                 RadialGrid  ... OptM3 with GC (2021)
Angular Grid (max. ang.)         AngularGrid ... 4 (Lebedev-302)
Angular grid pruning method      GridPruning ... 4 (adaptive)
Weight generation scheme         WeightScheme... Becke
Basis function cutoff            BFCut       ... 1.0000e-11
Integration weight cutoff        WCut        ... 1.0000e-14
Angular grids for H and He will be reduced by one unit
Partially contracted basis set               ... off
Rotationally invariant grid construction     ... off

Total number of grid points                  ...    88479
Total number of batches                      ...     1394
Average number of points per batch           ...       63
Average number of grid points per atom       ...     4657
Time for grid setup =    0.622 sec

--------------------
COSX GRID GENERATION
--------------------

GRIDX 1
-------
General Integration Accuracy     IntAcc      ... 3.816
Radial Grid Type                 RadialGrid  ... OptM3 with GC (2021)
Angular Grid (max. ang.)         AngularGrid ... 1 (Lebedev-50)
Angular grid pruning method      GridPruning ... 4 (adaptive)
Weight generation scheme         WeightScheme... Becke
Basis function cutoff            BFCut       ... 1.0000e-11
Integration weight cutoff        WCut        ... 1.0000e-14
Angular grids for H and He will be reduced by one unit
Partially contracted basis set               ... on
Rotationally invariant grid construction     ... off

Total number of grid points                  ...    11095
Total number of batches                      ...      184
Average number of points per batch           ...       60
Average number of grid points per atom       ...      584
UseSFitting                                  ... on

GRIDX 2
-------
General Integration Accuracy     IntAcc      ... 4.020
Radial Grid Type                 RadialGrid  ... OptM3 with GC (2021)
Angular Grid (max. ang.)         AngularGrid ... 2 (Lebedev-110)
Angular grid pruning method      GridPruning ... 4 (adaptive)
Weight generation scheme         WeightScheme... Becke
Basis function cutoff            BFCut       ... 1.0000e-11
Integration weight cutoff        WCut        ... 1.0000e-14
Angular grids for H and He will be reduced by one unit
Partially contracted basis set               ... on
Rotationally invariant grid construction     ... off

Total number of grid points                  ...    25068
Total number of batches                      ...      402
Average number of points per batch           ...       62
Average number of grid points per atom       ...     1319
UseSFitting                                  ... on

GRIDX 3
-------
General Integration Accuracy     IntAcc      ... 4.338
Radial Grid Type                 RadialGrid  ... OptM3 with GC (2021)
Angular Grid (max. ang.)         AngularGrid ... 3 (Lebedev-194)
Angular grid pruning method      GridPruning ... 4 (adaptive)
Weight generation scheme         WeightScheme... Becke
Basis function cutoff            BFCut       ... 1.0000e-11
Integration weight cutoff        WCut        ... 1.0000e-14
Angular grids for H and He will be reduced by one unit
Partially contracted basis set               ... on
Rotationally invariant grid construction     ... off

Total number of grid points                  ...    56432
Total number of batches                      ...      891
Average number of points per batch           ...       63
Average number of grid points per atom       ...     2970
UseSFitting                                  ... on

Time for X-Grid setup             =    0.725 sec

--------------
SCF ITERATIONS
--------------
ITER       Energy         Delta-E        Max-DP      RMS-DP      [F,P]     Damp
               ***  Starting incremental Fock matrix formation  ***
  0   -454.8237792235   0.000000000000 0.07419961  0.00220495  0.2626174 0.7000
  1   -454.9663712155  -0.142591992062 0.04245971  0.00150591  0.1200987 0.7000
                               ***Turning on DIIS***
  2   -455.0321671127  -0.065795897228 0.09235254  0.00310004  0.0432260 0.0000
  3   -455.1410596080  -0.108892495210 0.04753840  0.00124858  0.0689997 0.0000
  4   -455.1588435880  -0.017783980076 0.01293413  0.00030942  0.0081791 0.0000
  5   -455.1592917025  -0.000448114517 0.00337806  0.00012578  0.0046351 0.0000
                      *** Initiating the SOSCF procedure ***
                           *** Shutting down DIIS ***
                      *** Re-Reading the Fockian *** 
                      *** Removing any level shift *** 
ITER      Energy       Delta-E        Grad      Rot      Max-DP    RMS-DP
  6   -455.15938090  -0.0000892024  0.000427  0.000427  0.002244  0.000063
               *** Restarting incremental Fock matrix formation ***
  7   -455.15938310  -0.0000021992  0.000283  0.000612  0.002939  0.000066
  8   -455.15938618  -0.0000030763  0.000257  0.000408  0.002016  0.000039
  9   -455.15938843  -0.0000022479  0.000045  0.000056  0.000577  0.000016
 10   -455.15938848  -0.0000000543  0.000046  0.000041  0.000155  0.000005
 11   -455.15938856  -0.0000000819  0.000004  0.000014  0.000054  0.000002
 12   -455.15938857  -0.0000000028  0.000003  0.000005  0.000031  0.000001
                  ***Gradient check signals convergence***
              ***Rediagonalizing the Fockian in SOSCF/NRSCF***

               *****************************************************
               *                     SUCCESS                       *
               *           SCF CONVERGED AFTER  13 CYCLES          *
               *****************************************************


----------------
TOTAL SCF ENERGY
----------------

Total Energy       :         -455.15938857 Eh          -12385.51663 eV

Components:
Nuclear Repulsion  :          475.93460002 Eh           12950.83887 eV
Electronic Energy  :         -931.09398859 Eh          -25336.35550 eV
One Electron Energy:        -1563.64833513 Eh          -42549.03435 eV
Two Electron Energy:          632.55434653 Eh           17212.67884 eV
Max COSX asymmetry :            0.00000693 Eh               0.00019 eV

Virial components:
Potential Energy   :         -906.19365784 Eh          -24658.78306 eV
Kinetic Energy     :          451.03426927 Eh           12273.26643 eV
Virial Ratio       :            2.00914591


DFT components:
N(Alpha)           :       35.000022837746 electrons
N(Beta)            :       35.000022837746 electrons
N(Total)           :       70.000045675493 electrons
E(XC)              :      -48.795460623771 Eh       
DFET-embed. en.    :        0.000000000000 Eh       

---------------
SCF CONVERGENCE
---------------

  Last Energy change         ...   -1.0886e-09  Tolerance :   1.0000e-08
  Last MAX-Density change    ...    3.0334e-05  Tolerance :   1.0000e-07
  Last RMS-Density change    ...    7.6505e-07  Tolerance :   5.0000e-09
  Last Orbital Gradient      ...    8.8324e-07  Tolerance :   1.0000e-05
  Last Orbital Rotation      ...    2.2133e-06  Tolerance :   1.0000e-05

             **** THE GBW FILE WAS UPDATED (28Oct_SVPD_LC_BLYP_B_wt_wb97.gbw) ****
             **** DENSITY 28Oct_SVPD_LC_BLYP_B_wt_wb97.scfp WAS UPDATED ****
             **** ENERGY FILE WAS UPDATED (28Oct_SVPD_LC_BLYP_B_wt_wb97.en.tmp) ****
             **** THE GBW FILE WAS UPDATED (28Oct_SVPD_LC_BLYP_B_wt_wb97.gbw) ****
             **** DENSITY 28Oct_SVPD_LC_BLYP_B_wt_wb97.scfp WAS UPDATED ****
----------------
ORBITAL ENERGIES
----------------

  NO   OCC          E(Eh)            E(eV) 
   0   2.0000     -18.869602      -513.4680 
   1   2.0000     -18.858528      -513.1666 
   2   2.0000     -14.289734      -388.8434 
   3   2.0000     -14.249700      -387.7541 
   4   2.0000     -10.252474      -278.9840 
   5   2.0000     -10.140197      -275.9288 
   6   2.0000     -10.130651      -275.6690 
   7   2.0000     -10.106689      -275.0170 
   8   2.0000     -10.066364      -273.9197 
   9   2.0000      -1.142440       -31.0874 
  10   2.0000      -1.080908       -29.4130 
  11   2.0000      -1.045006       -28.4360 
  12   2.0000      -0.989419       -26.9234 
  13   2.0000      -0.930052       -25.3080 
  14   2.0000      -0.844125       -22.9698 
  15   2.0000      -0.782886       -21.3034 
  16   2.0000      -0.741247       -20.1704 
  17   2.0000      -0.728120       -19.8131 
  18   2.0000      -0.692459       -18.8428 
  19   2.0000      -0.650124       -17.6908 
  20   2.0000      -0.614876       -16.7316 
  21   2.0000      -0.593797       -16.1580 
  22   2.0000      -0.570008       -15.5107 
  23   2.0000      -0.550895       -14.9906 
  24   2.0000      -0.530643       -14.4395 
  25   2.0000      -0.501708       -13.6522 
  26   2.0000      -0.486434       -13.2365 
  27   2.0000      -0.474414       -12.9095 
  28   2.0000      -0.470592       -12.8054 
  29   2.0000      -0.442091       -12.0299 
  30   2.0000      -0.434540       -11.8244 
  31   2.0000      -0.430263       -11.7081 
  32   2.0000      -0.322402        -8.7730 
  33   2.0000      -0.315951        -8.5975 
  34   2.0000      -0.294634        -8.0174 
  35   0.0000       0.020666         0.5624 
  36   0.0000       0.024705         0.6723 
  37   0.0000       0.061435         1.6717 
  38   0.0000       0.082568         2.2468 
  39   0.0000       0.090454         2.4614 
  40   0.0000       0.101299         2.7565 
  41   0.0000       0.112388         3.0582 
  42   0.0000       0.127108         3.4588 
  43   0.0000       0.138350         3.7647 
  44   0.0000       0.147585         4.0160 
  45   0.0000       0.152478         4.1491 
  46   0.0000       0.159264         4.3338 
  47   0.0000       0.173252         4.7144 
  48   0.0000       0.178886         4.8677 
  49   0.0000       0.184106         5.0098 
  50   0.0000       0.189079         5.1451 
  51   0.0000       0.200538         5.4569 
  52   0.0000       0.210413         5.7256 
  53   0.0000       0.212497         5.7823 
  54   0.0000       0.221398         6.0245 
  55   0.0000       0.242114         6.5883 
  56   0.0000       0.247115         6.7243 
  57   0.0000       0.251003         6.8301 
  58   0.0000       0.261483         7.1153 
  59   0.0000       0.263268         7.1639 
  60   0.0000       0.268725         7.3124 
  61   0.0000       0.272848         7.4246 
  62   0.0000       0.289604         7.8805 
  63   0.0000       0.296219         8.0605 
  64   0.0000       0.300855         8.1867 
  65   0.0000       0.314237         8.5508 
  66   0.0000       0.326293         8.8789 
  67   0.0000       0.330026         8.9805 
  68   0.0000       0.335159         9.1201 
  69   0.0000       0.338617         9.2142 
  70   0.0000       0.348420         9.4810 
  71   0.0000       0.351756         9.5718 
  72   0.0000       0.359242         9.7755 
  73   0.0000       0.364459         9.9174 
  74   0.0000       0.367813        10.0087 
  75   0.0000       0.380195        10.3456 
  76   0.0000       0.387942        10.5564 
  77   0.0000       0.396791        10.7972 
  78   0.0000       0.398821        10.8525 
  79   0.0000       0.406982        11.0745 
  80   0.0000       0.417498        11.3607 
  81   0.0000       0.419753        11.4220 
  82   0.0000       0.432524        11.7696 
  83   0.0000       0.436947        11.8899 
  84   0.0000       0.439407        11.9569 
  85   0.0000       0.443527        12.0690 
  86   0.0000       0.452263        12.3067 
  87   0.0000       0.456531        12.4228 
  88   0.0000       0.464655        12.6439 
  89   0.0000       0.478392        13.0177 
  90   0.0000       0.488661        13.2972 
  91   0.0000       0.494498        13.4560 
  92   0.0000       0.495471        13.4825 
  93   0.0000       0.502407        13.6712 
  94   0.0000       0.510030        13.8786 
  95   0.0000       0.518325        14.1043 
  96   0.0000       0.527742        14.3606 
  97   0.0000       0.529719        14.4144 
  98   0.0000       0.542493        14.7620 
  99   0.0000       0.546926        14.8826 
 100   0.0000       0.552137        15.0244 
 101   0.0000       0.565330        15.3834 
 102   0.0000       0.571830        15.5603 
 103   0.0000       0.577619        15.7178 
 104   0.0000       0.583976        15.8908 
 105   0.0000       0.589943        16.0532 
 106   0.0000       0.601591        16.3701 
 107   0.0000       0.605017        16.4634 
 108   0.0000       0.608641        16.5620 
 109   0.0000       0.613670        16.6988 
 110   0.0000       0.629218        17.1219 
 111   0.0000       0.633547        17.2397 
 112   0.0000       0.638877        17.3847 
 113   0.0000       0.646016        17.5790 
 114   0.0000       0.650981        17.7141 
 115   0.0000       0.661052        17.9881 
 116   0.0000       0.665122        18.0989 
 117   0.0000       0.673245        18.3199 
 118   0.0000       0.679171        18.4812 
 119   0.0000       0.693320        18.8662 
 120   0.0000       0.703705        19.1488 
 121   0.0000       0.712931        19.3998 
 122   0.0000       0.722225        19.6528 
 123   0.0000       0.725733        19.7482 
 124   0.0000       0.741085        20.1660 
 125   0.0000       0.753020        20.4907 
 126   0.0000       0.759716        20.6729 
 127   0.0000       0.767811        20.8932 
 128   0.0000       0.777608        21.1598 
 129   0.0000       0.785336        21.3701 
 130   0.0000       0.790651        21.5147 
 131   0.0000       0.800902        21.7937 
 132   0.0000       0.805230        21.9114 
 133   0.0000       0.812433        22.1074 
 134   0.0000       0.822476        22.3807 
 135   0.0000       0.837339        22.7851 
 136   0.0000       0.860904        23.4264 
 137   0.0000       0.870508        23.6877 
 138   0.0000       0.890125        24.2215 
 139   0.0000       0.911153        24.7937 
 140   0.0000       0.923814        25.1383 
 141   0.0000       0.932322        25.3698 
 142   0.0000       0.935777        25.4638 
 143   0.0000       0.951824        25.9004 
 144   0.0000       0.970849        26.4181 
 145   0.0000       0.991668        26.9846 
 146   0.0000       1.025038        27.8927 
 147   0.0000       1.038166        28.2499 
 148   0.0000       1.049138        28.5485 
 149   0.0000       1.062815        28.9207 
 150   0.0000       1.073017        29.1983 
 151   0.0000       1.087339        29.5880 
 152   0.0000       1.093949        29.7679 
 153   0.0000       1.110431        30.2164 
 154   0.0000       1.128464        30.7071 
 155   0.0000       1.130925        30.7740 
 156   0.0000       1.149206        31.2715 
 157   0.0000       1.163988        31.6737 
 158   0.0000       1.185801        32.2673 
 159   0.0000       1.198867        32.6228 
 160   0.0000       1.202806        32.7300 
 161   0.0000       1.214935        33.0601 
 162   0.0000       1.241992        33.7963 
 163   0.0000       1.254591        34.1391 
 164   0.0000       1.273885        34.6642 
 165   0.0000       1.284930        34.9647 
 166   0.0000       1.300759        35.3954 
 167   0.0000       1.330411        36.2023 
 168   0.0000       1.358121        36.9564 
 169   0.0000       1.383517        37.6474 
 170   0.0000       1.389594        37.8128 
 171   0.0000       1.398855        38.0648 
 172   0.0000       1.471098        40.0306 
 173   0.0000       1.488227        40.4967 
 174   0.0000       1.508886        41.0589 
 175   0.0000       1.540953        41.9315 
 176   0.0000       1.548946        42.1490 
 177   0.0000       1.601880        43.5894 
 178   0.0000       1.650172        44.9035 
 179   0.0000       1.656548        45.0770 
 180   0.0000       1.682241        45.7761 
 181   0.0000       1.721473        46.8437 
 182   0.0000       1.724715        46.9319 
 183   0.0000       1.732254        47.1370 
 184   0.0000       1.744922        47.4818 
 185   0.0000       1.778561        48.3971 
 186   0.0000       1.793295        48.7980 
 187   0.0000       1.798895        48.9504 
 188   0.0000       1.812579        49.3228 
 189   0.0000       1.818963        49.4965 
 190   0.0000       1.846262        50.2393 
 191   0.0000       1.861681        50.6589 
 192   0.0000       1.867408        50.8147 
 193   0.0000       1.893584        51.5270 
 194   0.0000       1.897975        51.6465 
 195   0.0000       1.914622        52.0995 
 196   0.0000       1.940893        52.8144 
 197   0.0000       1.970151        53.6105 
 198   0.0000       1.984605        54.0038 
 199   0.0000       2.003099        54.5071 
 200   0.0000       2.012588        54.7653 
 201   0.0000       2.028171        55.1894 
 202   0.0000       2.042407        55.5767 
 203   0.0000       2.065471        56.2043 
 204   0.0000       2.071164        56.3592 
 205   0.0000       2.090264        56.8790 
 206   0.0000       2.105790        57.3015 
 207   0.0000       2.107111        57.3374 
 208   0.0000       2.124191        57.8022 
 209   0.0000       2.136862        58.1470 
 210   0.0000       2.141327        58.2685 
 211   0.0000       2.166357        58.9496 
 212   0.0000       2.180792        59.3424 
 213   0.0000       2.202966        59.9458 
 214   0.0000       2.225523        60.5596 
 215   0.0000       2.242719        61.0275 
 216   0.0000       2.249779        61.2196 
 217   0.0000       2.268664        61.7335 
 218   0.0000       2.286438        62.2171 
 219   0.0000       2.305054        62.7237 
 220   0.0000       2.344514        63.7975 
 221   0.0000       2.377698        64.7005 
 222   0.0000       2.413039        65.6621 
 223   0.0000       2.437462        66.3267 
 224   0.0000       2.463240        67.0282 
 225   0.0000       2.477513        67.4166 
 226   0.0000       2.482271        67.5460 
 227   0.0000       2.521440        68.6119 
 228   0.0000       2.557160        69.5839 
 229   0.0000       2.596070        70.6427 
 230   0.0000       2.606354        70.9225 
 231   0.0000       2.624874        71.4264 
 232   0.0000       2.640818        71.8603 
 233   0.0000       2.664766        72.5120 
 234   0.0000       2.665966        72.5446 
 235   0.0000       2.683963        73.0343 
 236   0.0000       2.732074        74.3435 
 237   0.0000       2.750136        74.8350 
 238   0.0000       2.788447        75.8775 
 239   0.0000       2.818619        76.6985 
 240   0.0000       2.827169        76.9312 
 241   0.0000       2.866436        77.9997 
 242   0.0000       2.900778        78.9342 
 243   0.0000       2.955274        80.4171 
 244   0.0000       3.053222        83.0824 
 245   0.0000       3.077942        83.7551 
 246   0.0000       3.081913        83.8631 
 247   0.0000       3.109177        84.6050 
 248   0.0000       3.117348        84.8274 
 249   0.0000       3.169498        86.2464 
 250   0.0000       3.193798        86.9077 
 251   0.0000       3.194093        86.9157 
 252   0.0000       3.237987        88.1101 
 253   0.0000       3.273406        89.0739 
 254   0.0000       3.294100        89.6370 
 255   0.0000       3.312847        90.1472 
 256   0.0000       3.357588        91.3646 
 257   0.0000       3.367468        91.6335 
 258   0.0000       3.400829        92.5413 
 259   0.0000       3.482567        94.7655 
 260   0.0000       3.548184        96.5510 
 261   0.0000       3.635151        98.9175 
 262   0.0000       3.655839        99.4805 
 263   0.0000       3.865815       105.1942 
 264   0.0000       3.913710       106.4975 
 265   0.0000       4.037335       109.8615 

                    ********************************
                    * MULLIKEN POPULATION ANALYSIS *
                    ********************************

-----------------------
MULLIKEN ATOMIC CHARGES
-----------------------
   0 C :    0.272916
   1 C :    0.137559
   2 C :    0.463653
   3 H :   -0.244398
   4 H :    0.006183
   5 C :    0.154614
   6 C :    0.359799
   7 N :    0.226591
   8 N :    0.723875
   9 H :   -0.202530
  10 H :   -0.413958
  11 H :   -0.046801
  12 H :   -0.198086
  13 H :   -0.031257
  14 H :   -0.249829
  15 O :   -0.405546
  16 O :   -0.475171
  17 H :    0.145487
  18 H :   -0.223103
Sum of atomic charges:    0.0000000

--------------------------------
MULLIKEN REDUCED ORBITAL CHARGES
--------------------------------
  0 C s       :     2.614247  s :     2.614247
      pz      :     0.957680  p :     2.774622
      px      :     0.766722
      py      :     1.050220
      dz2     :     0.005780  d :     0.338215
      dxz     :     0.011492
      dyz     :     0.118804
      dx2y2   :     0.049761
      dxy     :     0.152378
  1 C s       :     2.720324  s :     2.720324
      pz      :     0.747603  p :     2.626606
      px      :     0.967214
      py      :     0.911789
      dz2     :     0.023525  d :     0.515510
      dxz     :     0.123023
      dyz     :     0.094609
      dx2y2   :     0.155885
      dxy     :     0.118467
  2 C s       :     2.537152  s :     2.537152
      pz      :     0.934616  p :     2.724886
      px      :     0.950751
      py      :     0.839519
      dz2     :     0.013739  d :     0.274308
      dxz     :     0.080748
      dyz     :     0.033719
      dx2y2   :     0.121785
      dxy     :     0.024318
  3 H s       :     1.237163  s :     1.237163
      pz      :    -0.021946  p :     0.007235
      px      :    -0.018553
      py      :     0.047734
  4 H s       :     0.981776  s :     0.981776
      pz      :     0.043319  p :     0.012041
      px      :    -0.010091
      py      :    -0.021186
  5 C s       :     3.021600  s :     3.021600
      pz      :     0.879628  p :     2.421290
      px      :     0.779151
      py      :     0.762511
      dz2     :     0.094544  d :     0.402495
      dxz     :     0.075409
      dyz     :     0.069371
      dx2y2   :     0.081694
      dxy     :     0.081477
  6 C s       :     3.273212  s :     3.273212
      pz      :     0.837625  p :     2.453078
      px      :     0.919950
      py      :     0.695503
      dz2     :     0.022047  d :    -0.086090
      dxz     :    -0.162423
      dyz     :     0.019433
      dx2y2   :     0.070510
      dxy     :    -0.035657
  7 N s       :     3.255585  s :     3.255585
      pz      :     1.042856  p :     3.543962
      px      :     1.034381
      py      :     1.466724
      dz2     :    -0.002673  d :    -0.026137
      dxz     :    -0.018025
      dyz     :     0.010227
      dx2y2   :    -0.008834
      dxy     :    -0.006833
  8 N s       :     2.855453  s :     2.855453
      pz      :     1.146898  p :     3.444198
      px      :     0.919677
      py      :     1.377623
      dz2     :    -0.002764  d :    -0.023526
      dxz     :    -0.038584
      dyz     :    -0.004995
      dx2y2   :     0.022203
      dxy     :     0.000614
  9 H s       :     1.200198  s :     1.200198
      pz      :    -0.024191  p :     0.002332
      px      :    -0.008169
      py      :     0.034691
 10 H s       :     1.190184  s :     1.190184
      pz      :     0.135147  p :     0.223774
      px      :    -0.005990
      py      :     0.094617
 11 H s       :     1.031908  s :     1.031908
      pz      :    -0.016705  p :     0.014893
      px      :    -0.017853
      py      :     0.049451
 12 H s       :     1.161646  s :     1.161646
      pz      :     0.022769  p :     0.036440
      px      :    -0.037309
      py      :     0.050981
 13 H s       :     1.067743  s :     1.067743
      pz      :    -0.018749  p :    -0.036486
      px      :     0.013875
      py      :    -0.031612
 14 H s       :     1.239014  s :     1.239014
      pz      :     0.018555  p :     0.010815
      px      :     0.005808
      py      :    -0.013548
 15 O s       :     3.813039  s :     3.813039
      pz      :     1.325493  p :     4.566450
      px      :     1.675273
      py      :     1.565684
      dz2     :     0.009618  d :     0.026057
      dxz     :     0.005384
      dyz     :     0.009866
      dx2y2   :     0.000208
      dxy     :     0.000980
 16 O s       :     3.798486  s :     3.798486
      pz      :     1.755159  p :     4.681869
      px      :     1.461518
      py      :     1.465191
      dz2     :    -0.007762  d :    -0.005184
      dxz     :    -0.004380
      dyz     :    -0.010475
      dx2y2   :     0.008586
      dxy     :     0.008847
 17 H s       :     0.839621  s :     0.839621
      pz      :     0.046933  p :     0.014892
      px      :    -0.020963
      py      :    -0.011078
 18 H s       :     1.176738  s :     1.176738
      pz      :     0.015054  p :     0.046364
      px      :     0.028211
      py      :     0.003100


                     *******************************
                     * LOEWDIN POPULATION ANALYSIS *
                     *******************************

----------------------
LOEWDIN ATOMIC CHARGES
----------------------
   0 C :    0.039172
   1 C :   -0.010102
   2 C :    0.019517
   3 H :    0.028278
   4 H :    0.013276
   5 C :   -0.266125
   6 C :   -0.061055
   7 N :    0.256580
   8 N :    0.319775
   9 H :    0.042891
  10 H :   -0.142865
  11 H :    0.030526
  12 H :    0.024267
  13 H :    0.041889
  14 H :    0.024068
  15 O :   -0.197550
  16 O :   -0.239595
  17 H :    0.047505
  18 H :    0.029549

-------------------------------
LOEWDIN REDUCED ORBITAL CHARGES
-------------------------------
  0 C s       :     2.675900  s :     2.675900
      pz      :     0.888019  p :     2.686309
      px      :     0.882598
      py      :     0.915693
      dz2     :     0.105182  d :     0.598618
      dxz     :     0.104480
      dyz     :     0.131538
      dx2y2   :     0.097548
      dxy     :     0.159870
  1 C s       :     2.680593  s :     2.680593
      pz      :     0.919287  p :     2.681544
      px      :     0.908922
      py      :     0.853336
      dz2     :     0.074094  d :     0.647965
      dxz     :     0.147868
      dyz     :     0.100273
      dx2y2   :     0.176104
      dxy     :     0.149626
  2 C s       :     2.680665  s :     2.680665
      pz      :     0.907521  p :     2.698368
      px      :     0.891689
      py      :     0.899158
      dz2     :     0.127602  d :     0.601450
      dxz     :     0.158281
      dyz     :     0.071000
      dx2y2   :     0.126338
      dxy     :     0.118229
  3 H s       :     0.715303  s :     0.715303
      pz      :     0.075092  p :     0.256420
      px      :     0.071617
      py      :     0.109711
  4 H s       :     0.719661  s :     0.719661
      pz      :     0.107174  p :     0.267062
      px      :     0.082142
      py      :     0.077746
  5 C s       :     2.664874  s :     2.664874
      pz      :     0.896054  p :     2.413336
      px      :     0.774297
      py      :     0.742985
      dz2     :     0.290384  d :     1.187915
      dxz     :     0.279085
      dyz     :     0.242254
      dx2y2   :     0.190760
      dxy     :     0.185432
  6 C s       :     2.643554  s :     2.643554
      pz      :     0.855197  p :     2.423168
      px      :     0.910926
      py      :     0.657044
      dz2     :     0.222991  d :     0.994333
      dxz     :     0.257955
      dyz     :     0.136757
      dx2y2   :     0.185160
      dxy     :     0.191470
  7 N s       :     2.929428  s :     2.929428
      pz      :     1.119042  p :     3.505865
      px      :     1.083680
      py      :     1.303143
      dz2     :     0.092956  d :     0.308127
      dxz     :     0.082585
      dyz     :     0.053264
      dx2y2   :     0.043149
      dxy     :     0.036174
  8 N s       :     2.916807  s :     2.916807
      pz      :     1.132211  p :     3.417059
      px      :     1.076792
      py      :     1.208056
      dz2     :     0.053681  d :     0.346359
      dxz     :     0.116278
      dyz     :     0.038215
      dx2y2   :     0.077401
      dxy     :     0.060782
  9 H s       :     0.651599  s :     0.651599
      pz      :     0.117451  p :     0.305510
      px      :     0.095479
      py      :     0.092579
 10 H s       :     0.556925  s :     0.556925
      pz      :     0.300590  p :     0.585939
      px      :     0.105191
      py      :     0.180159
 11 H s       :     0.637904  s :     0.637904
      pz      :     0.081008  p :     0.331570
      px      :     0.147024
      py      :     0.103538
 12 H s       :     0.651222  s :     0.651222
      pz      :     0.121827  p :     0.324511
      px      :     0.098514
      py      :     0.104170
 13 H s       :     0.706284  s :     0.706284
      pz      :     0.107970  p :     0.251827
      px      :     0.082583
      py      :     0.061274
 14 H s       :     0.727650  s :     0.727650
      pz      :     0.108576  p :     0.248282
      px      :     0.078673
      py      :     0.061034
 15 O s       :     3.441190  s :     3.441190
      pz      :     1.492947  p :     4.535383
      px      :     1.552540
      py      :     1.489896
      dz2     :     0.083423  d :     0.220977
      dxz     :     0.052228
      dyz     :     0.053756
      dx2y2   :     0.012154
      dxy     :     0.019415
 16 O s       :     3.387194  s :     3.387194
      pz      :     1.639201  p :     4.572896
      px      :     1.484489
      py      :     1.449206
      dz2     :     0.047998  d :     0.279505
      dxz     :     0.045862
      dyz     :     0.066115
      dx2y2   :     0.049865
      dxy     :     0.069666
 17 H s       :     0.677626  s :     0.677626
      pz      :     0.106765  p :     0.274869
      px      :     0.096276
      py      :     0.071827
 18 H s       :     0.717361  s :     0.717361
      pz      :     0.070141  p :     0.253091
      px      :     0.102176
      py      :     0.080774


                      *****************************
                      * MAYER POPULATION ANALYSIS *
                      *****************************

  NA   - Mulliken gross atomic population
  ZA   - Total nuclear charge
  QA   - Mulliken gross atomic charge
  VA   - Mayer's total valence
  BVA  - Mayer's bonded valence
  FA   - Mayer's free valence

  ATOM       NA         ZA         QA         VA         BVA        FA
  0 C      5.7271     6.0000     0.2729     4.3192     4.3192     0.0000
  1 C      5.8624     6.0000     0.1376     5.0647     5.0647     0.0000
  2 C      5.5363     6.0000     0.4637     4.1504     4.1504     0.0000
  3 H      1.2444     1.0000    -0.2444     1.0376     1.0376    -0.0000
  4 H      0.9938     1.0000     0.0062     0.9978     0.9978     0.0000
  5 C      5.8454     6.0000     0.1546     4.5487     4.5487     0.0000
  6 C      5.6402     6.0000     0.3598     3.3464     3.3464    -0.0000
  7 N      6.7734     7.0000     0.2266     3.8604     3.8604     0.0000
  8 N      6.2761     7.0000     0.7239     3.7610     3.7610     0.0000
  9 H      1.2025     1.0000    -0.2025     0.8071     0.8071     0.0000
 10 H      1.4140     1.0000    -0.4140     1.1929     1.1929    -0.0000
 11 H      1.0468     1.0000    -0.0468     0.8629     0.8629     0.0000
 12 H      1.1981     1.0000    -0.1981     0.9266     0.9266     0.0000
 13 H      1.0313     1.0000    -0.0313     0.9332     0.9332     0.0000
 14 H      1.2498     1.0000    -0.2498     1.0530     1.0530     0.0000
 15 O      8.4055     8.0000    -0.4055     1.9299     1.9299    -0.0000
 16 O      8.4752     8.0000    -0.4752     1.8780     1.8780    -0.0000
 17 H      0.8545     1.0000     0.1455     1.0836     1.0836    -0.0000
 18 H      1.2231     1.0000    -0.2231     1.1552     1.1552     0.0000

  Mayer bond orders larger than 0.100000
B(  0-C ,  1-C ) :   1.1923 B(  0-C ,  6-C ) :   1.0925 B(  0-C ,  7-N ) :   0.1034 
B(  0-C , 13-H ) :   0.1453 B(  0-C , 14-H ) :   0.1441 B(  0-C , 17-H ) :   0.6769 
B(  0-C , 18-H ) :   0.8364 B(  1-C ,  2-C ) :   1.2490 B(  1-C ,  3-H ) :   0.2110 
B(  1-C ,  4-H ) :   0.1982 B(  1-C , 13-H ) :   0.8143 B(  1-C , 14-H ) :   0.8921 
B(  1-C , 17-H ) :   0.1633 B(  1-C , 18-H ) :   0.1715 B(  2-C ,  3-H ) :   0.7402 
B(  2-C ,  4-H ) :   0.7878 B(  2-C ,  5-C ) :   0.9730 B(  2-C , 13-H ) :   0.1479 
B(  3-H ,  5-C ) :   0.1759 B(  5-C , 15-O ) :   1.7814 B(  5-C , 16-O ) :   1.3726 
B(  6-C ,  7-N ) :   1.0805 B(  6-C ,  8-N ) :   1.2422 B(  6-C ,  9-H ) :  -0.2160 
B(  6-C , 11-H ) :  -0.1351 B(  6-C , 12-H ) :  -0.1484 B(  6-C , 17-H ) :   0.1525 
B(  6-C , 18-H ) :   0.1368 B(  7-N ,  8-N ) :   0.1495 B(  7-N , 11-H ) :   1.1772 
B(  7-N , 12-H ) :   1.2958 B(  8-N ,  9-H ) :   1.2509 B(  8-N , 10-H ) :   1.0749 
B(  9-H , 10-H ) :  -0.2394 B( 10-H , 16-O ) :   0.3373 B( 11-H , 12-H ) :  -0.1923 
B( 15-O , 16-O ) :   0.1299 

-------
TIMINGS
-------

Total SCF time: 0 days 0 hours 1 min 1 sec 

Total time                  ....      61.333 sec
Sum of individual times     ....      61.062 sec  ( 99.6%)

Fock matrix formation       ....      58.872 sec  ( 96.0%)
  Split-RI-J                ....       2.958 sec  (  5.0% of F)
  Chain of spheres X        ....      47.800 sec  ( 81.2% of F)
  XC integration            ....       8.034 sec  ( 13.6% of F)
    Basis function eval.    ....       2.422 sec  ( 30.1% of XC)
    Density eval.           ....       2.196 sec  ( 27.3% of XC)
    XC-Functional eval.     ....       0.522 sec  (  6.5% of XC)
    XC-Potential eval.      ....       2.590 sec  ( 32.2% of XC)
Diagonalization             ....       0.130 sec  (  0.2%)
Density matrix formation    ....       0.010 sec  (  0.0%)
Population analysis         ....       0.017 sec  (  0.0%)
Initial guess               ....       0.358 sec  (  0.6%)
Orbital Transformation      ....       0.000 sec  (  0.0%)
Orbital Orthonormalization  ....       0.000 sec  (  0.0%)
DIIS solution               ....       0.070 sec  (  0.1%)
SOSCF solution              ....       0.096 sec  (  0.2%)
Grid generation             ....       1.509 sec  (  2.5%)

Maximum memory used throughout the entire SCF-calculation: 37.0 MB

-------------------------   --------------------
FINAL SINGLE POINT ENERGY      -455.159388568420
-------------------------   --------------------


                            ***************************************
                            *     ORCA property calculations      *
                            ***************************************

                                    ---------------------
                                    Active property flags
                                    ---------------------
   (+) Dipole Moment


------------------------------------------------------------------------------
                       ORCA ELECTRIC PROPERTIES CALCULATION
------------------------------------------------------------------------------

Dipole Moment Calculation                       ... on
Quadrupole Moment Calculation                   ... off
Polarizability Calculation                      ... off
GBWName                                         ... 28Oct_SVPD_LC_BLYP_B_wt_wb97.gbw
Electron density file                           ... 28Oct_SVPD_LC_BLYP_B_wt_wb97.scfp
The origin for moment calculation is the CENTER OF MASS  = ( 8.356216,  4.608792 -6.645847)

-------------
DIPOLE MOMENT
-------------
                                X             Y             Z
Electronic contribution:      3.86318       0.04175       2.51450
Nuclear contribution   :     -5.42217       2.65262      -7.07590
                        -----------------------------------------
Total Dipole Moment    :     -1.55899       2.69437      -4.56141
                        -----------------------------------------
Magnitude (a.u.)       :      5.52237
Magnitude (Debye)      :     14.03674



--------------------
Rotational spectrum 
--------------------
 
Rotational constants in cm-1:     0.107541     0.035862     0.030371 
Rotational constants in MHz :  3223.996852  1075.120464   910.508313 

 Dipole components along the rotational axes: 
x,y,z [a.u.] :    -5.419293     0.732879     0.768547 
x,y,z [Debye]:   -13.774749     1.862830     1.953490 

 

Timings for individual modules:

Sum of individual times         ...       62.248 sec (=   1.037 min)
GTO integral calculation        ...        0.557 sec (=   0.009 min)   0.9 %
SCF iterations                  ...       61.691 sec (=   1.028 min)  99.1 %
                             ****ORCA TERMINATED NORMALLY****
TOTAL RUN TIME: 0 days 0 hours 1 minutes 2 seconds 710 msec
