
                                        *****************
                                        * O   R   C   A *
                                        *****************

                                            #,                                       
                                            ###                                      
                                            ####                                     
                                            #####                                    
                                            ######                                   
                                           ########,                                 
                                     ,,################,,,,,                         
                               ,,#################################,,                 
                          ,,##########################################,,             
                       ,#########################################, ''#####,          
                    ,#############################################,,   '####,        
                  ,##################################################,,,,####,       
                ,###########''''           ''''###############################       
              ,#####''   ,,,,##########,,,,          '''####'''          '####       
            ,##' ,,,,###########################,,,                        '##       
           ' ,,###''''                  '''############,,,                           
         ,,##''                                '''############,,,,        ,,,,,,###''
      ,#''                                            '''#######################'''  
     '                                                          ''''####''''         
             ,#######,   #######,   ,#######,      ##                                
            ,#'     '#,  ##    ##  ,#'     '#,    #''#        ######   ,####,        
            ##       ##  ##   ,#'  ##            #'  '#       #        #'  '#        
            ##       ##  #######   ##           ,######,      #####,   #    #        
            '#,     ,#'  ##    ##  '#,     ,#' ,#      #,         ##   #,  ,#        
             '#######'   ##     ##  '#######'  #'      '#     #####' # '####'        



                  #######################################################
                  #                        -***-                        #
                  #          Department of theory and spectroscopy      #
                  #    Directorship and core code : Frank Neese         #
                  #        Max Planck Institute fuer Kohlenforschung    #
                  #                Kaiser Wilhelm Platz 1               #
                  #                 D-45470 Muelheim/Ruhr               #
                  #                      Germany                        #
                  #                                                     #
                  #                  All rights reserved                #
                  #                        -***-                        #
                  #######################################################


                         Program Version 5.0.0 -  RELEASE  -
                                (SVN: $Rev: 19529$)
                ($Date: 2021-06-28 11:36:33 +0200 (Mo, 28 Jun 2021) $)


 With contributions from (in alphabetic order):
   Daniel Aravena         : Magnetic Suceptibility
   Michael Atanasov       : Ab Initio Ligand Field Theory (pilot matlab implementation)
   Alexander A. Auer      : GIAO ZORA, VPT2 properties, NMR spectrum
   Ute Becker             : Parallelization
   Giovanni Bistoni       : ED, misc. LED, open-shell LED, HFLD
   Martin Brehm           : Molecular dynamics
   Dmytro Bykov           : SCF Hessian
   Vijay G. Chilkuri      : MRCI spin determinant printing, contributions to CSF-ICE
   Dipayan Datta          : RHF DLPNO-CCSD density
   Achintya Kumar Dutta   : EOM-CC, STEOM-CC
   Dmitry Ganyushin       : Spin-Orbit,Spin-Spin,Magnetic field MRCI
   Miquel Garcia          : C-PCM Hessian, Gaussian charge scheme
   Yang Guo               : DLPNO-NEVPT2, F12-NEVPT2, CIM, IAO-localization
   Andreas Hansen         : Spin unrestricted coupled pair/coupled cluster methods
   Benjamin Helmich-Paris : MC-RPA, TRAH-SCF, COSX integrals
   Lee Huntington         : MR-EOM, pCC
   Robert Izsak           : Overlap fitted RIJCOSX, COSX-SCS-MP3, EOM
   Marcus Kettner         : VPT2
   Christian Kollmar      : KDIIS, OOCD, Brueckner-CCSD(T), CCSD density, CASPT2, CASPT2-K
   Simone Kossmann        : Meta GGA functionals, TD-DFT gradient, OOMP2, MP2 Hessian
   Martin Krupicka        : Initial AUTO-CI
   Lucas Lang             : DCDCAS
   Marvin Lechner         : AUTO-CI (C++ implementation), FIC-MRCC
   Dagmar Lenk            : GEPOL surface, SMD
   Dimitrios Liakos       : Extrapolation schemes; Compound Job, initial MDCI parallelization
   Dimitrios Manganas     : Further ROCIS development; embedding schemes
   Dimitrios Pantazis     : SARC Basis sets
   Anastasios Papadopoulos: AUTO-CI, single reference methods and gradients
   Taras Petrenko         : DFT Hessian,TD-DFT gradient, ASA, ECA, R-Raman, ABS, FL, XAS/XES, NRVS
   Peter Pinski           : DLPNO-MP2, DLPNO-MP2 Gradient
   Christoph Reimann      : Effective Core Potentials
   Marius Retegan         : Local ZFS, SOC
   Christoph Riplinger    : Optimizer, TS searches, QM/MM, DLPNO-CCSD(T), (RO)-DLPNO pert. Triples
   Tobias Risthaus        : Range-separated hybrids, TD-DFT gradient, RPA, STAB
   Michael Roemelt        : Original ROCIS implementation
   Masaaki Saitow         : Open-shell DLPNO-CCSD energy and density
   Barbara Sandhoefer     : DKH picture change effects
   Avijit Sen             : IP-ROCIS
   Kantharuban Sivalingam : CASSCF convergence, NEVPT2, FIC-MRCI
   Bernardo de Souza      : ESD, SOC TD-DFT
   Georgi Stoychev        : AutoAux, RI-MP2 NMR
   Willem Van den Heuvel  : Paramagnetic NMR
   Boris Wezisla          : Elementary symmetry handling
   Frank Wennmohs         : Technical directorship


 We gratefully acknowledge several colleagues who have allowed us to
 interface, adapt or use parts of their codes:
   Stefan Grimme, W. Hujo, H. Kruse, P. Pracht,  : VdW corrections, initial TS optimization,
                  C. Bannwarth, S. Ehlert          DFT functionals, gCP, sTDA/sTD-DF
   Ed Valeev, F. Pavosevic, A. Kumar             : LibInt (2-el integral package), F12 methods
   Garnet Chan, S. Sharma, J. Yang, R. Olivares  : DMRG
   Ulf Ekstrom                                   : XCFun DFT Library
   Mihaly Kallay                                 : mrcc  (arbitrary order and MRCC methods)
   Jiri Pittner, Ondrej Demel                    : Mk-CCSD
   Frank Weinhold                                : gennbo (NPA and NBO analysis)
   Christopher J. Cramer and Donald G. Truhlar   : smd solvation model
   Lars Goerigk                                  : TD-DFT with DH, B97 family of functionals
   V. Asgeirsson, H. Jonsson                     : NEB implementation
   FAccTs GmbH                                   : IRC, NEB, NEB-TS, DLPNO-Multilevel, CI-OPT
                                                   MM, QMMM, 2- and 3-layer-ONIOM, Crystal-QMMM,
                                                   LR-CPCM, SF, NACMEs, symmetry and pop. for TD-DFT,
                                                   nearIR, NL-DFT gradient (VV10), updates on ESD,
                                                   ML-optimized integration grids
   S Lehtola, MJT Oliveira, MAL Marques          : LibXC Library
   Liviu Ungur et al                             : ANISO software


 Your calculation uses the libint2 library for the computation of 2-el integrals
 For citations please refer to: http://libint.valeyev.net

 Your ORCA version has been built with support for libXC version: 5.1.0
 For citations please refer to: https://tddft.org/programs/libxc/

 This ORCA versions uses:
   CBLAS   interface :  Fast vector & matrix operations
   LAPACKE interface :  Fast linear algebra routines
   SCALAPACK package :  Parallel linear algebra routines
   Shared memory     :  Shared parallel matrices
   BLAS/LAPACK       :  OpenBLAS 0.3.15  USE64BITINT DYNAMIC_ARCH NO_AFFINITY Haswell SINGLE_THREADED
        Core in use  :  Haswell
   Copyright (c) 2011-2014, The OpenBLAS Project




***************************************
The coordinates will be read from file: D4.xyz
***************************************


Your calculation utilizes the atom-pairwise dispersion correction
with the zero-damping scheme (D30)
Cite in your paper:
S.Grimme, J.Antony, S.Ehrlich and H.Krieg, J.Chem.Phys., 132, (2010), 154104 
   

XCFun DFT library Copyright 2009-2010 Ulf Ekstrom and contributors.
See http://admol.org/xcfun for more information.
This is free software; see the source code for copying conditions.
There is ABSOLUTELY NO WARRANTY; not even for MERCHANTABILITY or FITNESS FOR A PARTICULAR PURPOSE.
For details see the documentation.
Scientific users of this library should cite U. Ekstrom, L. Visscher, R. Bast, A. J. Thorvaldsen and K. Ruud;
J.Chem.Theor.Comp. 2010, DOI: 10.1021/ct100117s
XCFun Version 0.99 

================================================================================

----- Orbital basis set information -----
Your calculation utilizes the basis: def2-TZVP
   F. Weigend and R. Ahlrichs, Phys. Chem. Chem. Phys. 7, 3297 (2005).

----- AuxJ basis set information -----
Your calculation utilizes the auxiliary basis: def2/J
   F. Weigend, Phys. Chem. Chem. Phys. 8, 1057 (2006).

================================================================================
                                        WARNINGS
                       Please study these warnings very carefully!
================================================================================


WARNING: Minnesota functionals are quite sensitive to the integration grid.
         see SE Wheeler, KN Houk, JCTC 2010, 6, 395,
             N Mardirossian, M Head-Gordon, JCTC 2016, 12, 4303.
         DEFGRID3 seems to be a minimum grid for reliable results with these functionals!
  ===> : Please increase the integration grid!


INFO   : the flag for use of the SHARK integral package has been found!

================================================================================
                                       INPUT FILE
================================================================================
NAME = M062X_D4_wb97.com
|  1> !M062X D3Zero RIJCOSX def2-TZVP def2/J TightSCF xyzfile                                                                                         
|  2> 
|  3> *xyzfile 0 1 D4.xyz
|  4> 
|  5> %MaxCore 64000
|  6> 
|  7> %pal nprocs 18                                                                                                                                                  
|  8> end  
|  9> 
| 10> %scf
| 11>   MaxIter 150
| 12> end
| 13> 
| 14> 
| 15>                          ****END OF INPUT****
================================================================================

                       ****************************
                       * Single Point Calculation *
                       ****************************

---------------------------------
CARTESIAN COORDINATES (ANGSTROEM)
---------------------------------
  C      4.602954   -2.440100    2.634780
  C     -0.914947    0.615112    2.505538
  C     -0.059146    1.503524    3.410578
  H      0.365364    2.344315    2.861161
  H     -0.692261    1.920207    4.198985
  C      1.083027    0.749640    4.085705
  C      3.860851   -1.591565    3.622893
  N      2.756502   -2.046159    4.166333
  C      4.254325   -0.362905    3.860455
  H      3.565256    0.310994    4.168983
  H      5.054292   -0.016059    3.337838
  H      2.439696   -2.973894    3.897395
  H      2.066869   -1.412532    4.549813
  O      2.228167    1.263475    4.019826
  F      0.810034   -0.345411    4.636269
  C      3.744685   -2.580557    1.361882
  C      0.772139    0.636882    0.562129
  C     -0.130740   -0.193985    1.470763
  H     -0.840563   -0.760165    0.856377
  H      0.466691   -0.938942    2.006959
  H     -1.647961    1.245963    1.991076
  H     -1.478180   -0.081046    3.130424
  C      3.203721   -1.256004    0.826211
  H      2.898939   -3.239289    1.583074
  H      4.334962   -3.095523    0.600188
  C      2.107815   -1.442385   -0.216865
  H      2.786775   -0.672760    1.650711
  H      4.021008   -0.652993    0.414046
  C      1.390662   -0.145912   -0.602422
  H      1.372179   -2.152184    0.176151
  H      2.523302   -1.906787   -1.117115
  H      1.561361    1.100094    1.161831
  H      0.195516    1.468325    0.142758
  H      0.602893   -0.398214   -1.319716
  H      2.087247    0.508272   -1.137335
  H      5.561557   -1.971347    2.407084
  H      4.810498   -3.422552    3.063099

----------------------------
CARTESIAN COORDINATES (A.U.)
----------------------------
  NO LB      ZA    FRAG     MASS         X           Y           Z
   0 C     6.0000    0    12.011    8.698322   -4.611120    4.979013
   1 C     6.0000    0    12.011   -1.729000    1.162394    4.734780
   2 C     6.0000    0    12.011   -0.111770    2.841249    6.445058
   3 H     1.0000    0     1.008    0.690439    4.430113    5.406811
   4 H     1.0000    0     1.008   -1.308184    3.628665    7.934932
   5 C     6.0000    0    12.011    2.046625    1.416613    7.720864
   6 C     6.0000    0    12.011    7.295951   -3.007623    6.846275
   7 N     7.0000    0    14.007    5.209033   -3.866681    7.873228
   8 C     6.0000    0    12.011    8.039509   -0.685791    7.295203
   9 H     1.0000    0     1.008    6.737357    0.587693    7.878236
  10 H     1.0000    0     1.008    9.551228   -0.030346    6.307599
  11 H     1.0000    0     1.008    4.610356   -5.619845    7.365010
  12 H     1.0000    0     1.008    3.905816   -2.669299    8.597900
  13 O     8.0000    0    15.999    4.210626    2.387622    7.596370
  14 F     9.0000    0    18.998    1.530743   -0.652732    8.761278
  15 C     6.0000    0    12.011    7.076429   -4.876545    2.573585
  16 C     6.0000    0    12.011    1.459131    1.203533    1.062270
  17 C     6.0000    0    12.011   -0.247062   -0.366578    2.779339
  18 H     1.0000    0     1.008   -1.588435   -1.436503    1.618317
  19 H     1.0000    0     1.008    0.881918   -1.774344    3.792602
  20 H     1.0000    0     1.008   -3.114194    2.354529    3.762589
  21 H     1.0000    0     1.008   -2.793356   -0.153155    5.915644
  22 C     6.0000    0    12.011    6.054155   -2.373503    1.561312
  23 H     1.0000    0     1.008    5.478202   -6.121369    2.991576
  24 H     1.0000    0     1.008    8.191891   -5.849691    1.134191
  25 C     6.0000    0    12.011    3.983193   -2.725713   -0.409815
  26 H     1.0000    0     1.008    5.266242   -1.271333    3.119391
  27 H     1.0000    0     1.008    7.598605   -1.233978    0.782434
  28 C     6.0000    0    12.011    2.627970   -0.275734   -1.138412
  29 H     1.0000    0     1.008    2.593043   -4.067039    0.332877
  30 H     1.0000    0     1.008    4.768351   -3.603306   -2.111041
  31 H     1.0000    0     1.008    2.950544    2.078876    2.195543
  32 H     1.0000    0     1.008    0.369472    2.774732    0.269774
  33 H     1.0000    0     1.008    1.139302   -0.752515   -2.493901
  34 H     1.0000    0     1.008    3.944325    0.960495   -2.149252
  35 H     1.0000    0     1.008   10.509819   -3.725306    4.548729
  36 H     1.0000    0     1.008    9.090524   -6.467686    5.788418

--------------------------------
INTERNAL COORDINATES (ANGSTROEM)
--------------------------------
 C      0   0   0     0.000000000000     0.00000000     0.00000000
 C      1   0   0     6.308586203432     0.00000000     0.00000000
 C      2   1   0     1.529957107993    77.28183059     0.00000000
 H      3   2   1     1.090411256774   111.55882853    97.86413420
 H      3   2   1     1.093638623089   108.89708857   215.91870349
 C      3   2   1     1.526007259671   113.17289755   335.54994809
 C      1   2   3     1.499030944607    46.08102107    32.22435449
 N      7   1   2     1.312086311450   119.57550804    69.68026511
 C      7   1   2     1.311816934860   120.06979092   255.12582827
 H      9   7   1     1.012000689182   118.33807127   152.74591339
 H      9   7   1     1.016552687460   117.54905062     1.38456693
 H      8   7   1     1.016555216927   117.96452659     0.26424067
 H      8   7   1     1.011994677785   120.90292470   202.77321427
 O      6   3   2     1.256866490428   117.17953923   130.97680566
 F      6   3   2     1.255699244565   117.52128403   312.46756963
 C      1   2   3     1.541629623907    62.62949466   209.82401956
 C      2   1   7     2.573629742126    56.37183241   136.26281467
 C     17   2   1     1.526808691257    32.68646011    60.03349628
 H     18  17   2     1.096302867074   109.29355526   122.31318015
 H     18  17   2     1.095166743970   109.81281793   238.24291461
 H      2   1   7     1.095423053861   150.90514655   137.54603026
 H      2   1   7     1.091948135609    97.50871692   284.68569777
 C     16   1   2     1.527752200286   114.05719293    47.35458413
 H     16   1   2     1.094595536307   108.55040841   286.13459305
 H     16   1   2     1.092609492451   108.52889090   171.42518318
 C     23  16   1     1.524386816897   112.85978214   193.54989873
 H     23  16   1     1.092618984700   109.47162788   313.73212395
 H     23  16   1     1.096111287972   110.16899423    69.84711356
 C     26  23  16     1.530949467148   113.92567496   170.54322561
 H     26  23  16     1.095187357748   108.45658234    49.04879098
 H     26  23  16     1.094874135111   109.97857956   293.58866087
 H     17   2   1     1.094110893791    93.58564518   298.96858035
 H     17   2   1     1.095290749861    87.15927614   193.54313289
 H     29  26  23     1.094872693905   107.87186420   182.29548401
 H     29  26  23     1.095134664272   109.32442771    67.48507798
 H      1   2   3     1.091097475703   123.78768244   307.63340442
 H      1   2   3     1.091670392935   127.60165869   114.33613372

---------------------------
INTERNAL COORDINATES (A.U.)
---------------------------
 C      0   0   0     0.000000000000     0.00000000     0.00000000
 C      1   0   0    11.921500216720     0.00000000     0.00000000
 C      2   1   0     2.891199930754    77.28183059     0.00000000
 H      3   2   1     2.060578648647   111.55882853    97.86413420
 H      3   2   1     2.066677487118   108.89708857   215.91870349
 C      3   2   1     2.883735799153   113.17289755   335.54994809
 C      1   2   3     2.832757951581    46.08102107    32.22435449
 N      7   1   2     2.479483792708   119.57550804    69.68026511
 C      7   1   2     2.478974744726   120.06979092   255.12582827
 H      9   7   1     1.912404149893   118.33807127   152.74591339
 H      9   7   1     1.921006180000   117.54905062     1.38456693
 H      8   7   1     1.921010960000   117.96452659     0.26424067
 H      8   7   1     1.912392789999   120.90292470   202.77321427
 O      6   3   2     2.375133453811   117.17953923   130.97680566
 F      6   3   2     2.372927678799   117.52128403   312.46756963
 C      1   2   3     2.913257789125    62.62949466   209.82401956
 C      2   1   7     4.863455382733    56.37183241   136.26281467
 C     17   2   1     2.885250285367    32.68646011    60.03349628
 H     18  17   2     2.071712178603   109.29355526   122.31318015
 H     18  17   2     2.069565217082   109.81281793   238.24291461
 H      2   1   7     2.070049572580   150.90514655   137.54603026
 H      2   1   7     2.063482928747    97.50871692   284.68569777
 C     16   1   2     2.887033259036   114.05719293    47.35458413
 H     16   1   2     2.068485791032   108.55040841   286.13459305
 H     16   1   2     2.064732712056   108.52889090   171.42518318
 C     23  16   1     2.880673606096   112.85978214   193.54989873
 H     23  16   1     2.064750649806   109.47162788   313.73212395
 H     23  16   1     2.071350146566   110.16899423    69.84711356
 C     26  23  16     2.893075217783   113.92567496   170.54322561
 H     26  23  16     2.069604171476   108.45658234    49.04879098
 H     26  23  16     2.069012266473   109.97857956   293.58866087
 H     17   2   1     2.067569949404    93.58564518   298.96858035
 H     17   2   1     2.069799554255    87.15927614   193.54313289
 H     29  26  23     2.069009542990   107.87186420   182.29548401
 H     29  26  23     2.069504595238   109.32442771    67.48507798
 H      1   2   3     2.061875414492   123.78768244   307.63340442
 H      1   2   3     2.062958071157   127.60165869   114.33613372

---------------------
BASIS SET INFORMATION
---------------------
There are 5 groups of distinct atoms

 Group   1 Type C   : 11s6p2d1f contracted to 5s3p2d1f pattern {62111/411/11/1}
 Group   2 Type H   : 5s1p contracted to 3s1p pattern {311/1}
 Group   3 Type N   : 11s6p2d1f contracted to 5s3p2d1f pattern {62111/411/11/1}
 Group   4 Type O   : 11s6p2d1f contracted to 5s3p2d1f pattern {62111/411/11/1}
 Group   5 Type F   : 11s6p2d1f contracted to 5s3p2d1f pattern {62111/411/11/1}

Atom   0C    basis set group =>   1
Atom   1C    basis set group =>   1
Atom   2C    basis set group =>   1
Atom   3H    basis set group =>   2
Atom   4H    basis set group =>   2
Atom   5C    basis set group =>   1
Atom   6C    basis set group =>   1
Atom   7N    basis set group =>   3
Atom   8C    basis set group =>   1
Atom   9H    basis set group =>   2
Atom  10H    basis set group =>   2
Atom  11H    basis set group =>   2
Atom  12H    basis set group =>   2
Atom  13O    basis set group =>   4
Atom  14F    basis set group =>   5
Atom  15C    basis set group =>   1
Atom  16C    basis set group =>   1
Atom  17C    basis set group =>   1
Atom  18H    basis set group =>   2
Atom  19H    basis set group =>   2
Atom  20H    basis set group =>   2
Atom  21H    basis set group =>   2
Atom  22C    basis set group =>   1
Atom  23H    basis set group =>   2
Atom  24H    basis set group =>   2
Atom  25C    basis set group =>   1
Atom  26H    basis set group =>   2
Atom  27H    basis set group =>   2
Atom  28C    basis set group =>   1
Atom  29H    basis set group =>   2
Atom  30H    basis set group =>   2
Atom  31H    basis set group =>   2
Atom  32H    basis set group =>   2
Atom  33H    basis set group =>   2
Atom  34H    basis set group =>   2
Atom  35H    basis set group =>   2
Atom  36H    basis set group =>   2
---------------------------------
AUXILIARY/J BASIS SET INFORMATION
---------------------------------
There are 5 groups of distinct atoms

 Group   1 Type C   : 12s5p4d2f1g contracted to 6s4p3d1f1g pattern {711111/2111/211/2/1}
 Group   2 Type H   : 5s2p1d contracted to 3s1p1d pattern {311/2/1}
 Group   3 Type N   : 12s5p4d2f1g contracted to 6s4p3d1f1g pattern {711111/2111/211/2/1}
 Group   4 Type O   : 12s5p4d2f1g contracted to 6s4p3d1f1g pattern {711111/2111/211/2/1}
 Group   5 Type F   : 12s5p4d2f1g contracted to 6s4p3d1f1g pattern {711111/2111/211/2/1}

Atom   0C    basis set group =>   1
Atom   1C    basis set group =>   1
Atom   2C    basis set group =>   1
Atom   3H    basis set group =>   2
Atom   4H    basis set group =>   2
Atom   5C    basis set group =>   1
Atom   6C    basis set group =>   1
Atom   7N    basis set group =>   3
Atom   8C    basis set group =>   1
Atom   9H    basis set group =>   2
Atom  10H    basis set group =>   2
Atom  11H    basis set group =>   2
Atom  12H    basis set group =>   2
Atom  13O    basis set group =>   4
Atom  14F    basis set group =>   5
Atom  15C    basis set group =>   1
Atom  16C    basis set group =>   1
Atom  17C    basis set group =>   1
Atom  18H    basis set group =>   2
Atom  19H    basis set group =>   2
Atom  20H    basis set group =>   2
Atom  21H    basis set group =>   2
Atom  22C    basis set group =>   1
Atom  23H    basis set group =>   2
Atom  24H    basis set group =>   2
Atom  25C    basis set group =>   1
Atom  26H    basis set group =>   2
Atom  27H    basis set group =>   2
Atom  28C    basis set group =>   1
Atom  29H    basis set group =>   2
Atom  30H    basis set group =>   2
Atom  31H    basis set group =>   2
Atom  32H    basis set group =>   2
Atom  33H    basis set group =>   2
Atom  34H    basis set group =>   2
Atom  35H    basis set group =>   2
Atom  36H    basis set group =>   2


           ************************************************************
           *        Program running with 18 parallel MPI-processes    *
           *              working on a common directory               *
           ************************************************************
------------------------------------------------------------------------------
                           ORCA GTO INTEGRAL CALCULATION
                           -- RI-GTO INTEGRALS CHOSEN --
------------------------------------------------------------------------------
------------------------------------------------------------------------------
                   ___                                                        
                  /   \      - P O W E R E D   B Y -                         
                 /     \                                                     
                 |  |  |   _    _      __       _____    __    __             
                 |  |  |  | |  | |    /  \     |  _  \  |  |  /  |          
                  \  \/   | |  | |   /    \    | | | |  |  | /  /          
                 / \  \   | |__| |  /  /\  \   | |_| |  |  |/  /          
                |  |  |   |  __  | /  /__\  \  |    /   |      \           
                |  |  |   | |  | | |   __   |  |    \   |  |\   \          
                \     /   | |  | | |  |  |  |  | |\  \  |  | \   \       
                 \___/    |_|  |_| |__|  |__|  |_| \__\ |__|  \__/        
                                                                              
                      - O R C A' S   B I G   F R I E N D -                    
                                      &                                       
                       - I N T E G R A L  F E E D E R -                       
                                                                              
 v1 FN, 2020, v2 2021                                                         
------------------------------------------------------------------------------


Reading SHARK input file M062X_D4_wb97.SHARKINP.tmp ... ok
----------------------
SHARK INTEGRAL PACKAGE
----------------------

Number of atoms                             ...     37
Number of basis functions                   ...    597
Number of shells                            ...    253
Maximum angular momentum                    ...      3
Integral batch strategy                     ... SHARK/LIBINT Hybrid
RI-J (if used) integral strategy            ... SPLIT-RIJ (Revised 2003 algorithm where possible)
Printlevel                                  ...      1
Contraction scheme used                     ... SEGMENTED contraction
Coulomb Range Separation                    ... NOT USED
Exchange Range Separation                   ... NOT USED
Finite Nucleus Model                        ... NOT USED
Auxiliary Coulomb fitting basis             ... AVAILABLE
   # of basis functions in Aux-J            ...    977
   # of shells in Aux-J                     ...    335
   Maximum angular momentum in Aux-J        ...      4
Auxiliary J/K fitting basis                 ... NOT available
Auxiliary Correlation fitting basis         ... NOT available
Auxiliary 'external' fitting basis          ... NOT available
Integral threshold                          ...     2.500000e-11
Primitive cut-off                           ...     2.500000e-12
Primitive pair pre-selection threshold      ...     2.500000e-12

Calculating pre-screening integrals         ... done (  0.2 sec) Dimension = 253
Organizing shell pair data                  ... done (  0.2 sec)
Shell pair information
Total number of shell pairs                 ...     32131
Shell pairs after pre-screening             ...     26412
Total number of primitive shell pairs       ...     93924
Primitive shell pairs kept                  ...     53661
          la=0 lb=0:   8087 shell pairs
          la=1 lb=0:   7872 shell pairs
          la=1 lb=1:   1959 shell pairs
          la=2 lb=0:   3460 shell pairs
          la=2 lb=1:   1719 shell pairs
          la=2 lb=2:    398 shell pairs
          la=3 lb=0:   1642 shell pairs
          la=3 lb=1:    814 shell pairs
          la=3 lb=2:    363 shell pairs
          la=3 lb=3:     98 shell pairs

Calculating one electron integrals          ... done (  0.0 sec)
Calculating RI/J V-Matrix + Cholesky decomp.... done (  0.1 sec)
Calculating Nuclear repulsion               ... done (  0.0 sec) ENN=   1120.808869090032 Eh

SHARK setup successfully completed in   0.8 seconds

Maximum memory used throughout the entire GTOINT-calculation: 39.3 MB


           ************************************************************
           *        Program running with 18 parallel MPI-processes    *
           *              working on a common directory               *
           ************************************************************
-------------------------------------------------------------------------------
                                 ORCA SCF
-------------------------------------------------------------------------------

------------
SCF SETTINGS
------------
Hamiltonian:
 Density Functional     Method          .... DFT(GTOs)
 Exchange Functional    Exchange        .... M062X
 Correlation Functional Correlation     .... M062X
 Gradients option       PostSCFGGA      .... off
 Hybrid DFT is turned on
   Fraction HF Exchange ScalHFX         ....  0.540000
   Scaling of DF-GGA-X  ScalDFX         ....  0.460000
   Scaling of DF-GGA-C  ScalDFC         ....  1.000000
   Scaling of DF-LDA-C  ScalLDAC        ....  1.000000
   Perturbative correction              ....  0.000000
   Density functional embedding theory  .... OFF
 RI-approximation to the Coulomb term is turned on
   Number of AuxJ basis functions       .... 977
   RIJ-COSX (HFX calculated with COS-X)).... on


General Settings:
 Integral files         IntName         .... M062X_D4_wb97
 Hartree-Fock type      HFTyp           .... RHF
 Total Charge           Charge          ....    0
 Multiplicity           Mult            ....    1
 Number of Electrons    NEL             ....  118
 Basis Dimension        Dim             ....  597
 Nuclear Repulsion      ENuc            ....   1120.8088690900 Eh

Convergence Acceleration:
 DIIS                   CNVDIIS         .... on
   Start iteration      DIISMaxIt       ....    12
   Startup error        DIISStart       ....  0.200000
   # of expansion vecs  DIISMaxEq       ....     5
   Bias factor          DIISBfac        ....   1.050
   Max. coefficient     DIISMaxC        ....  10.000
 Trust-Rad. Augm. Hess. CNVTRAH         .... auto
   Auto Start mean grad. ratio tolernc. ....  1.125000
   Auto Start start iteration           ....    20
   Auto Start num. interpolation iter.  ....    10
   Max. Number of Micro iterations      ....    16
   Max. Number of Macro iterations      .... Maxiter - #DIIS iter
   Number of Davidson start vectors     ....     2
   Converg. threshold I  (grad. norm)   ....   1.000e-05
   Converg. threshold II (energy diff.) ....   1.000e-08
   Grad. Scal. Fac. for Micro threshold ....   0.100
   Minimum threshold for Micro iter.    ....   0.010
   NR start threshold (gradient norm)   ....   0.001
   Initial trust radius                 ....   0.400
   Minimum AH scaling param. (alpha)    ....   1.000
   Maximum AH scaling param. (alpha)    .... 1000.000
   Orbital update algorithm             .... Taylor
   White noise on init. David. guess    .... on
   Maximum white noise                  ....   0.010
   Quad. conv. algorithm                .... NR
 SOSCF                  CNVSOSCF        .... on
   Start iteration      SOSCFMaxIt      ....   150
   Startup grad/error   SOSCFStart      ....  0.003300
 Level Shifting         CNVShift        .... on
   Level shift para.    LevelShift      ....    0.2500
   Turn off err/grad.   ShiftErr        ....    0.0010
 Zerner damping         CNVZerner       .... off
 Static damping         CNVDamp         .... on
   Fraction old density DampFac         ....    0.7000
   Max. Damping (<1)    DampMax         ....    0.9800
   Min. Damping (>=0)   DampMin         ....    0.0000
   Turn off err/grad.   DampErr         ....    0.1000
 Fernandez-Rico         CNVRico         .... off

SCF Procedure:
 Maximum # iterations   MaxIter         ....   150
 SCF integral mode      SCFMode         .... Direct
   Integral package                     .... SHARK and LIBINT hybrid scheme
 Reset frequency        DirectResetFreq ....    20
 Integral Threshold     Thresh          ....  2.500e-11 Eh
 Primitive CutOff       TCut            ....  2.500e-12 Eh

Convergence Tolerance:
 Convergence Check Mode ConvCheckMode   .... Total+1el-Energy
 Convergence forced     ConvForced      .... 0
 Energy Change          TolE            ....  1.000e-08 Eh
 1-El. energy change                    ....  1.000e-05 Eh
 Orbital Gradient       TolG            ....  1.000e-05
 Orbital Rotation angle TolX            ....  1.000e-05
 DIIS Error             TolErr          ....  5.000e-07


Diagonalization of the overlap matrix:
Smallest eigenvalue                        ... 6.231e-05
Time for diagonalization                   ...    0.090 sec
Threshold for overlap eigenvalues          ... 1.000e-08
Number of eigenvalues below threshold      ... 0
Time for construction of square roots      ...    0.284 sec
Total time needed                          ...    0.378 sec

Time for model grid setup =    0.190 sec

------------------------------
INITIAL GUESS: MODEL POTENTIAL
------------------------------
Loading Hartree-Fock densities                     ... done
Calculating cut-offs                               ... done
Initializing the effective Hamiltonian             ... done
Setting up the integral package (SHARK)            ... done
Starting the Coulomb interaction                   ... done (   0.2 sec)
Reading the grid                                   ... done
Mapping shells                                     ... done
Starting the XC term evaluation                    ... done (   0.1 sec)
  promolecular density results
     # of electrons  =    117.986854407
     EX              =    -92.695254280
     EC              =     -3.944870263
     EX+EC           =    -96.640124543
Transforming the Hamiltonian                       ... done (   0.0 sec)
Diagonalizing the Hamiltonian                      ... done (   0.1 sec)
Back transforming the eigenvectors                 ... done (   0.0 sec)
Now organizing SCF variables                       ... done
                      ------------------
                      INITIAL GUESS DONE (   0.7 sec)
                      ------------------
-------------------
DFT GRID GENERATION
-------------------

General Integration Accuracy     IntAcc      ... 4.388
Radial Grid Type                 RadialGrid  ... OptM3 with GC (2021)
Angular Grid (max. ang.)         AngularGrid ... 4 (Lebedev-302)
Angular grid pruning method      GridPruning ... 4 (adaptive)
Weight generation scheme         WeightScheme... Becke
Basis function cutoff            BFCut       ... 1.0000e-11
Integration weight cutoff        WCut        ... 1.0000e-14
Angular grids for H and He will be reduced by one unit
Partially contracted basis set               ... off
Rotationally invariant grid construction     ... off

Total number of grid points                  ...   158901
Total number of batches                      ...     2503
Average number of points per batch           ...       63
Average number of grid points per atom       ...     4295
Time for grid setup =    0.933 sec

--------------------
COSX GRID GENERATION
--------------------

GRIDX 1
-------
General Integration Accuracy     IntAcc      ... 3.816
Radial Grid Type                 RadialGrid  ... OptM3 with GC (2021)
Angular Grid (max. ang.)         AngularGrid ... 1 (Lebedev-50)
Angular grid pruning method      GridPruning ... 4 (adaptive)
Weight generation scheme         WeightScheme... Becke
Basis function cutoff            BFCut       ... 1.0000e-11
Integration weight cutoff        WCut        ... 1.0000e-14
Angular grids for H and He will be reduced by one unit
Partially contracted basis set               ... on
Rotationally invariant grid construction     ... off

Total number of grid points                  ...    20204
Total number of batches                      ...      339
Average number of points per batch           ...       59
Average number of grid points per atom       ...      546
UseSFitting                                  ... on

GRIDX 2
-------
General Integration Accuracy     IntAcc      ... 4.020
Radial Grid Type                 RadialGrid  ... OptM3 with GC (2021)
Angular Grid (max. ang.)         AngularGrid ... 2 (Lebedev-110)
Angular grid pruning method      GridPruning ... 4 (adaptive)
Weight generation scheme         WeightScheme... Becke
Basis function cutoff            BFCut       ... 1.0000e-11
Integration weight cutoff        WCut        ... 1.0000e-14
Angular grids for H and He will be reduced by one unit
Partially contracted basis set               ... on
Rotationally invariant grid construction     ... off

Total number of grid points                  ...    42262
Total number of batches                      ...      681
Average number of points per batch           ...       62
Average number of grid points per atom       ...     1142
UseSFitting                                  ... on

GRIDX 3
-------
General Integration Accuracy     IntAcc      ... 4.338
Radial Grid Type                 RadialGrid  ... OptM3 with GC (2021)
Angular Grid (max. ang.)         AngularGrid ... 3 (Lebedev-194)
Angular grid pruning method      GridPruning ... 4 (adaptive)
Weight generation scheme         WeightScheme... Becke
Basis function cutoff            BFCut       ... 1.0000e-11
Integration weight cutoff        WCut        ... 1.0000e-14
Angular grids for H and He will be reduced by one unit
Partially contracted basis set               ... on
Rotationally invariant grid construction     ... off

Total number of grid points                  ...    91928
Total number of batches                      ...     1458
Average number of points per batch           ...       63
Average number of grid points per atom       ...     2485
UseSFitting                                  ... on

Time for X-Grid setup             =    1.045 sec

--------------
SCF ITERATIONS
--------------
ITER       Energy         Delta-E        Max-DP      RMS-DP      [F,P]     Damp
               ***  Starting incremental Fock matrix formation  ***
  0   -699.5972423956   0.000000000000 0.06309373  0.00098203  0.2921278 0.7000
  1   -699.8774542894  -0.280211893816 0.05230012  0.00076648  0.1355831 0.7000
                               ***Turning on DIIS***
  2   -700.0033104647  -0.125856175324 0.10528744  0.00148908  0.0634938 0.0000
  3   -700.1978278457  -0.194517381012 0.03530993  0.00051893  0.0662077 0.0000
  4   -700.2375446813  -0.039716835593 0.00958994  0.00015986  0.0178616 0.0000
  5   -700.2389528389  -0.001408157580 0.00417307  0.00006679  0.0131787 0.0000
                      *** Initiating the SOSCF procedure ***
                           *** Shutting down DIIS ***
                      *** Re-Reading the Fockian *** 
                      *** Removing any level shift *** 
ITER      Energy       Delta-E        Grad      Rot      Max-DP    RMS-DP
  6   -700.23924431  -0.0002914688  0.000334  0.000334  0.002845  0.000045
               *** Restarting incremental Fock matrix formation ***
  7   -700.23936421  -0.0001198974  0.000091  0.000377  0.000926  0.000018
  8   -700.23936506  -0.0000008586  0.000204  0.000304  0.000572  0.000005
  9   -700.23936735  -0.0000022903  0.000043  0.000083  0.000143  0.000002
 10   -700.23936733   0.0000000204  0.000073  0.000068  0.000069  0.000001
 11   -700.23936745  -0.0000001161  0.000006  0.000018  0.000025  0.000000
 12   -700.23936745  -0.0000000016  0.000006  0.000008  0.000009  0.000000
                  ***Gradient check signals convergence***
              ***Rediagonalizing the Fockian in SOSCF/NRSCF***

               *****************************************************
               *                     SUCCESS                       *
               *           SCF CONVERGED AFTER  13 CYCLES          *
               *****************************************************

Old exchange energy                            =    -51.396280927 Eh
New exchange energy                            =    -51.396399990 Eh
Exchange energy change after final integration =     -0.000119063 Eh
Total energy after final integration           =   -700.239486523 Eh
Final COS-X integration done in                =     8.071 sec

----------------
TOTAL SCF ENERGY
----------------

Total Energy       :         -700.23948652 Eh          -19054.48514 eV

Components:
Nuclear Repulsion  :         1120.80886909 Eh           30498.75985 eV
Electronic Energy  :        -1821.04835561 Eh          -49553.24499 eV
One Electron Energy:        -3177.26633236 Eh          -86457.81233 eV
Two Electron Energy:         1356.21797674 Eh           36904.56734 eV
Max COSX asymmetry :            0.00000475 Eh               0.00013 eV

Virial components:
Potential Energy   :        -1397.75026945 Eh          -38034.71848 eV
Kinetic Energy     :          697.51078292 Eh           18980.23334 eV
Virial Ratio       :            2.00391206


DFT components:
N(Alpha)           :       59.000217851531 electrons
N(Beta)            :       59.000217851531 electrons
N(Total)           :      118.000435703062 electrons
E(XC)              :      -47.937969683358 Eh       
DFET-embed. en.    :        0.000000000000 Eh       

---------------
SCF CONVERGENCE
---------------

  Last Energy change         ...   -8.1438e-09  Tolerance :   1.0000e-08
  Last MAX-Density change    ...    1.9984e-15  Tolerance :   1.0000e-07
  Last RMS-Density change    ...    1.5072e-17  Tolerance :   5.0000e-09
  Last Orbital Gradient      ...    7.1873e-07  Tolerance :   1.0000e-05
  Last Orbital Rotation      ...    2.1296e-06  Tolerance :   1.0000e-05

             **** THE GBW FILE WAS UPDATED (M062X_D4_wb97.gbw) ****
             **** DENSITY M062X_D4_wb97.scfp WAS UPDATED ****
             **** ENERGY FILE WAS UPDATED (M062X_D4_wb97.en.tmp) ****
             **** THE GBW FILE WAS UPDATED (M062X_D4_wb97.gbw) ****
             **** DENSITY M062X_D4_wb97.scfp WAS UPDATED ****
----------------
ORBITAL ENERGIES
----------------

  NO   OCC          E(Eh)            E(eV) 
   0   2.0000     -25.342561      -689.6061 
   1   2.0000     -19.648844      -534.6722 
   2   2.0000     -14.725746      -400.7079 
   3   2.0000     -10.737209      -292.1743 
   4   2.0000     -10.573914      -287.7308 
   5   2.0000     -10.557273      -287.2780 
   6   2.0000     -10.542920      -286.8874 
   7   2.0000     -10.533520      -286.6316 
   8   2.0000     -10.531165      -286.5676 
   9   2.0000     -10.529050      -286.5100 
  10   2.0000     -10.524166      -286.3771 
  11   2.0000     -10.523164      -286.3498 
  12   2.0000     -10.519835      -286.2593 
  13   2.0000     -10.515734      -286.1477 
  14   2.0000     -10.430141      -283.8186 
  15   2.0000      -1.495988       -40.7079 
  16   2.0000      -1.176709       -32.0199 
  17   2.0000      -1.024820       -27.8868 
  18   2.0000      -0.937120       -25.5003 
  19   2.0000      -0.906189       -24.6586 
  20   2.0000      -0.879089       -23.9212 
  21   2.0000      -0.840612       -22.8742 
  22   2.0000      -0.814738       -22.1702 
  23   2.0000      -0.789557       -21.4850 
  24   2.0000      -0.773710       -21.0537 
  25   2.0000      -0.735717       -20.0199 
  26   2.0000      -0.702792       -19.1239 
  27   2.0000      -0.680051       -18.5051 
  28   2.0000      -0.671827       -18.2813 
  29   2.0000      -0.664668       -18.0865 
  30   2.0000      -0.636063       -17.3082 
  31   2.0000      -0.624461       -16.9925 
  32   2.0000      -0.601876       -16.3779 
  33   2.0000      -0.576991       -15.7007 
  34   2.0000      -0.559250       -15.2180 
  35   2.0000      -0.554532       -15.0896 
  36   2.0000      -0.532450       -14.4887 
  37   2.0000      -0.518420       -14.1069 
  38   2.0000      -0.512486       -13.9454 
  39   2.0000      -0.505526       -13.7561 
  40   2.0000      -0.490095       -13.3362 
  41   2.0000      -0.484038       -13.1713 
  42   2.0000      -0.476047       -12.9539 
  43   2.0000      -0.457808       -12.4576 
  44   2.0000      -0.449177       -12.2227 
  45   2.0000      -0.440632       -11.9902 
  46   2.0000      -0.437489       -11.9047 
  47   2.0000      -0.427362       -11.6291 
  48   2.0000      -0.418973       -11.4008 
  49   2.0000      -0.411022       -11.1845 
  50   2.0000      -0.407212       -11.0808 
  51   2.0000      -0.393293       -10.7021 
  52   2.0000      -0.384704       -10.4683 
  53   2.0000      -0.382759       -10.4154 
  54   2.0000      -0.371479       -10.1085 
  55   2.0000      -0.369006       -10.0412 
  56   2.0000      -0.359892        -9.7932 
  57   2.0000      -0.337617        -9.1870 
  58   2.0000      -0.223502        -6.0818 
  59   0.0000      -0.000221        -0.0060 
  60   0.0000       0.046949         1.2776 
  61   0.0000       0.062015         1.6875 
  62   0.0000       0.074129         2.0172 
  63   0.0000       0.080764         2.1977 
  64   0.0000       0.087716         2.3869 
  65   0.0000       0.095408         2.5962 
  66   0.0000       0.104074         2.8320 
  67   0.0000       0.112988         3.0746 
  68   0.0000       0.116318         3.1652 
  69   0.0000       0.119916         3.2631 
  70   0.0000       0.135058         3.6751 
  71   0.0000       0.139270         3.7897 
  72   0.0000       0.140794         3.8312 
  73   0.0000       0.146645         3.9904 
  74   0.0000       0.151345         4.1183 
  75   0.0000       0.156928         4.2702 
  76   0.0000       0.162312         4.4167 
  77   0.0000       0.170244         4.6326 
  78   0.0000       0.174084         4.7371 
  79   0.0000       0.182387         4.9630 
  80   0.0000       0.183359         4.9895 
  81   0.0000       0.188882         5.1397 
  82   0.0000       0.197393         5.3713 
  83   0.0000       0.205007         5.5785 
  84   0.0000       0.208522         5.6742 
  85   0.0000       0.214509         5.8371 
  86   0.0000       0.218018         5.9326 
  87   0.0000       0.226713         6.1692 
  88   0.0000       0.228599         6.2205 
  89   0.0000       0.234651         6.3852 
  90   0.0000       0.239626         6.5206 
  91   0.0000       0.243663         6.6304 
  92   0.0000       0.256009         6.9664 
  93   0.0000       0.260632         7.0922 
  94   0.0000       0.266341         7.2475 
  95   0.0000       0.274689         7.4747 
  96   0.0000       0.279506         7.6057 
  97   0.0000       0.288858         7.8602 
  98   0.0000       0.291156         7.9228 
  99   0.0000       0.304994         8.2993 
 100   0.0000       0.312194         8.4952 
 101   0.0000       0.316750         8.6192 
 102   0.0000       0.321513         8.7488 
 103   0.0000       0.323537         8.8039 
 104   0.0000       0.341419         9.2905 
 105   0.0000       0.350827         9.5465 
 106   0.0000       0.357716         9.7339 
 107   0.0000       0.359900         9.7934 
 108   0.0000       0.367194         9.9919 
 109   0.0000       0.376170        10.2361 
 110   0.0000       0.381534        10.3821 
 111   0.0000       0.394588        10.7373 
 112   0.0000       0.400120        10.8878 
 113   0.0000       0.405425        11.0322 
 114   0.0000       0.412645        11.2286 
 115   0.0000       0.416969        11.3463 
 116   0.0000       0.424021        11.5382 
 117   0.0000       0.426425        11.6036 
 118   0.0000       0.428979        11.6731 
 119   0.0000       0.436974        11.8907 
 120   0.0000       0.437606        11.9079 
 121   0.0000       0.442516        12.0415 
 122   0.0000       0.449559        12.2331 
 123   0.0000       0.452213        12.3053 
 124   0.0000       0.456198        12.4138 
 125   0.0000       0.459738        12.5101 
 126   0.0000       0.466694        12.6994 
 127   0.0000       0.469638        12.7795 
 128   0.0000       0.476548        12.9675 
 129   0.0000       0.478635        13.0243 
 130   0.0000       0.485381        13.2079 
 131   0.0000       0.486243        13.2313 
 132   0.0000       0.493530        13.4296 
 133   0.0000       0.495992        13.4966 
 134   0.0000       0.496906        13.5215 
 135   0.0000       0.504288        13.7224 
 136   0.0000       0.510778        13.8990 
 137   0.0000       0.512790        13.9537 
 138   0.0000       0.514932        14.0120 
 139   0.0000       0.518117        14.0987 
 140   0.0000       0.523650        14.2492 
 141   0.0000       0.525187        14.2911 
 142   0.0000       0.534334        14.5400 
 143   0.0000       0.543420        14.7872 
 144   0.0000       0.553744        15.0681 
 145   0.0000       0.556108        15.1325 
 146   0.0000       0.563791        15.3415 
 147   0.0000       0.569023        15.4839 
 148   0.0000       0.575136        15.6503 
 149   0.0000       0.581861        15.8332 
 150   0.0000       0.591802        16.1037 
 151   0.0000       0.597695        16.2641 
 152   0.0000       0.598804        16.2943 
 153   0.0000       0.611973        16.6526 
 154   0.0000       0.614935        16.7332 
 155   0.0000       0.627450        17.0738 
 156   0.0000       0.634075        17.2541 
 157   0.0000       0.637684        17.3523 
 158   0.0000       0.661234        17.9931 
 159   0.0000       0.666521        18.1370 
 160   0.0000       0.670856        18.2549 
 161   0.0000       0.682711        18.5775 
 162   0.0000       0.691558        18.8182 
 163   0.0000       0.707712        19.2578 
 164   0.0000       0.718347        19.5472 
 165   0.0000       0.726134        19.7591 
 166   0.0000       0.738076        20.0841 
 167   0.0000       0.749563        20.3966 
 168   0.0000       0.752424        20.4745 
 169   0.0000       0.770959        20.9788 
 170   0.0000       0.783297        21.3146 
 171   0.0000       0.790653        21.5148 
 172   0.0000       0.811773        22.0895 
 173   0.0000       0.818791        22.2804 
 174   0.0000       0.824305        22.4305 
 175   0.0000       0.837539        22.7906 
 176   0.0000       0.840746        22.8779 
 177   0.0000       0.844360        22.9762 
 178   0.0000       0.854127        23.2420 
 179   0.0000       0.865639        23.5552 
 180   0.0000       0.873634        23.7728 
 181   0.0000       0.879412        23.9300 
 182   0.0000       0.890551        24.2331 
 183   0.0000       0.896567        24.3968 
 184   0.0000       0.905708        24.6456 
 185   0.0000       0.917518        24.9669 
 186   0.0000       0.919298        25.0154 
 187   0.0000       0.928419        25.2636 
 188   0.0000       0.943642        25.6778 
 189   0.0000       0.955511        26.0008 
 190   0.0000       0.967462        26.3260 
 191   0.0000       0.976200        26.5638 
 192   0.0000       0.989445        26.9242 
 193   0.0000       1.004318        27.3289 
 194   0.0000       1.015215        27.6254 
 195   0.0000       1.025487        27.9049 
 196   0.0000       1.036869        28.2146 
 197   0.0000       1.037354        28.2278 
 198   0.0000       1.041697        28.3460 
 199   0.0000       1.060330        28.8531 
 200   0.0000       1.064688        28.9716 
 201   0.0000       1.066567        29.0228 
 202   0.0000       1.090060        29.6620 
 203   0.0000       1.100029        29.9333 
 204   0.0000       1.110618        30.2215 
 205   0.0000       1.120852        30.4999 
 206   0.0000       1.129129        30.7252 
 207   0.0000       1.136720        30.9317 
 208   0.0000       1.147665        31.2296 
 209   0.0000       1.164348        31.6835 
 210   0.0000       1.167437        31.7676 
 211   0.0000       1.169160        31.8145 
 212   0.0000       1.185742        32.2657 
 213   0.0000       1.188727        32.3469 
 214   0.0000       1.197908        32.5967 
 215   0.0000       1.218560        33.1587 
 216   0.0000       1.229559        33.4580 
 217   0.0000       1.237695        33.6794 
 218   0.0000       1.238663        33.7057 
 219   0.0000       1.257455        34.2171 
 220   0.0000       1.263125        34.3714 
 221   0.0000       1.264424        34.4067 
 222   0.0000       1.275328        34.7034 
 223   0.0000       1.294150        35.2156 
 224   0.0000       1.297217        35.2991 
 225   0.0000       1.305421        35.5223 
 226   0.0000       1.308657        35.6104 
 227   0.0000       1.321272        35.9536 
 228   0.0000       1.336647        36.3720 
 229   0.0000       1.348270        36.6883 
 230   0.0000       1.356210        36.9044 
 231   0.0000       1.364809        37.1383 
 232   0.0000       1.376263        37.4500 
 233   0.0000       1.394371        37.9428 
 234   0.0000       1.411686        38.4139 
 235   0.0000       1.419987        38.6398 
 236   0.0000       1.427190        38.8358 
 237   0.0000       1.443831        39.2886 
 238   0.0000       1.450194        39.4618 
 239   0.0000       1.470648        40.0184 
 240   0.0000       1.500391        40.8277 
 241   0.0000       1.515559        41.2405 
 242   0.0000       1.540422        41.9170 
 243   0.0000       1.551931        42.2302 
 244   0.0000       1.568867        42.6911 
 245   0.0000       1.579040        42.9679 
 246   0.0000       1.581685        43.0398 
 247   0.0000       1.595955        43.4281 
 248   0.0000       1.598362        43.4936 
 249   0.0000       1.606999        43.7287 
 250   0.0000       1.618363        44.0379 
 251   0.0000       1.627777        44.2941 
 252   0.0000       1.629914        44.3522 
 253   0.0000       1.637887        44.5692 
 254   0.0000       1.643480        44.7214 
 255   0.0000       1.648884        44.8684 
 256   0.0000       1.664405        45.2908 
 257   0.0000       1.671587        45.4862 
 258   0.0000       1.674456        45.5643 
 259   0.0000       1.677642        45.6509 
 260   0.0000       1.683302        45.8050 
 261   0.0000       1.691097        46.0171 
 262   0.0000       1.694651        46.1138 
 263   0.0000       1.702591        46.3298 
 264   0.0000       1.723223        46.8913 
 265   0.0000       1.731211        47.1086 
 266   0.0000       1.735765        47.2326 
 267   0.0000       1.753308        47.7099 
 268   0.0000       1.753921        47.7266 
 269   0.0000       1.771358        48.2011 
 270   0.0000       1.781735        48.4835 
 271   0.0000       1.794863        48.8407 
 272   0.0000       1.805524        49.1308 
 273   0.0000       1.809534        49.2399 
 274   0.0000       1.816092        49.4184 
 275   0.0000       1.827380        49.7255 
 276   0.0000       1.833264        49.8857 
 277   0.0000       1.841634        50.1134 
 278   0.0000       1.861605        50.6568 
 279   0.0000       1.871247        50.9192 
 280   0.0000       1.880903        51.1820 
 281   0.0000       1.885394        51.3042 
 282   0.0000       1.891158        51.4610 
 283   0.0000       1.912141        52.0320 
 284   0.0000       1.914691        52.1014 
 285   0.0000       1.924861        52.3781 
 286   0.0000       1.935034        52.6550 
 287   0.0000       1.947388        52.9911 
 288   0.0000       1.952032        53.1175 
 289   0.0000       1.959623        53.3241 
 290   0.0000       1.968523        53.5662 
 291   0.0000       1.980229        53.8848 
 292   0.0000       1.988623        54.1132 
 293   0.0000       2.007827        54.6358 
 294   0.0000       2.009984        54.6944 
 295   0.0000       2.020060        54.9686 
 296   0.0000       2.022546        55.0363 
 297   0.0000       2.034072        55.3499 
 298   0.0000       2.053321        55.8737 
 299   0.0000       2.070171        56.3322 
 300   0.0000       2.076762        56.5116 
 301   0.0000       2.088600        56.8337 
 302   0.0000       2.102620        57.2152 
 303   0.0000       2.111894        57.4676 
 304   0.0000       2.118892        57.6580 
 305   0.0000       2.125939        57.8497 
 306   0.0000       2.133982        58.0686 
 307   0.0000       2.144558        58.3564 
 308   0.0000       2.156984        58.6945 
 309   0.0000       2.166064        58.9416 
 310   0.0000       2.196695        59.7751 
 311   0.0000       2.207968        60.0819 
 312   0.0000       2.211278        60.1719 
 313   0.0000       2.225255        60.5523 
 314   0.0000       2.236864        60.8682 
 315   0.0000       2.247124        61.1473 
 316   0.0000       2.276453        61.9454 
 317   0.0000       2.288747        62.2800 
 318   0.0000       2.294046        62.4242 
 319   0.0000       2.309042        62.8322 
 320   0.0000       2.325270        63.2738 
 321   0.0000       2.335425        63.5502 
 322   0.0000       2.341916        63.7268 
 323   0.0000       2.364369        64.3378 
 324   0.0000       2.369910        64.4885 
 325   0.0000       2.373403        64.5836 
 326   0.0000       2.383307        64.8531 
 327   0.0000       2.403308        65.3973 
 328   0.0000       2.418464        65.8098 
 329   0.0000       2.429909        66.1212 
 330   0.0000       2.434376        66.2427 
 331   0.0000       2.443268        66.4847 
 332   0.0000       2.453037        66.7505 
 333   0.0000       2.476701        67.3945 
 334   0.0000       2.476963        67.4016 
 335   0.0000       2.490788        67.7778 
 336   0.0000       2.492622        67.8277 
 337   0.0000       2.498265        67.9812 
 338   0.0000       2.513414        68.3935 
 339   0.0000       2.516290        68.4717 
 340   0.0000       2.525776        68.7299 
 341   0.0000       2.532924        68.9244 
 342   0.0000       2.559069        69.6358 
 343   0.0000       2.569947        69.9318 
 344   0.0000       2.572057        69.9892 
 345   0.0000       2.583617        70.3038 
 346   0.0000       2.586742        70.3888 
 347   0.0000       2.590389        70.4881 
 348   0.0000       2.596109        70.6437 
 349   0.0000       2.605275        70.8931 
 350   0.0000       2.614690        71.1493 
 351   0.0000       2.616144        71.1889 
 352   0.0000       2.619080        71.2688 
 353   0.0000       2.625417        71.4412 
 354   0.0000       2.630775        71.5870 
 355   0.0000       2.637749        71.7768 
 356   0.0000       2.644515        71.9609 
 357   0.0000       2.652931        72.1899 
 358   0.0000       2.655436        72.2581 
 359   0.0000       2.659935        72.3805 
 360   0.0000       2.666954        72.5715 
 361   0.0000       2.678036        72.8731 
 362   0.0000       2.679189        72.9044 
 363   0.0000       2.690146        73.2026 
 364   0.0000       2.696951        73.3878 
 365   0.0000       2.706981        73.6607 
 366   0.0000       2.711170        73.7747 
 367   0.0000       2.723086        74.0989 
 368   0.0000       2.728275        74.2401 
 369   0.0000       2.741583        74.6023 
 370   0.0000       2.748087        74.7793 
 371   0.0000       2.749807        74.8260 
 372   0.0000       2.758490        75.0623 
 373   0.0000       2.771501        75.4164 
 374   0.0000       2.775892        75.5359 
 375   0.0000       2.781718        75.6944 
 376   0.0000       2.790501        75.9334 
 377   0.0000       2.798446        76.1496 
 378   0.0000       2.803839        76.2963 
 379   0.0000       2.811024        76.4918 
 380   0.0000       2.818747        76.7020 
 381   0.0000       2.833325        77.0987 
 382   0.0000       2.841506        77.3213 
 383   0.0000       2.848596        77.5142 
 384   0.0000       2.854463        77.6739 
 385   0.0000       2.881494        78.4094 
 386   0.0000       2.898212        78.8644 
 387   0.0000       2.908466        79.1434 
 388   0.0000       2.926135        79.6242 
 389   0.0000       2.929340        79.7114 
 390   0.0000       2.949725        80.2661 
 391   0.0000       2.969624        80.8076 
 392   0.0000       2.975352        80.9634 
 393   0.0000       2.988095        81.3102 
 394   0.0000       2.997807        81.5745 
 395   0.0000       3.009385        81.8895 
 396   0.0000       3.015449        82.0545 
 397   0.0000       3.036106        82.6166 
 398   0.0000       3.057667        83.2033 
 399   0.0000       3.069084        83.5140 
 400   0.0000       3.076090        83.7047 
 401   0.0000       3.092898        84.1620 
 402   0.0000       3.098499        84.3144 
 403   0.0000       3.103566        84.4523 
 404   0.0000       3.117179        84.8227 
 405   0.0000       3.133124        85.2566 
 406   0.0000       3.153562        85.8128 
 407   0.0000       3.161455        86.0276 
 408   0.0000       3.163140        86.0734 
 409   0.0000       3.168753        86.2261 
 410   0.0000       3.172186        86.3196 
 411   0.0000       3.179331        86.5140 
 412   0.0000       3.192144        86.8627 
 413   0.0000       3.202596        87.1471 
 414   0.0000       3.209714        87.3408 
 415   0.0000       3.213769        87.4511 
 416   0.0000       3.225744        87.7769 
 417   0.0000       3.232764        87.9680 
 418   0.0000       3.243022        88.2471 
 419   0.0000       3.255076        88.5751 
 420   0.0000       3.258838        88.6775 
 421   0.0000       3.265474        88.8581 
 422   0.0000       3.267958        88.9257 
 423   0.0000       3.278771        89.2199 
 424   0.0000       3.284242        89.3688 
 425   0.0000       3.297201        89.7214 
 426   0.0000       3.301076        89.8269 
 427   0.0000       3.309322        90.0512 
 428   0.0000       3.315158        90.2100 
 429   0.0000       3.322292        90.4042 
 430   0.0000       3.333856        90.7188 
 431   0.0000       3.340554        90.9011 
 432   0.0000       3.350748        91.1785 
 433   0.0000       3.358510        91.3897 
 434   0.0000       3.365973        91.5928 
 435   0.0000       3.368927        91.6732 
 436   0.0000       3.378921        91.9451 
 437   0.0000       3.382765        92.0497 
 438   0.0000       3.387119        92.1682 
 439   0.0000       3.393692        92.3470 
 440   0.0000       3.398788        92.4857 
 441   0.0000       3.418478        93.0215 
 442   0.0000       3.425145        93.2029 
 443   0.0000       3.433641        93.4341 
 444   0.0000       3.438667        93.5709 
 445   0.0000       3.451631        93.9237 
 446   0.0000       3.458790        94.1185 
 447   0.0000       3.464972        94.2867 
 448   0.0000       3.476961        94.6129 
 449   0.0000       3.488708        94.9326 
 450   0.0000       3.496983        95.1577 
 451   0.0000       3.509457        95.4972 
 452   0.0000       3.513694        95.6125 
 453   0.0000       3.522565        95.8539 
 454   0.0000       3.538896        96.2982 
 455   0.0000       3.541854        96.3787 
 456   0.0000       3.545425        96.4759 
 457   0.0000       3.554085        96.7116 
 458   0.0000       3.560886        96.8966 
 459   0.0000       3.571687        97.1905 
 460   0.0000       3.596425        97.8637 
 461   0.0000       3.609033        98.2068 
 462   0.0000       3.619287        98.4858 
 463   0.0000       3.636849        98.9637 
 464   0.0000       3.638705        99.0142 
 465   0.0000       3.643550        99.1460 
 466   0.0000       3.646382        99.2231 
 467   0.0000       3.677818       100.0785 
 468   0.0000       3.683534       100.2340 
 469   0.0000       3.696308       100.5817 
 470   0.0000       3.700097       100.6848 
 471   0.0000       3.718777       101.1931 
 472   0.0000       3.736681       101.6803 
 473   0.0000       3.762046       102.3705 
 474   0.0000       3.780452       102.8713 
 475   0.0000       3.798534       103.3634 
 476   0.0000       3.814954       103.8102 
 477   0.0000       3.831697       104.2658 
 478   0.0000       3.839423       104.4760 
 479   0.0000       3.858490       104.9948 
 480   0.0000       3.870113       105.3111 
 481   0.0000       3.888442       105.8099 
 482   0.0000       3.894463       105.9737 
 483   0.0000       3.906286       106.2955 
 484   0.0000       3.920178       106.6735 
 485   0.0000       3.934252       107.0564 
 486   0.0000       3.943196       107.2998 
 487   0.0000       3.948252       107.4374 
 488   0.0000       3.975884       108.1893 
 489   0.0000       3.982859       108.3791 
 490   0.0000       3.992905       108.6525 
 491   0.0000       3.996703       108.7558 
 492   0.0000       4.006036       109.0098 
 493   0.0000       4.012421       109.1835 
 494   0.0000       4.030343       109.6712 
 495   0.0000       4.040097       109.9366 
 496   0.0000       4.045101       110.0728 
 497   0.0000       4.051921       110.2584 
 498   0.0000       4.077418       110.9522 
 499   0.0000       4.099014       111.5399 
 500   0.0000       4.115185       111.9799 
 501   0.0000       4.138621       112.6176 
 502   0.0000       4.147258       112.8526 
 503   0.0000       4.165881       113.3594 
 504   0.0000       4.189320       113.9972 
 505   0.0000       4.198685       114.2520 
 506   0.0000       4.206154       114.4553 
 507   0.0000       4.240826       115.3987 
 508   0.0000       4.256682       115.8302 
 509   0.0000       4.295044       116.8741 
 510   0.0000       4.307595       117.2156 
 511   0.0000       4.329363       117.8080 
 512   0.0000       4.339686       118.0889 
 513   0.0000       4.366980       118.8316 
 514   0.0000       4.380915       119.2108 
 515   0.0000       4.421285       120.3093 
 516   0.0000       4.428630       120.5091 
 517   0.0000       4.445601       120.9709 
 518   0.0000       4.460331       121.3718 
 519   0.0000       4.503081       122.5351 
 520   0.0000       4.521756       123.0432 
 521   0.0000       4.536787       123.4522 
 522   0.0000       4.540544       123.5545 
 523   0.0000       4.557383       124.0127 
 524   0.0000       4.582601       124.6989 
 525   0.0000       4.608203       125.3956 
 526   0.0000       4.614408       125.5644 
 527   0.0000       4.625266       125.8599 
 528   0.0000       4.630962       126.0149 
 529   0.0000       4.650240       126.5395 
 530   0.0000       4.673396       127.1696 
 531   0.0000       4.678087       127.2972 
 532   0.0000       4.695299       127.7656 
 533   0.0000       4.722258       128.4992 
 534   0.0000       4.738817       128.9498 
 535   0.0000       4.749917       129.2518 
 536   0.0000       4.761996       129.5805 
 537   0.0000       4.769546       129.7859 
 538   0.0000       4.795238       130.4851 
 539   0.0000       4.816986       131.0769 
 540   0.0000       4.840693       131.7220 
 541   0.0000       4.845924       131.8643 
 542   0.0000       4.888769       133.0302 
 543   0.0000       4.929932       134.1503 
 544   0.0000       4.933493       134.2472 
 545   0.0000       4.975633       135.3939 
 546   0.0000       5.006584       136.2361 
 547   0.0000       5.063701       137.7903 
 548   0.0000       5.075888       138.1219 
 549   0.0000       5.107898       138.9930 
 550   0.0000       5.129460       139.5797 
 551   0.0000       5.228384       142.2716 
 552   0.0000       5.252002       142.9142 
 553   0.0000       5.282059       143.7321 
 554   0.0000       5.306199       144.3890 
 555   0.0000       5.358162       145.8030 
 556   0.0000       5.383908       146.5036 
 557   0.0000       5.497323       149.5898 
 558   0.0000       5.522228       150.2675 
 559   0.0000       5.632223       153.2606 
 560   0.0000       5.735340       156.0665 
 561   0.0000       5.928035       161.3100 
 562   0.0000       6.022470       163.8798 
 563   0.0000       6.125112       166.6728 
 564   0.0000       6.192536       168.5075 
 565   0.0000       6.413666       174.5247 
 566   0.0000       6.550944       178.2602 
 567   0.0000       6.775260       184.3642 
 568   0.0000       6.828654       185.8171 
 569   0.0000       6.856090       186.5637 
 570   0.0000       6.886006       187.3778 
 571   0.0000       7.029475       191.2817 
 572   0.0000       7.088409       192.8854 
 573   0.0000       7.155742       194.7176 
 574   0.0000       7.313096       198.9995 
 575   0.0000       7.463253       203.0854 
 576   0.0000       7.791484       212.0171 
 577   0.0000       8.379234       228.0105 
 578   0.0000       8.467701       230.4178 
 579   0.0000       8.778586       238.8775 
 580   0.0000       8.969131       244.0625 
 581   0.0000       8.978554       244.3189 
 582   0.0000      22.534499       613.1949 
 583   0.0000      22.571493       614.2016 
 584   0.0000      22.588884       614.6748 
 585   0.0000      22.614082       615.3605 
 586   0.0000      22.639582       616.0544 
 587   0.0000      22.652989       616.4192 
 588   0.0000      22.688776       617.3930 
 589   0.0000      22.704156       617.8115 
 590   0.0000      22.727584       618.4490 
 591   0.0000      22.823157       621.0497 
 592   0.0000      23.338207       635.0649 
 593   0.0000      23.424404       637.4104 
 594   0.0000      32.348860       880.2572 
 595   0.0000      44.063916      1199.0401 
 596   0.0000      57.526865      1565.3856 

                    ********************************
                    * MULLIKEN POPULATION ANALYSIS *
                    ********************************

-----------------------
MULLIKEN ATOMIC CHARGES
-----------------------
   0 C :   -0.393590
   1 C :   -0.295789
   2 C :   -0.328179
   3 H :    0.193961
   4 H :    0.176047
   5 C :    0.409778
   6 C :    0.262786
   7 N :   -0.538115
   8 C :   -0.394115
   9 H :    0.127415
  10 H :    0.084522
  11 H :    0.236707
  12 H :    0.257251
  13 O :   -0.327246
  14 F :   -0.140584
  15 C :   -0.275844
  16 C :   -0.340624
  17 C :   -0.315761
  18 H :    0.162481
  19 H :    0.153267
  20 H :    0.159177
  21 H :    0.163063
  22 C :   -0.279121
  23 H :    0.142372
  24 H :    0.143106
  25 C :   -0.290148
  26 H :    0.123285
  27 H :    0.150290
  28 C :   -0.284657
  29 H :    0.153250
  30 H :    0.146108
  31 H :    0.195261
  32 H :    0.152646
  33 H :    0.147340
  34 H :    0.150187
  35 H :    0.157651
  36 H :    0.155822
Sum of atomic charges:   -0.0000000

--------------------------------
MULLIKEN REDUCED ORBITAL CHARGES
--------------------------------
  0 C s       :     3.350509  s :     3.350509
      pz      :     0.932797  p :     2.957382
      px      :     0.959591
      py      :     1.064994
      dz2     :     0.023544  d :     0.080927
      dxz     :     0.013084
      dyz     :     0.017331
      dx2y2   :     0.015039
      dxy     :     0.011930
      f0      :     0.000828  f :     0.004772
      f+1     :     0.000737
      f-1     :     0.000611
      f+2     :     0.000894
      f-2     :     0.000860
      f+3     :     0.000266
      f-3     :     0.000576
  1 C s       :     3.290594  s :     3.290594
      pz      :     0.960597  p :     2.912167
      px      :     0.945663
      py      :     1.005906
      dz2     :     0.014960  d :     0.088087
      dxz     :     0.018296
      dyz     :     0.021769
      dx2y2   :     0.010246
      dxy     :     0.022816
      f0      :     0.000539  f :     0.004941
      f+1     :     0.000622
      f-1     :     0.000756
      f+2     :     0.000935
      f-2     :     0.001146
      f+3     :     0.000510
      f-3     :     0.000434
  2 C s       :     3.285822  s :     3.285822
      pz      :     1.029291  p :     2.964004
      px      :     0.958722
      py      :     0.975991
      dz2     :     0.011804  d :     0.073669
      dxz     :     0.019447
      dyz     :     0.012640
      dx2y2   :     0.011966
      dxy     :     0.017811
      f0      :     0.000387  f :     0.004685
      f+1     :     0.000674
      f-1     :     0.000456
      f+2     :     0.000812
      f-2     :     0.001063
      f+3     :     0.000666
      f-3     :     0.000627
  3 H s       :     0.785969  s :     0.785969
      pz      :     0.005966  p :     0.020070
      px      :     0.004649
      py      :     0.009456
  4 H s       :     0.804170  s :     0.804170
      pz      :     0.007981  p :     0.019783
      px      :     0.006567
      py      :     0.005235
  5 C s       :     3.065122  s :     3.065122
      pz      :     0.735224  p :     2.209666
      px      :     0.815636
      py      :     0.658806
      dz2     :     0.026290  d :     0.288184
      dxz     :     0.063071
      dyz     :     0.037292
      dx2y2   :     0.076227
      dxy     :     0.085303
      f0      :     0.001950  f :     0.027250
      f+1     :     0.001568
      f-1     :     0.004615
      f+2     :     0.003553
      f-2     :     0.003858
      f+3     :     0.007404
      f-3     :     0.004302
  6 C s       :     3.066524  s :     3.066524
      pz      :     0.806762  p :     2.526560
      px      :     0.824654
      py      :     0.895144
      dz2     :     0.020766  d :     0.131808
      dxz     :     0.031680
      dyz     :     0.032065
      dx2y2   :     0.022914
      dxy     :     0.024383
      f0      :     0.001088  f :     0.012322
      f+1     :     0.002303
      f-1     :     0.001400
      f+2     :     0.002002
      f-2     :     0.001559
      f+3     :     0.002193
      f-3     :     0.001777
  7 N s       :     3.484151  s :     3.484151
      pz      :     1.596687  p :     4.020112
      px      :     1.230506
      py      :     1.192919
      dz2     :     0.005508  d :     0.030368
      dxz     :     0.006669
      dyz     :     0.004417
      dx2y2   :     0.006171
      dxy     :     0.007604
      f0      :     0.000593  f :     0.003484
      f+1     :     0.000703
      f-1     :     0.000252
      f+2     :     0.000511
      f-2     :     0.000612
      f+3     :     0.000472
      f-3     :     0.000342
  8 C s       :     3.302431  s :     3.302431
      pz      :     1.120036  p :     3.056017
      px      :     1.060442
      py      :     0.875539
      dz2     :     0.004349  d :     0.031141
      dxz     :     0.005140
      dyz     :     0.009374
      dx2y2   :     0.004736
      dxy     :     0.007542
      f0      :     0.000846  f :     0.004527
      f+1     :     0.000234
      f-1     :     0.000566
      f+2     :     0.000622
      f-2     :     0.000701
      f+3     :     0.000672
      f-3     :     0.000887
  9 H s       :     0.839082  s :     0.839082
      pz      :     0.006893  p :     0.033503
      px      :     0.014835
      py      :     0.011775
 10 H s       :     0.892657  s :     0.892657
      pz      :     0.008031  p :     0.022821
      px      :     0.009888
      py      :     0.004902
 11 H s       :     0.727809  s :     0.727809
      pz      :     0.011326  p :     0.035484
      px      :     0.007049
      py      :     0.017109
 12 H s       :     0.698240  s :     0.698240
      pz      :     0.013413  p :     0.044510
      px      :     0.017066
      py      :     0.014031
 13 O s       :     3.866056  s :     3.866056
      pz      :     1.478657  p :     4.428459
      px      :     1.356533
      py      :     1.593269
      dz2     :     0.003176  d :     0.030846
      dxz     :     0.007974
      dyz     :     0.001949
      dx2y2   :     0.007863
      dxy     :     0.009884
      f0      :     0.000211  f :     0.001885
      f+1     :     0.000227
      f-1     :     0.000068
      f+2     :     0.000168
      f-2     :     0.000208
      f+3     :     0.000471
      f-3     :     0.000533
 14 F s       :     3.921705  s :     3.921705
      pz      :     1.770470  p :     5.199585
      px      :     1.880226
      py      :     1.548889
      dz2     :     0.002609  d :     0.018355
      dxz     :     0.001360
      dyz     :     0.005395
      dx2y2   :     0.004729
      dxy     :     0.004262
      f0      :     0.000096  f :     0.000939
      f+1     :     0.000016
      f-1     :     0.000159
      f+2     :     0.000206
      f-2     :     0.000127
      f+3     :     0.000163
      f-3     :     0.000172
 15 C s       :     3.263978  s :     3.263978
      pz      :     0.986569  p :     2.921879
      px      :     1.026584
      py      :     0.908727
      dz2     :     0.014523  d :     0.085027
      dxz     :     0.014527
      dyz     :     0.022563
      dx2y2   :     0.008641
      dxy     :     0.024772
      f0      :     0.000711  f :     0.004960
      f+1     :     0.000663
      f-1     :     0.000825
      f+2     :     0.000592
      f-2     :     0.000975
      f+3     :     0.000457
      f-3     :     0.000737
 16 C s       :     3.282186  s :     3.282186
      pz      :     0.968413  p :     2.966006
      px      :     1.023643
      py      :     0.973950
      dz2     :     0.015250  d :     0.087454
      dxz     :     0.021652
      dyz     :     0.020019
      dx2y2   :     0.010744
      dxy     :     0.019790
      f0      :     0.000668  f :     0.004977
      f+1     :     0.000705
      f-1     :     0.000689
      f+2     :     0.000946
      f-2     :     0.001068
      f+3     :     0.000493
      f-3     :     0.000409
 17 C s       :     3.268840  s :     3.268840
      pz      :     0.987400  p :     2.953042
      px      :     1.010775
      py      :     0.954867
      dz2     :     0.014245  d :     0.088864
      dxz     :     0.019849
      dyz     :     0.020540
      dx2y2   :     0.010727
      dxy     :     0.023503
      f0      :     0.000533  f :     0.005015
      f+1     :     0.000760
      f-1     :     0.000661
      f+2     :     0.000921
      f-2     :     0.001164
      f+3     :     0.000474
      f-3     :     0.000501
 18 H s       :     0.818476  s :     0.818476
      pz      :     0.006241  p :     0.019043
      px      :     0.006699
      py      :     0.006102
 19 H s       :     0.827495  s :     0.827495
      pz      :     0.005211  p :     0.019238
      px      :     0.006254
      py      :     0.007773
 20 H s       :     0.821596  s :     0.821596
      pz      :     0.005458  p :     0.019227
      px      :     0.007718
      py      :     0.006051
 21 H s       :     0.817708  s :     0.817708
      pz      :     0.006263  p :     0.019229
      px      :     0.006090
      py      :     0.006876
 22 C s       :     3.250711  s :     3.250711
      pz      :     0.998347  p :     2.937186
      px      :     1.001666
      py      :     0.937174
      dz2     :     0.014520  d :     0.086049
      dxz     :     0.012514
      dyz     :     0.022778
      dx2y2   :     0.011457
      dxy     :     0.024780
      f0      :     0.000621  f :     0.005176
      f+1     :     0.000719
      f-1     :     0.000700
      f+2     :     0.000656
      f-2     :     0.001122
      f+3     :     0.000504
      f-3     :     0.000855
 23 H s       :     0.838500  s :     0.838500
      pz      :     0.003991  p :     0.019128
      px      :     0.008361
      py      :     0.006776
 24 H s       :     0.837692  s :     0.837692
      pz      :     0.007780  p :     0.019201
      px      :     0.005863
      py      :     0.005559
 25 C s       :     3.272597  s :     3.272597
[...]
      pz      :     1.016540  p :     3.058634
      px      :     1.013199
      py      :     1.028895
      dz2     :     0.061368  d :     0.396698
      dxz     :     0.090032
      dyz     :     0.100408
      dx2y2   :     0.045555
      dxy     :     0.099334
      f0      :     0.006481  f :     0.038288
      f+1     :     0.004838
      f-1     :     0.005685
      f+2     :     0.006300
      f-2     :     0.005196
      f+3     :     0.004919
      f-3     :     0.004870
  2 C s       :     2.780332  s :     2.780332
      pz      :     1.019845  p :     3.056998
      px      :     1.013919
      py      :     1.023234
      dz2     :     0.044538  d :     0.354895
      dxz     :     0.092482
      dyz     :     0.074816
      dx2y2   :     0.059485
      dxy     :     0.083574
      f0      :     0.004474  f :     0.036500
      f+1     :     0.006171
      f-1     :     0.003680
      f+2     :     0.005208
      f-2     :     0.004962
      f+3     :     0.006162
      f-3     :     0.005842
  3 H s       :     0.781656  s :     0.781656
      pz      :     0.018433  p :     0.059220
      px      :     0.015147
      py      :     0.025641
  4 H s       :     0.783097  s :     0.783097
      pz      :     0.023636  p :     0.059561
      px      :     0.020138
      py      :     0.015787
  5 C s       :     2.773766  s :     2.773766
      pz      :     0.752588  p :     2.569837
      px      :     0.993568
      py      :     0.823682
      dz2     :     0.102885  d :     0.957653
      dxz     :     0.172037
      dyz     :     0.144863
      dx2y2   :     0.263379
      dxy     :     0.274489
      f0      :     0.013147  f :     0.178669
      f+1     :     0.011073
      f-1     :     0.023766
      f+2     :     0.027154
      f-2     :     0.022882
      f+3     :     0.048107
      f-3     :     0.032540
  6 C s       :     2.710011  s :     2.710011
      pz      :     0.877093  p :     2.856461
      px      :     0.914465
      py      :     1.064903
      dz2     :     0.096750  d :     0.732884
      dxz     :     0.131997
      dyz     :     0.159995
      dx2y2   :     0.175992
      dxy     :     0.168149
      f0      :     0.007889  f :     0.094412
      f+1     :     0.016087
      f-1     :     0.009794
      f+2     :     0.016337
      f-2     :     0.008444
      f+3     :     0.020652
      f-3     :     0.015210
  7 N s       :     2.960086  s :     2.960086
      pz      :     1.465990  p :     3.873763
      px      :     1.245207
      py      :     1.162567
      dz2     :     0.017340  d :     0.164266
      dxz     :     0.032825
      dyz     :     0.017239
      dx2y2   :     0.039508
      dxy     :     0.057354
      f0      :     0.001622  f :     0.012496
      f+1     :     0.002104
      f-1     :     0.000610
      f+2     :     0.002536
      f-2     :     0.001612
      f+3     :     0.002392
      f-3     :     0.001621
  8 C s       :     2.810224  s :     2.810224
      pz      :     1.069859  p :     3.192786
      px      :     1.043597
      py      :     1.079329
      dz2     :     0.017044  d :     0.236190
      dxz     :     0.021396
      dyz     :     0.052614
      dx2y2   :     0.054531
      dxy     :     0.090604
      f0      :     0.003767  f :     0.031480
      f+1     :     0.001123
      f-1     :     0.004047
      f+2     :     0.005324
      f-2     :     0.003410
      f+3     :     0.006488
      f-3     :     0.007321
  9 H s       :     0.791496  s :     0.791496
      pz      :     0.024253  p :     0.115728
      px      :     0.052255
      py      :     0.039220
 10 H s       :     0.823317  s :     0.823317
      pz      :     0.027608  p :     0.074519
      px      :     0.029737
      py      :     0.017174
 11 H s       :     0.724719  s :     0.724719
      pz      :     0.035016  p :     0.107143
      px      :     0.022291
      py      :     0.049837
 12 H s       :     0.707964  s :     0.707964
      pz      :     0.039243  p :     0.134982
      px      :     0.049986
      py      :     0.045753
 13 O s       :     3.432847  s :     3.432847
      pz      :     1.398096  p :     4.398022
      px      :     1.478068
      py      :     1.521857
      dz2     :     0.009646  d :     0.064372
      dxz     :     0.010789
      dyz     :     0.002719
      dx2y2   :     0.019399
      dxy     :     0.021819
      f0      :     0.000440  f :     0.005259
      f+1     :     0.000769
      f-1     :     0.000254
      f+2     :     0.000297
      f-2     :     0.000448
      f+3     :     0.001270
      f-3     :     0.001782
 14 F s       :     3.531651  s :     3.531651
      pz      :     1.712279  p :     5.099543
      px      :     1.776564
      py      :     1.610700
      dz2     :     0.004862  d :     0.038984
      dxz     :     0.002864
      dyz     :     0.011434
      dx2y2   :     0.009900
      dxy     :     0.009925
      f0      :     0.000180  f :     0.002084
      f+1     :     0.000045
      f-1     :     0.000311
      f+2     :     0.000418
      f-2     :     0.000314
      f+3     :     0.000419
      f-3     :     0.000396
 15 C s       :     2.775653  s :     2.775653
      pz      :     1.009646  p :     3.052736
      px      :     1.023803
      py      :     1.019288
      dz2     :     0.073126  d :     0.397482
      dxz     :     0.079540
      dyz     :     0.093443
      dx2y2   :     0.048173
      dxy     :     0.103200
      f0      :     0.005794  f :     0.038056
      f+1     :     0.004157
      f-1     :     0.007265
      f+2     :     0.005055
      f-2     :     0.005695
      f+3     :     0.003762
      f-3     :     0.006327
 16 C s       :     2.773250  s :     2.773250
      pz      :     1.020719  p :     3.067205
      px      :     1.023110
      py      :     1.023376
      dz2     :     0.069869  d :     0.396867
      dxz     :     0.098929
      dyz     :     0.090391
      dx2y2   :     0.048319
      dxy     :     0.089359
      f0      :     0.007254  f :     0.038282
      f+1     :     0.004693
      f-1     :     0.005695
      f+2     :     0.006885
      f-2     :     0.005044
      f+3     :     0.004641
      f-3     :     0.004070
 17 C s       :     2.772550  s :     2.772550
      pz      :     1.014729  p :     3.065228
      px      :     1.025327
      py      :     1.025172
      dz2     :     0.059954  d :     0.398851
      dxz     :     0.097230
      dyz     :     0.095731
      dx2y2   :     0.047944
      dxy     :     0.097993
      f0      :     0.006501  f :     0.038604
      f+1     :     0.005551
      f-1     :     0.005113
      f+2     :     0.006330
      f-2     :     0.005281
      f+3     :     0.004991
      f-3     :     0.004838
 18 H s       :     0.798621  s :     0.798621
      pz      :     0.018946  p :     0.057690
      px      :     0.020917
      py      :     0.017827
 19 H s       :     0.804624  s :     0.804624
      pz      :     0.017404  p :     0.059181
      px      :     0.019637
      py      :     0.022140
 20 H s       :     0.797159  s :     0.797159
      pz      :     0.017166  p :     0.057961
      px      :     0.021390
      py      :     0.019406
 21 H s       :     0.799414  s :     0.799414
      pz      :     0.019313  p :     0.058615
      px      :     0.017999
      py      :     0.021303
 22 C s       :     2.769335  s :     2.769335
      pz      :     1.019481  p :     3.061647
      px      :     1.018838
      py      :     1.023328
      dz2     :     0.062338  d :     0.395624
      dxz     :     0.078067
      dyz     :     0.094385
      dx2y2   :     0.060153
      dxy     :     0.100681
      f0      :     0.005211  f :     0.039326
      f+1     :     0.005128
      f-1     :     0.005957
      f+2     :     0.004427
      f-2     :     0.006544
      f+3     :     0.004690
      f-3     :     0.007370
 23 H s       :     0.810098  s :     0.810098
      pz      :     0.013961  p :     0.058076
      px      :     0.024738
      py      :     0.019377
 24 H s       :     0.805110  s :     0.805110
      pz      :     0.022471  p :     0.058449
      px      :     0.019014
      py      :     0.016964
 25 C s       :     2.774093  s :     2.774093
      pz      :     1.026326  p :     3.060731
      px      :     1.017342
      py      :     1.017062
      dz2     :     0.070938  d :     0.403039
      dxz     :     0.078530
      dyz     :     0.087325
      dx2y2   :     0.061015
      dxy     :     0.105230
      f0      :     0.004737  f :     0.038733
      f+1     :     0.005690
      f-1     :     0.005341
      f+2     :     0.004272
      f-2     :     0.006730
      f+3     :     0.004749
      f-3     :     0.007214
 26 H s       :     0.793558  s :     0.793558
      pz      :     0.027073  p :     0.061884
      px      :     0.015911
      py      :     0.018899
 27 H s       :     0.801697  s :     0.801697
      pz      :     0.015725  p :     0.057908
      px      :     0.023680
      py      :     0.018503
 28 C s       :     2.777269  s :     2.777269
      pz      :     1.011245  p :     3.059445
      px      :     1.021458
      py      :     1.026742
      dz2     :     0.052597  d :     0.396085
      dxz     :     0.099570
      dyz     :     0.091721
      dx2y2   :     0.061431
      dxy     :     0.090767
      f0      :     0.006150  f :     0.037742
      f+1     :     0.003520
      f-1     :     0.005664
      f+2     :     0.005773
      f-2     :     0.005358
      f+3     :     0.003994
      f-3     :     0.007282
 29 H s       :     0.806501  s :     0.806501
      pz      :     0.015642  p :     0.057910
      px      :     0.021566
      py      :     0.020702
 30 H s       :     0.805122  s :     0.805122
      pz      :     0.026051  p :     0.057813
      px      :     0.015714
      py      :     0.016048
 31 H s       :     0.798731  s :     0.798731
      pz      :     0.019115  p :     0.059630
      px      :     0.024312
      py      :     0.016202
 32 H s       :     0.802941  s :     0.802941
      pz      :     0.015782  p :     0.057828
      px      :     0.018339
      py      :     0.023706
 33 H s       :     0.804680  s :     0.804680
      pz      :     0.020782  p :     0.057667
      px      :     0.022946
      py      :     0.013939
 34 H s       :     0.802720  s :     0.802720
      pz      :     0.017005  p :     0.057789
      px      :     0.021124
      py      :     0.019659
 35 H s       :     0.793896  s :     0.793896
      pz      :     0.012784  p :     0.057342
      px      :     0.027966
      py      :     0.016592
 36 H s       :     0.804058  s :     0.804058
      pz      :     0.015881  p :     0.058534
      px      :     0.013448
      py      :     0.029204


                      *****************************
                      * MAYER POPULATION ANALYSIS *
                      *****************************

  NA   - Mulliken gross atomic population
  ZA   - Total nuclear charge
  QA   - Mulliken gross atomic charge
  VA   - Mayer's total valence
  BVA  - Mayer's bonded valence
  FA   - Mayer's free valence

  ATOM       NA         ZA         QA         VA         BVA        FA
  0 C      6.3936     6.0000    -0.3936     3.8383     3.8383     0.0000
  1 C      6.2958     6.0000    -0.2958     3.7182     3.7182    -0.0000
  2 C      6.3282     6.0000    -0.3282     3.7719     3.7719    -0.0000
  3 H      0.8060     1.0000     0.1940     0.9526     0.9526    -0.0000
  4 H      0.8240     1.0000     0.1760     0.9505     0.9505    -0.0000
  5 C      5.5902     6.0000     0.4098     4.0849     4.0849    -0.0000
  6 C      5.7372     6.0000     0.2628     3.6032     3.6032     0.0000
  7 N      7.5381     7.0000    -0.5381     2.9875     2.9875     0.0000
  8 C      6.3941     6.0000    -0.3941     3.8223     3.8223     0.0000
  9 H      0.8726     1.0000     0.1274     1.0273     1.0273    -0.0000
 10 H      0.9155     1.0000     0.0845     0.9854     0.9854     0.0000
 11 H      0.7633     1.0000     0.2367     0.9474     0.9474     0.0000
 12 H      0.7427     1.0000     0.2573     0.9658     0.9658    -0.0000
 13 O      8.3272     8.0000    -0.3272     2.0564     2.0564    -0.0000
 14 F      9.1406     9.0000    -0.1406     1.1231     1.1231     0.0000
 15 C      6.2758     6.0000    -0.2758     3.6636     3.6636    -0.0000
 16 C      6.3406     6.0000    -0.3406     3.6675     3.6675     0.0000
 17 C      6.3158     6.0000    -0.3158     3.6198     3.6198     0.0000
 18 H      0.8375     1.0000     0.1625     0.9600     0.9600     0.0000
 19 H      0.8467     1.0000     0.1533     0.9738     0.9738     0.0000
 20 H      0.8408     1.0000     0.1592     0.9561     0.9561     0.0000
 21 H      0.8369     1.0000     0.1631     0.9536     0.9536     0.0000
 22 C      6.2791     6.0000    -0.2791     3.6419     3.6419    -0.0000
 23 H      0.8576     1.0000     0.1424     0.9578     0.9578    -0.0000
 24 H      0.8569     1.0000     0.1431     0.9643     0.9643    -0.0000
 25 C      6.2901     6.0000    -0.2901     3.7134     3.7134    -0.0000
 26 H      0.8767     1.0000     0.1233     0.9468     0.9468    -0.0000
 27 H      0.8497     1.0000     0.1503     0.9644     0.9644    -0.0000
 28 C      6.2847     6.0000    -0.2847     3.7865     3.7865    -0.0000
 29 H      0.8467     1.0000     0.1533     0.9456     0.9456    -0.0000
 30 H      0.8539     1.0000     0.1461     0.9602     0.9602    -0.0000
 31 H      0.8047     1.0000     0.1953     0.9353     0.9353     0.0000
 32 H      0.8474     1.0000     0.1526     0.9569     0.9569     0.0000
 33 H      0.8527     1.0000     0.1473     0.9527     0.9527     0.0000
 34 H      0.8498     1.0000     0.1502     0.9554     0.9554    -0.0000
 35 H      0.8423     1.0000     0.1577     0.9584     0.9584     0.0000
 36 H      0.8442     1.0000     0.1558     0.9524     0.9524    -0.0000

  Mayer bond orders larger than 0.100000
B(  0-C ,  6-C ) :   0.9035 B(  0-C , 15-C ) :   0.8892 B(  0-C , 35-H ) :   0.9960 
B(  0-C , 36-H ) :   1.0006 B(  1-C ,  2-C ) :   0.8894 B(  1-C , 17-C ) :   0.9142 
B(  1-C , 20-H ) :   0.9768 B(  1-C , 21-H ) :   0.9889 B(  2-C ,  3-H ) :   0.9738 
B(  2-C ,  4-H ) :   0.9545 B(  2-C ,  5-C ) :   0.9760 B(  5-C , 13-O ) :   1.9891 
B(  5-C , 14-F ) :   1.0561 B(  6-C ,  7-N ) :   1.0559 B(  6-C ,  8-C ) :   1.7597 
B(  7-N , 11-H ) :   0.9361 B(  7-N , 12-H ) :   0.8970 B(  8-C ,  9-H ) :   0.9989 
B(  8-C , 10-H ) :   1.0092 B( 15-C , 22-C ) :   0.8827 B( 15-C , 23-H ) :   1.0012 
B( 15-C , 24-H ) :   0.9789 B( 16-C , 17-C ) :   0.8420 B( 16-C , 28-C ) :   0.9269 
B( 16-C , 31-H ) :   0.9718 B( 16-C , 32-H ) :   0.9794 B( 17-C , 18-H ) :   0.9786 
B( 17-C , 19-H ) :   0.9781 B( 22-C , 25-C ) :   0.8903 B( 22-C , 26-H ) :   0.9995 
B( 22-C , 27-H ) :   0.9710 B( 25-C , 28-C ) :   0.9203 B( 25-C , 29-H ) :   0.9908 
B( 25-C , 30-H ) :   0.9844 B( 28-C , 33-H ) :   0.9921 B( 28-C , 34-H ) :   0.9914 


-------
TIMINGS
-------

Total SCF time: 0 days 0 hours 1 min 8 sec 

Total time                  ....      68.294 sec
Sum of individual times     ....      66.910 sec  ( 98.0%)

Fock matrix formation       ....      61.884 sec  ( 90.6%)
  Split-RI-J                ....       6.063 sec  (  9.8% of F)
  Chain of spheres X        ....      44.117 sec  ( 71.3% of F)
  XC integration            ....      11.283 sec  ( 18.2% of F)
    Basis function eval.    ....       1.502 sec  ( 13.3% of XC)
    Density eval.           ....       4.136 sec  ( 36.7% of XC)
    XC-Functional eval.     ....       0.288 sec  (  2.5% of XC)
    XC-Potential eval.      ....       4.111 sec  ( 36.4% of XC)
Diagonalization             ....       0.937 sec  (  1.4%)
Density matrix formation    ....       0.071 sec  (  0.1%)
Population analysis         ....       0.110 sec  (  0.2%)
Initial guess               ....       0.471 sec  (  0.7%)
Orbital Transformation      ....       0.000 sec  (  0.0%)
Orbital Orthonormalization  ....       0.000 sec  (  0.0%)
DIIS solution               ....       0.519 sec  (  0.8%)
SOSCF solution              ....       0.749 sec  (  1.1%)
Grid generation             ....       2.168 sec  (  3.2%)

Maximum memory used throughout the entire SCF-calculation: 126.3 MB


-------------------------------------------------------------------------------
                          DFT DISPERSION CORRECTION                            
                                                                               
                              DFTD3 V3.1  Rev 1                                
                              USING zero damping                               
-------------------------------------------------------------------------------
The M062X functional is recognized
Active option DFTDOPT                   ...         3   

molecular C6(AA) [au] = 10416.013934 


            DFT-D V3
 parameters
 s6 scaling factor         :     1.0000 
 rs6 scaling factor        :     1.6190 
 s8 scaling factor         :     0.0000 
 rs8 scaling factor        :     1.0000 
 Damping factor alpha6     :    14.0000 
 Damping factor alpha8     :    16.0000 
 ad hoc parameters k1-k3   :    16.0000     1.3333    -4.0000 

 Edisp/kcal,au: -1.586784880913  -0.002528702398 
 E6   /kcal   :  -1.586784881 
 E8   /kcal   :  -0.000000000 
 % E8         :   0.000000000 

-------------------------   ----------------
Dispersion correction           -0.002528702
-------------------------   ----------------


-------------------------   --------------------
FINAL SINGLE POINT ENERGY      -700.242015225391
-------------------------   --------------------


                            ***************************************
                            *     ORCA property calculations      *
                            ***************************************

                                    ---------------------
                                    Active property flags
                                    ---------------------
   (+) Dipole Moment


------------------------------------------------------------------------------
                       ORCA ELECTRIC PROPERTIES CALCULATION
------------------------------------------------------------------------------

Dipole Moment Calculation                       ... on
Quadrupole Moment Calculation                   ... off
Polarizability Calculation                      ... off
GBWName                                         ... M062X_D4_wb97.gbw
Electron density file                           ... M062X_D4_wb97.scfp
The origin for moment calculation is the CENTER OF MASS  = ( 3.679950, -0.948703  4.670972)

-------------
DIPOLE MOMENT
-------------
                                X             Y             Z
Electronic contribution:     -2.26879       3.58582      16.19100
Nuclear contribution   :      0.32481      -3.64700     -16.75441
                        -----------------------------------------
Total Dipole Moment    :     -1.94398      -0.06118      -0.56341
                        -----------------------------------------
Magnitude (a.u.)       :      2.02491
Magnitude (Debye)      :      5.14690



--------------------
Rotational spectrum 
--------------------
 
Rotational constants in cm-1:     0.021629     0.017327     0.011372 
Rotational constants in MHz :   648.414821   519.443407   340.925013 

 Dipole components along the rotational axes: 
x,y,z [a.u.] :    -1.480184    -0.900432     1.048105 
x,y,z [Debye]:    -3.762328    -2.288717     2.664072 

 

Timings for individual modules:

Sum of individual times         ...       70.120 sec (=   1.169 min)
GTO integral calculation        ...        1.365 sec (=   0.023 min)   1.9 %
SCF iterations                  ...       68.755 sec (=   1.146 min)  98.1 %
                             ****ORCA TERMINATED NORMALLY****
TOTAL RUN TIME: 0 days 0 hours 1 minutes 10 seconds 886 msec
