
                                        *****************
                                        * O   R   C   A *
                                        *****************

                                            #,                                       
                                            ###                                      
                                            ####                                     
                                            #####                                    
                                            ######                                   
                                           ########,                                 
                                     ,,################,,,,,                         
                               ,,#################################,,                 
                          ,,##########################################,,             
                       ,#########################################, ''#####,          
                    ,#############################################,,   '####,        
                  ,##################################################,,,,####,       
                ,###########''''           ''''###############################       
              ,#####''   ,,,,##########,,,,          '''####'''          '####       
            ,##' ,,,,###########################,,,                        '##       
           ' ,,###''''                  '''############,,,                           
         ,,##''                                '''############,,,,        ,,,,,,###''
      ,#''                                            '''#######################'''  
     '                                                          ''''####''''         
             ,#######,   #######,   ,#######,      ##                                
            ,#'     '#,  ##    ##  ,#'     '#,    #''#        ######   ,####,        
            ##       ##  ##   ,#'  ##            #'  '#       #        #'  '#        
            ##       ##  #######   ##           ,######,      #####,   #    #        
            '#,     ,#'  ##    ##  '#,     ,#' ,#      #,         ##   #,  ,#        
             '#######'   ##     ##  '#######'  #'      '#     #####' # '####'        



                  #######################################################
                  #                        -***-                        #
                  #          Department of theory and spectroscopy      #
                  #    Directorship and core code : Frank Neese         #
                  #        Max Planck Institute fuer Kohlenforschung    #
                  #                Kaiser Wilhelm Platz 1               #
                  #                 D-45470 Muelheim/Ruhr               #
                  #                      Germany                        #
                  #                                                     #
                  #                  All rights reserved                #
                  #                        -***-                        #
                  #######################################################


                         Program Version 5.0.0 -  RELEASE  -
                                (SVN: $Rev: 19529$)
                ($Date: 2021-06-28 11:36:33 +0200 (Mo, 28 Jun 2021) $)


 With contributions from (in alphabetic order):
   Daniel Aravena         : Magnetic Suceptibility
   Michael Atanasov       : Ab Initio Ligand Field Theory (pilot matlab implementation)
   Alexander A. Auer      : GIAO ZORA, VPT2 properties, NMR spectrum
   Ute Becker             : Parallelization
   Giovanni Bistoni       : ED, misc. LED, open-shell LED, HFLD
   Martin Brehm           : Molecular dynamics
   Dmytro Bykov           : SCF Hessian
   Vijay G. Chilkuri      : MRCI spin determinant printing, contributions to CSF-ICE
   Dipayan Datta          : RHF DLPNO-CCSD density
   Achintya Kumar Dutta   : EOM-CC, STEOM-CC
   Dmitry Ganyushin       : Spin-Orbit,Spin-Spin,Magnetic field MRCI
   Miquel Garcia          : C-PCM Hessian, Gaussian charge scheme
   Yang Guo               : DLPNO-NEVPT2, F12-NEVPT2, CIM, IAO-localization
   Andreas Hansen         : Spin unrestricted coupled pair/coupled cluster methods
   Benjamin Helmich-Paris : MC-RPA, TRAH-SCF, COSX integrals
   Lee Huntington         : MR-EOM, pCC
   Robert Izsak           : Overlap fitted RIJCOSX, COSX-SCS-MP3, EOM
   Marcus Kettner         : VPT2
   Christian Kollmar      : KDIIS, OOCD, Brueckner-CCSD(T), CCSD density, CASPT2, CASPT2-K
   Simone Kossmann        : Meta GGA functionals, TD-DFT gradient, OOMP2, MP2 Hessian
   Martin Krupicka        : Initial AUTO-CI
   Lucas Lang             : DCDCAS
   Marvin Lechner         : AUTO-CI (C++ implementation), FIC-MRCC
   Dagmar Lenk            : GEPOL surface, SMD
   Dimitrios Liakos       : Extrapolation schemes; Compound Job, initial MDCI parallelization
   Dimitrios Manganas     : Further ROCIS development; embedding schemes
   Dimitrios Pantazis     : SARC Basis sets
   Anastasios Papadopoulos: AUTO-CI, single reference methods and gradients
   Taras Petrenko         : DFT Hessian,TD-DFT gradient, ASA, ECA, R-Raman, ABS, FL, XAS/XES, NRVS
   Peter Pinski           : DLPNO-MP2, DLPNO-MP2 Gradient
   Christoph Reimann      : Effective Core Potentials
   Marius Retegan         : Local ZFS, SOC
   Christoph Riplinger    : Optimizer, TS searches, QM/MM, DLPNO-CCSD(T), (RO)-DLPNO pert. Triples
   Tobias Risthaus        : Range-separated hybrids, TD-DFT gradient, RPA, STAB
   Michael Roemelt        : Original ROCIS implementation
   Masaaki Saitow         : Open-shell DLPNO-CCSD energy and density
   Barbara Sandhoefer     : DKH picture change effects
   Avijit Sen             : IP-ROCIS
   Kantharuban Sivalingam : CASSCF convergence, NEVPT2, FIC-MRCI
   Bernardo de Souza      : ESD, SOC TD-DFT
   Georgi Stoychev        : AutoAux, RI-MP2 NMR
   Willem Van den Heuvel  : Paramagnetic NMR
   Boris Wezisla          : Elementary symmetry handling
   Frank Wennmohs         : Technical directorship


 We gratefully acknowledge several colleagues who have allowed us to
 interface, adapt or use parts of their codes:
   Stefan Grimme, W. Hujo, H. Kruse, P. Pracht,  : VdW corrections, initial TS optimization,
                  C. Bannwarth, S. Ehlert          DFT functionals, gCP, sTDA/sTD-DF
   Ed Valeev, F. Pavosevic, A. Kumar             : LibInt (2-el integral package), F12 methods
   Garnet Chan, S. Sharma, J. Yang, R. Olivares  : DMRG
   Ulf Ekstrom                                   : XCFun DFT Library
   Mihaly Kallay                                 : mrcc  (arbitrary order and MRCC methods)
   Jiri Pittner, Ondrej Demel                    : Mk-CCSD
   Frank Weinhold                                : gennbo (NPA and NBO analysis)
   Christopher J. Cramer and Donald G. Truhlar   : smd solvation model
   Lars Goerigk                                  : TD-DFT with DH, B97 family of functionals
   V. Asgeirsson, H. Jonsson                     : NEB implementation
   FAccTs GmbH                                   : IRC, NEB, NEB-TS, DLPNO-Multilevel, CI-OPT
                                                   MM, QMMM, 2- and 3-layer-ONIOM, Crystal-QMMM,
                                                   LR-CPCM, SF, NACMEs, symmetry and pop. for TD-DFT,
                                                   nearIR, NL-DFT gradient (VV10), updates on ESD,
                                                   ML-optimized integration grids
   S Lehtola, MJT Oliveira, MAL Marques          : LibXC Library
   Liviu Ungur et al                             : ANISO software


 Your calculation uses the libint2 library for the computation of 2-el integrals
 For citations please refer to: http://libint.valeyev.net

 Your ORCA version has been built with support for libXC version: 5.1.0
 For citations please refer to: https://tddft.org/programs/libxc/

 This ORCA versions uses:
   CBLAS   interface :  Fast vector & matrix operations
   LAPACKE interface :  Fast linear algebra routines
   SCALAPACK package :  Parallel linear algebra routines
   Shared memory     :  Shared parallel matrices
   BLAS/LAPACK       :  OpenBLAS 0.3.15  USE64BITINT DYNAMIC_ARCH NO_AFFINITY Haswell SINGLE_THREADED
        Core in use  :  Haswell
   Copyright (c) 2011-2014, The OpenBLAS Project




***************************************
The coordinates will be read from file: D4.xyz
***************************************


XCFun DFT library Copyright 2009-2010 Ulf Ekstrom and contributors.
See http://admol.org/xcfun for more information.
This is free software; see the source code for copying conditions.
There is ABSOLUTELY NO WARRANTY; not even for MERCHANTABILITY or FITNESS FOR A PARTICULAR PURPOSE.
For details see the documentation.
Scientific users of this library should cite U. Ekstrom, L. Visscher, R. Bast, A. J. Thorvaldsen and K. Ruud;
J.Chem.Theor.Comp. 2010, DOI: 10.1021/ct100117s
XCFun Version 0.99 

================================================================================

----- Orbital basis set information -----
Your calculation utilizes the basis: def2-TZVP
   F. Weigend and R. Ahlrichs, Phys. Chem. Chem. Phys. 7, 3297 (2005).

----- AuxJ basis set information -----
Your calculation utilizes the auxiliary basis: def2/J
   F. Weigend, Phys. Chem. Chem. Phys. 8, 1057 (2006).

================================================================================
                                        WARNINGS
                       Please study these warnings very carefully!
================================================================================


INFO   : the flag for use of the SHARK integral package has been found!

================================================================================
                                       INPUT FILE
================================================================================
NAME = LC_BLYP_D4_wb97.com
|  1> !LC-BLYP RIJCOSX def2-TZVP def2/J TightSCF xyzfile                                                                                         
|  2> 
|  3> *xyzfile 0 1 D4.xyz
|  4> 
|  5> %MaxCore 64000
|  6> 
|  7> %pal nprocs 18                                                                                                                                                  
|  8> end  
|  9> 
| 10> %scf
| 11>   MaxIter 150
| 12> end
| 13> 
| 14> 
| 15>                          ****END OF INPUT****
================================================================================

                       ****************************
                       * Single Point Calculation *
                       ****************************

---------------------------------
CARTESIAN COORDINATES (ANGSTROEM)
---------------------------------
  C      2.486452   -2.677121   -2.563447
  C     -0.870963    0.248043   -2.662804
  C     -0.477492    0.608191   -4.101052
  H      0.206773    1.458299   -4.118748
  H     -1.368442    0.929419   -4.647855
  C      0.184673   -0.506640   -4.916760
  C      3.037640   -2.366715   -3.923509
  N      2.280360   -2.454408   -4.967692
  C      4.321736   -2.017932   -4.016641
  H      4.879940   -1.911668   -3.173823
  H      4.710148   -1.670882   -4.883561
  H      1.270423   -2.412650   -4.866143
  H      2.581829   -2.055282   -5.846878
  O     -0.158685   -1.701088   -4.657981
  F      1.055938   -0.174410   -5.740373
  C      2.497991   -1.469464   -1.610303
  C      1.582841   -0.321986   -2.042619
  H      2.193083   -1.833912   -0.625420
  H      3.523356   -1.103982   -1.490392
  C      0.100160   -0.673551   -1.915815
  H      1.822311   -0.040361   -3.072834
  H      1.813180    0.557019   -1.433266
  H     -0.063284   -1.679120   -2.301112
  H     -0.168820   -0.691680   -0.853831
  H     -1.001048    1.181040   -2.104071
  H     -1.844645   -0.246592   -2.663281
  H      1.472592   -3.051527   -2.694366
  H      3.083201   -3.490638   -2.141472

----------------------------
CARTESIAN COORDINATES (A.U.)
----------------------------
  NO LB      ZA    FRAG     MASS         X           Y           Z
   0 C     6.0000    0    12.011    4.698713   -5.059026   -4.844214
   1 C     6.0000    0    12.011   -1.645881    0.468734   -5.031970
   2 C     6.0000    0    12.011   -0.902329    1.149314   -7.749864
   3 H     1.0000    0     1.008    0.390744    2.755786   -7.783305
   4 H     1.0000    0     1.008   -2.585980    1.756347   -8.783173
   5 C     6.0000    0    12.011    0.348982   -0.957411   -9.291330
   6 C     6.0000    0    12.011    5.740308   -4.472444   -7.414358
   7 N     7.0000    0    14.007    4.309256   -4.638160   -9.387577
   8 C     6.0000    0    12.011    8.166898   -3.813339   -7.590352
   9 H     1.0000    0     1.008    9.221751   -3.612530   -5.997657
  10 H     1.0000    0     1.008    8.900891   -3.157510   -9.228594
  11 H     1.0000    0     1.008    2.400752   -4.559248   -9.195678
  12 H     1.0000    0     1.008    4.878950   -3.883920  -11.048997
  13 O     8.0000    0    15.999   -0.299872   -3.214590   -8.802309
  14 F     9.0000    0    18.998    1.995434   -0.329587  -10.847733
  15 C     6.0000    0    12.011    4.720518   -2.776884   -3.043032
  16 C     6.0000    0    12.011    2.991136   -0.608465   -3.859991
  17 H     1.0000    0     1.008    4.144326   -3.465591   -1.181872
  18 H     1.0000    0     1.008    6.658177   -2.086223   -2.816433
  19 C     6.0000    0    12.011    0.189274   -1.272828   -3.620365
  20 H     1.0000    0     1.008    3.443670   -0.076270   -5.806816
  21 H     1.0000    0     1.008    3.426413    1.052613   -2.708480
  22 H     1.0000    0     1.008   -0.119590   -3.173077   -4.348471
  23 H     1.0000    0     1.008   -0.319023   -1.307086   -1.613507
  24 H     1.0000    0     1.008   -1.891707    2.231842   -3.976118
  25 H     1.0000    0     1.008   -3.485874   -0.465991   -5.032871
  26 H     1.0000    0     1.008    2.782796   -5.766551   -5.091613
  27 H     1.0000    0     1.008    5.826406   -6.596350   -4.046796

--------------------------------
INTERNAL COORDINATES (ANGSTROEM)
--------------------------------
 C      0   0   0     0.000000000000     0.00000000     0.00000000
 C      1   0   0     4.454064584838     0.00000000     0.00000000
 C      2   1   0     1.533976128106    88.95459771     0.00000000
 H      3   2   1     1.091428365082   111.03171716   267.18333495
 H      3   2   1     1.093605109075   109.19532305   150.78855748
 C      3   2   1     1.531891446481   116.05722258    29.22456704
 C      1   2   3     1.499976287048    96.94160158     3.38330059
 N      7   1   2     1.292857194550   120.20153047   303.68195089
 C      7   1   2     1.333876682499   118.11023474   124.45999682
 H      9   7   1     1.016476835198   119.87469438   356.11519397
 H      9   7   1     1.011364586483   121.28466771   188.91527382
 H      8   7   1     1.015888226098   119.91986722    21.20577831
 H      8   7   1     1.011510284844   120.04373343   166.48528981
 O      6   3   2     1.269474918861   117.34059584    31.12063894
 F      6   3   2     1.244113151722   117.44399281   214.04914813
 C      1   2   3     1.538522864266    60.26212524   116.36906125
 C     16   1   2     1.530066108002   114.15104694   340.47209586
 H     16   1   2     1.093520442632   107.11405723   102.15692623
 H     16   1   2     1.095138864356   109.68305791   216.63029446
 C     17  16   1     1.529059344857   112.58830136    69.60978898
 H     17  16   1     1.094532649112   109.15039882   306.58294366
 H     17  16   1     1.094082501574   108.61687115   191.73619769
 H     20  17  16     1.089190578302   109.17429135   316.14372051
 H     20  17  16     1.095667243895   108.79798208    72.47390166
 H      2   1   3     1.095256859472   129.61268061   247.30838146
 H      2   1   3     1.092117796530   111.99987238   110.70635839
 H      1   2   3     1.088683249565    61.39264096   256.95470119
 H      1   2   3     1.093610044098   155.29380908   188.74897233

---------------------------
INTERNAL COORDINATES (A.U.)
---------------------------
 C      0   0   0     0.000000000000     0.00000000     0.00000000
 C      1   0   0     8.416962248141     0.00000000     0.00000000
 C      2   1   0     2.898794778093    88.95459771     0.00000000
 H      3   2   1     2.062500704798   111.03171716   267.18333495
 H      3   2   1     2.066614154809   109.19532305   150.78855748
 C      3   2   1     2.894855300746   116.05722258    29.22456704
 C      1   2   3     2.834544389897    96.94160158     3.38330059
 N      7   1   2     2.443146027969   120.20153047   303.68195089
 C      7   1   2     2.520661626346   118.11023474   124.45999682
 H      9   7   1     1.920862840000   119.87469438   356.11519397
 H      9   7   1     1.911202090000   121.28466771   188.91527382
 H      8   7   1     1.919750530000   119.91986722    21.20577831
 H      8   7   1     1.911477420000   120.04373343   166.48528981
 O      6   3   2     2.398959930530   117.34059584    31.12063894
 F      6   3   2     2.351033136364   117.44399281   214.04914813
 C      1   2   3     2.907386864238    60.26212524   116.36906125
 C     16   1   2     2.891405910918   114.15104694   340.47209586
 H     16   1   2     2.066454158419   107.11405723   102.15692623
 H     16   1   2     2.069512532246   109.68305791   216.63029446
 C     17  16   1     2.889503404292   112.58830136    69.60978898
 H     17  16   1     2.068366951457   109.15039882   306.58294366
 H     17  16   1     2.067516295890   108.61687115   191.73619769
 H     20  17  16     2.058271900637   109.17429135   316.14372051
 H     20  17  16     2.070511024871   108.79798208    72.47390166
 H      2   1   3     2.069735510701   129.61268061   247.30838146
 H      2   1   3     2.063803541424   111.99987238   110.70635839
 H      1   2   3     2.057313188266    61.39264096   256.95470119
 H      1   2   3     2.066623480650   155.29380908   188.74897233

---------------------
BASIS SET INFORMATION
---------------------
There are 5 groups of distinct atoms

 Group   1 Type C   : 11s6p2d1f contracted to 5s3p2d1f pattern {62111/411/11/1}
 Group   2 Type H   : 5s1p contracted to 3s1p pattern {311/1}
 Group   3 Type N   : 11s6p2d1f contracted to 5s3p2d1f pattern {62111/411/11/1}
 Group   4 Type O   : 11s6p2d1f contracted to 5s3p2d1f pattern {62111/411/11/1}
 Group   5 Type F   : 11s6p2d1f contracted to 5s3p2d1f pattern {62111/411/11/1}

Atom   0C    basis set group =>   1
Atom   1C    basis set group =>   1
Atom   2C    basis set group =>   1
Atom   3H    basis set group =>   2
Atom   4H    basis set group =>   2
Atom   5C    basis set group =>   1
Atom   6C    basis set group =>   1
Atom   7N    basis set group =>   3
Atom   8C    basis set group =>   1
Atom   9H    basis set group =>   2
Atom  10H    basis set group =>   2
Atom  11H    basis set group =>   2
Atom  12H    basis set group =>   2
Atom  13O    basis set group =>   4
Atom  14F    basis set group =>   5
Atom  15C    basis set group =>   1
Atom  16C    basis set group =>   1
Atom  17H    basis set group =>   2
Atom  18H    basis set group =>   2
Atom  19C    basis set group =>   1
Atom  20H    basis set group =>   2
Atom  21H    basis set group =>   2
Atom  22H    basis set group =>   2
Atom  23H    basis set group =>   2
Atom  24H    basis set group =>   2
Atom  25H    basis set group =>   2
Atom  26H    basis set group =>   2
Atom  27H    basis set group =>   2
---------------------------------
AUXILIARY/J BASIS SET INFORMATION
---------------------------------
There are 5 groups of distinct atoms

 Group   1 Type C   : 12s5p4d2f1g contracted to 6s4p3d1f1g pattern {711111/2111/211/2/1}
 Group   2 Type H   : 5s2p1d contracted to 3s1p1d pattern {311/2/1}
 Group   3 Type N   : 12s5p4d2f1g contracted to 6s4p3d1f1g pattern {711111/2111/211/2/1}
 Group   4 Type O   : 12s5p4d2f1g contracted to 6s4p3d1f1g pattern {711111/2111/211/2/1}
 Group   5 Type F   : 12s5p4d2f1g contracted to 6s4p3d1f1g pattern {711111/2111/211/2/1}

Atom   0C    basis set group =>   1
Atom   1C    basis set group =>   1
Atom   2C    basis set group =>   1
Atom   3H    basis set group =>   2
Atom   4H    basis set group =>   2
Atom   5C    basis set group =>   1
Atom   6C    basis set group =>   1
Atom   7N    basis set group =>   3
Atom   8C    basis set group =>   1
Atom   9H    basis set group =>   2
Atom  10H    basis set group =>   2
Atom  11H    basis set group =>   2
Atom  12H    basis set group =>   2
Atom  13O    basis set group =>   4
Atom  14F    basis set group =>   5
Atom  15C    basis set group =>   1
Atom  16C    basis set group =>   1
Atom  17H    basis set group =>   2
Atom  18H    basis set group =>   2
Atom  19C    basis set group =>   1
Atom  20H    basis set group =>   2
Atom  21H    basis set group =>   2
Atom  22H    basis set group =>   2
Atom  23H    basis set group =>   2
Atom  24H    basis set group =>   2
Atom  25H    basis set group =>   2
Atom  26H    basis set group =>   2
Atom  27H    basis set group =>   2


           ************************************************************
           *        Program running with 18 parallel MPI-processes    *
           *              working on a common directory               *
           ************************************************************
------------------------------------------------------------------------------
                           ORCA GTO INTEGRAL CALCULATION
                           -- RI-GTO INTEGRALS CHOSEN --
------------------------------------------------------------------------------
------------------------------------------------------------------------------
                   ___                                                        
                  /   \      - P O W E R E D   B Y -                         
                 /     \                                                     
                 |  |  |   _    _      __       _____    __    __             
                 |  |  |  | |  | |    /  \     |  _  \  |  |  /  |          
                  \  \/   | |  | |   /    \    | | | |  |  | /  /          
                 / \  \   | |__| |  /  /\  \   | |_| |  |  |/  /          
                |  |  |   |  __  | /  /__\  \  |    /   |      \           
                |  |  |   | |  | | |   __   |  |    \   |  |\   \          
                \     /   | |  | | |  |  |  |  | |\  \  |  | \   \       
                 \___/    |_|  |_| |__|  |__|  |_| \__\ |__|  \__/        
                                                                              
                      - O R C A' S   B I G   F R I E N D -                    
                                      &                                       
                       - I N T E G R A L  F E E D E R -                       
                                                                              
 v1 FN, 2020, v2 2021                                                         
------------------------------------------------------------------------------


Reading SHARK input file LC_BLYP_D4_wb97.SHARKINP.tmp ... ok
----------------------
SHARK INTEGRAL PACKAGE
----------------------

Number of atoms                             ...     28
Number of basis functions                   ...    468
Number of shells                            ...    196
Maximum angular momentum                    ...      3
Integral batch strategy                     ... SHARK/LIBINT Hybrid
RI-J (if used) integral strategy            ... SPLIT-RIJ (Revised 2003 algorithm where possible)
Printlevel                                  ...      1
Contraction scheme used                     ... SEGMENTED contraction
Coulomb Range Separation                    ... NOT USED
Exchange Range Separation                   ... Long Range
   Mu parameter                             ...  0.330000
   Scaling (regular/separated)              ...  0.000000  1.000000
Finite Nucleus Model                        ... NOT USED
Auxiliary Coulomb fitting basis             ... AVAILABLE
   # of basis functions in Aux-J            ...    764
   # of shells in Aux-J                     ...    260
   Maximum angular momentum in Aux-J        ...      4
Auxiliary J/K fitting basis                 ... NOT available
Auxiliary Correlation fitting basis         ... NOT available
Auxiliary 'external' fitting basis          ... NOT available
Integral threshold                          ...     2.500000e-11
Primitive cut-off                           ...     2.500000e-12
Primitive pair pre-selection threshold      ...     2.500000e-12

Calculating pre-screening integrals         ... done (  0.1 sec) Dimension = 196
Organizing shell pair data                  ... done (  0.2 sec)
Shell pair information
Total number of shell pairs                 ...     19306
Shell pairs after pre-screening             ...     16817
Total number of primitive shell pairs       ...     56928
Primitive shell pairs kept                  ...     35426
          la=0 lb=0:   4962 shell pairs
          la=1 lb=0:   4943 shell pairs
          la=1 lb=1:   1258 shell pairs
          la=2 lb=0:   2261 shell pairs
          la=2 lb=1:   1132 shell pairs
          la=2 lb=2:    277 shell pairs
          la=3 lb=0:   1089 shell pairs
          la=3 lb=1:    557 shell pairs
          la=3 lb=2:    266 shell pairs
          la=3 lb=3:     72 shell pairs

Calculating one electron integrals          ... done (  0.0 sec)
Calculating RI/J V-Matrix + Cholesky decomp.... done (  0.1 sec)
Calculating Nuclear repulsion               ... done (  0.0 sec) ENN=    784.744856494738 Eh

SHARK setup successfully completed in   0.6 seconds

Maximum memory used throughout the entire GTOINT-calculation: 26.6 MB


           ************************************************************
           *        Program running with 18 parallel MPI-processes    *
           *              working on a common directory               *
           ************************************************************
-------------------------------------------------------------------------------
                                 ORCA SCF
-------------------------------------------------------------------------------

------------
SCF SETTINGS
------------
Hamiltonian:
 Density Functional     Method          .... DFT(GTOs)
 Exchange Functional    Exchange        .... WB88
 Correlation Functional Correlation     .... LYP
 Gradients option       PostSCFGGA      .... off
   Density functional embedding theory  .... OFF
 Long-range corrected/Screened/Range-Separated Hybrid DFT is turned on
   Amount of maximum screened exact exchange              ....  1.000000
   Range separation parameter mu (erf(mu*r12)/r12)        ....  0.330000
 RI-approximation to the Coulomb term is turned on
   Number of AuxJ basis functions       .... 764
   RIJ-COSX (HFX calculated with COS-X)).... on


General Settings:
 Integral files         IntName         .... LC_BLYP_D4_wb97
 Hartree-Fock type      HFTyp           .... RHF
 Total Charge           Charge          ....    0
 Multiplicity           Mult            ....    1
 Number of Electrons    NEL             ....   94
 Basis Dimension        Dim             ....  468
 Nuclear Repulsion      ENuc            ....    784.7448564947 Eh

Convergence Acceleration:
 DIIS                   CNVDIIS         .... on
   Start iteration      DIISMaxIt       ....    12
   Startup error        DIISStart       ....  0.200000
   # of expansion vecs  DIISMaxEq       ....     5
   Bias factor          DIISBfac        ....   1.050
   Max. coefficient     DIISMaxC        ....  10.000
 Trust-Rad. Augm. Hess. CNVTRAH         .... auto
   Auto Start mean grad. ratio tolernc. ....  1.125000
   Auto Start start iteration           ....    20
   Auto Start num. interpolation iter.  ....    10
   Max. Number of Micro iterations      ....    16
   Max. Number of Macro iterations      .... Maxiter - #DIIS iter
   Number of Davidson start vectors     ....     2
   Converg. threshold I  (grad. norm)   ....   1.000e-05
   Converg. threshold II (energy diff.) ....   1.000e-08
   Grad. Scal. Fac. for Micro threshold ....   0.100
   Minimum threshold for Micro iter.    ....   0.010
   NR start threshold (gradient norm)   ....   0.001
   Initial trust radius                 ....   0.400
   Minimum AH scaling param. (alpha)    ....   1.000
   Maximum AH scaling param. (alpha)    .... 1000.000
   Orbital update algorithm             .... Taylor
   White noise on init. David. guess    .... on
   Maximum white noise                  ....   0.010
   Quad. conv. algorithm                .... NR
 SOSCF                  CNVSOSCF        .... on
   Start iteration      SOSCFMaxIt      ....   150
   Startup grad/error   SOSCFStart      ....  0.003300
 Level Shifting         CNVShift        .... on
   Level shift para.    LevelShift      ....    0.2500
   Turn off err/grad.   ShiftErr        ....    0.0010
 Zerner damping         CNVZerner       .... off
 Static damping         CNVDamp         .... on
   Fraction old density DampFac         ....    0.7000
   Max. Damping (<1)    DampMax         ....    0.9800
   Min. Damping (>=0)   DampMin         ....    0.0000
   Turn off err/grad.   DampErr         ....    0.1000
 Fernandez-Rico         CNVRico         .... off

SCF Procedure:
 Maximum # iterations   MaxIter         ....   150
 SCF integral mode      SCFMode         .... Direct
   Integral package                     .... SHARK and LIBINT hybrid scheme
 Reset frequency        DirectResetFreq ....    20
 Integral Threshold     Thresh          ....  2.500e-11 Eh
 Primitive CutOff       TCut            ....  2.500e-12 Eh

Convergence Tolerance:
 Convergence Check Mode ConvCheckMode   .... Total+1el-Energy
 Convergence forced     ConvForced      .... 0
 Energy Change          TolE            ....  1.000e-08 Eh
 1-El. energy change                    ....  1.000e-05 Eh
 Orbital Gradient       TolG            ....  1.000e-05
 Orbital Rotation angle TolX            ....  1.000e-05
 DIIS Error             TolErr          ....  5.000e-07


Diagonalization of the overlap matrix:
Smallest eigenvalue                        ... 7.853e-05
Time for diagonalization                   ...    0.060 sec
Threshold for overlap eigenvalues          ... 1.000e-08
Number of eigenvalues below threshold      ... 0
Time for construction of square roots      ...    0.090 sec
Total time needed                          ...    0.152 sec

Time for model grid setup =    0.173 sec

------------------------------
INITIAL GUESS: MODEL POTENTIAL
------------------------------
Loading Hartree-Fock densities                     ... done
Calculating cut-offs                               ... done
Initializing the effective Hamiltonian             ... done
Setting up the integral package (SHARK)            ... done
Starting the Coulomb interaction                   ... done (   0.2 sec)
Reading the grid                                   ... done
Mapping shells                                     ... done
Starting the XC term evaluation                    ... done (   0.2 sec)
  promolecular density results
     # of electrons  =     93.986214295
     EX              =    -75.547425111
     EC              =     -3.147253593
     EX+EC           =    -78.694678704
Transforming the Hamiltonian                       ... done (   0.0 sec)
Diagonalizing the Hamiltonian                      ... done (   0.1 sec)
Back transforming the eigenvectors                 ... done (   0.0 sec)
Now organizing SCF variables                       ... done
                      ------------------
                      INITIAL GUESS DONE (   0.6 sec)
                      ------------------
-------------------
DFT GRID GENERATION
-------------------

General Integration Accuracy     IntAcc      ... 4.388
Radial Grid Type                 RadialGrid  ... OptM3 with GC (2021)
Angular Grid (max. ang.)         AngularGrid ... 4 (Lebedev-302)
Angular grid pruning method      GridPruning ... 4 (adaptive)
Weight generation scheme         WeightScheme... Becke
Basis function cutoff            BFCut       ... 1.0000e-11
Integration weight cutoff        WCut        ... 1.0000e-14
Angular grids for H and He will be reduced by one unit
Partially contracted basis set               ... off
Rotationally invariant grid construction     ... off

Total number of grid points                  ...   122450
Total number of batches                      ...     1928
Average number of points per batch           ...       63
Average number of grid points per atom       ...     4373
Time for grid setup =    0.645 sec

--------------------
COSX GRID GENERATION
--------------------

GRIDX 1
-------
General Integration Accuracy     IntAcc      ... 3.816
Radial Grid Type                 RadialGrid  ... OptM3 with GC (2021)
Angular Grid (max. ang.)         AngularGrid ... 1 (Lebedev-50)
Angular grid pruning method      GridPruning ... 4 (adaptive)
Weight generation scheme         WeightScheme... Becke
Basis function cutoff            BFCut       ... 1.0000e-11
Integration weight cutoff        WCut        ... 1.0000e-14
Angular grids for H and He will be reduced by one unit
Partially contracted basis set               ... on
Rotationally invariant grid construction     ... off

Total number of grid points                  ...    15626
Total number of batches                      ...      263
Average number of points per batch           ...       59
Average number of grid points per atom       ...      558
UseSFitting                                  ... on

GRIDX 2
-------
General Integration Accuracy     IntAcc      ... 4.020
Radial Grid Type                 RadialGrid  ... OptM3 with GC (2021)
Angular Grid (max. ang.)         AngularGrid ... 2 (Lebedev-110)
Angular grid pruning method      GridPruning ... 4 (adaptive)
Weight generation scheme         WeightScheme... Becke
Basis function cutoff            BFCut       ... 1.0000e-11
Integration weight cutoff        WCut        ... 1.0000e-14
Angular grids for H and He will be reduced by one unit
Partially contracted basis set               ... on
Rotationally invariant grid construction     ... off

Total number of grid points                  ...    32935
Total number of batches                      ...      529
Average number of points per batch           ...       62
Average number of grid points per atom       ...     1176
UseSFitting                                  ... on

GRIDX 3
-------
General Integration Accuracy     IntAcc      ... 4.338
Radial Grid Type                 RadialGrid  ... OptM3 with GC (2021)
Angular Grid (max. ang.)         AngularGrid ... 3 (Lebedev-194)
Angular grid pruning method      GridPruning ... 4 (adaptive)
Weight generation scheme         WeightScheme... Becke
Basis function cutoff            BFCut       ... 1.0000e-11
Integration weight cutoff        WCut        ... 1.0000e-14
Angular grids for H and He will be reduced by one unit
Partially contracted basis set               ... on
Rotationally invariant grid construction     ... off

Total number of grid points                  ...    71840
Total number of batches                      ...     1136
Average number of points per batch           ...       63
Average number of grid points per atom       ...     2566
UseSFitting                                  ... on

Time for X-Grid setup             =    0.646 sec

--------------
SCF ITERATIONS
--------------
ITER       Energy         Delta-E        Max-DP      RMS-DP      [F,P]     Damp
               ***  Starting incremental Fock matrix formation  ***
  0   -580.6942807721   0.000000000000 0.04493152  0.00096615  0.2581693 0.7000
  1   -580.8955518612  -0.201271089028 0.03983117  0.00076548  0.1374151 0.7000
                               ***Turning on DIIS***
  2   -580.9900059749  -0.094454113699 0.08593470  0.00158953  0.0669221 0.0000
  3   -581.1458618928  -0.155855917889 0.02261930  0.00041294  0.0621354 0.0000
  4   -581.1707929545  -0.024931061761 0.00891580  0.00012860  0.0164957 0.0000
  5   -581.1716600223  -0.000867067806 0.00424498  0.00006460  0.0115180 0.0000
                      *** Initiating the SOSCF procedure ***
                           *** Shutting down DIIS ***
                      *** Re-Reading the Fockian *** 
                      *** Removing any level shift *** 
ITER      Energy       Delta-E        Grad      Rot      Max-DP    RMS-DP
  6   -581.17187967  -0.0002196457  0.000548  0.000548  0.003234  0.000052
               *** Restarting incremental Fock matrix formation ***
  7   -581.17190274  -0.0000230729  0.000159  0.000257  0.001382  0.000027
  8   -581.17190382  -0.0000010796  0.000275  0.000371  0.000386  0.000007
  9   -581.17190747  -0.0000036464  0.000052  0.000159  0.000226  0.000004
 10   -581.17190753  -0.0000000648  0.000073  0.000084  0.000093  0.000001
 11   -581.17190764  -0.0000001087  0.000006  0.000009  0.000033  0.000001
                  ***Gradient check signals convergence***
              ***Rediagonalizing the Fockian in SOSCF/NRSCF***

               *****************************************************
               *                     SUCCESS                       *
               *           SCF CONVERGED AFTER  12 CYCLES          *
               *****************************************************


----------------
TOTAL SCF ENERGY
----------------

Total Energy       :         -581.17190764 Eh          -15814.49160 eV

Components:
Nuclear Repulsion  :          784.74485649 Eh           21353.99316 eV
Electronic Energy  :        -1365.91676413 Eh          -37168.48476 eV
One Electron Energy:        -2349.56916621 Eh          -63935.02741 eV
Two Electron Energy:          983.65240208 Eh           26766.54265 eV
Max COSX asymmetry :            0.00000189 Eh               0.00005 eV

Virial components:
Potential Energy   :        -1160.86555799 Eh          -31588.75777 eV
Kinetic Energy     :          579.69365035 Eh           15774.26617 eV
Virial Ratio       :            2.00255007


DFT components:
N(Alpha)           :       46.999877334609 electrons
N(Beta)            :       46.999877334609 electrons
N(Total)           :       93.999754669218 electrons
E(XC)              :      -63.552974352979 Eh       
DFET-embed. en.    :        0.000000000000 Eh       

---------------
SCF CONVERGENCE
---------------

  Last Energy change         ...    4.8241e-09  Tolerance :   1.0000e-08
  Last MAX-Density change    ...    1.5805e-05  Tolerance :   1.0000e-07
  Last RMS-Density change    ...    2.0667e-07  Tolerance :   5.0000e-09
  Last Orbital Gradient      ...    2.1822e-06  Tolerance :   1.0000e-05
  Last Orbital Rotation      ...    1.8678e-06  Tolerance :   1.0000e-05

             **** THE GBW FILE WAS UPDATED (LC_BLYP_D4_wb97.gbw) ****
             **** DENSITY LC_BLYP_D4_wb97.scfp WAS UPDATED ****
             **** ENERGY FILE WAS UPDATED (LC_BLYP_D4_wb97.en.tmp) ****
             **** THE GBW FILE WAS UPDATED (LC_BLYP_D4_wb97.gbw) ****
             **** DENSITY LC_BLYP_D4_wb97.scfp WAS UPDATED ****
----------------
ORBITAL ENERGIES
----------------

  NO   OCC          E(Eh)            E(eV) 
   0   2.0000     -24.550788      -668.0609 
   1   2.0000     -18.968792      -516.1671 
   2   2.0000     -14.136617      -384.6769 
   3   2.0000     -10.277186      -279.6565 
   4   2.0000     -10.113512      -275.2027 
   5   2.0000     -10.087682      -274.4998 
   6   2.0000     -10.075689      -274.1734 
   7   2.0000     -10.066767      -273.9306 
   8   2.0000     -10.066569      -273.9253 
   9   2.0000     -10.061432      -273.7855 
  10   2.0000     -10.056193      -273.6429 
  11   2.0000      -9.982380      -271.6344 
  12   2.0000      -1.430552       -38.9273 
  13   2.0000      -1.153868       -31.3983 
  14   2.0000      -1.019007       -27.7286 
  15   2.0000      -0.942003       -25.6332 
  16   2.0000      -0.902679       -24.5631 
  17   2.0000      -0.860988       -23.4287 
  18   2.0000      -0.818098       -22.2616 
  19   2.0000      -0.791093       -21.5267 
  20   2.0000      -0.771704       -20.9991 
  21   2.0000      -0.731033       -19.8924 
  22   2.0000      -0.694719       -18.9043 
  23   2.0000      -0.686287       -18.6748 
  24   2.0000      -0.664077       -18.0705 
  25   2.0000      -0.652717       -17.7613 
  26   2.0000      -0.632880       -17.2215 
  27   2.0000      -0.603747       -16.4288 
  28   2.0000      -0.590144       -16.0586 
  29   2.0000      -0.583481       -15.8773 
  30   2.0000      -0.575877       -15.6704 
  31   2.0000      -0.549829       -14.9616 
  32   2.0000      -0.528884       -14.3917 
  33   2.0000      -0.514215       -13.9925 
  34   2.0000      -0.509162       -13.8550 
  35   2.0000      -0.495926       -13.4948 
  36   2.0000      -0.481804       -13.1106 
  37   2.0000      -0.473937       -12.8965 
  38   2.0000      -0.460955       -12.5432 
  39   2.0000      -0.458796       -12.4845 
  40   2.0000      -0.439578       -11.9615 
  41   2.0000      -0.434394       -11.8205 
  42   2.0000      -0.419871       -11.4253 
  43   2.0000      -0.418680       -11.3929 
  44   2.0000      -0.411729       -11.2037 
  45   2.0000      -0.395710       -10.7678 
  46   2.0000      -0.264562        -7.1991 
  47   0.0000       0.029086         0.7915 
  48   0.0000       0.084877         2.3096 
  49   0.0000       0.109309         2.9745 
  50   0.0000       0.116583         3.1724 
  51   0.0000       0.120406         3.2764 
  52   0.0000       0.133047         3.6204 
  53   0.0000       0.139631         3.7995 
  54   0.0000       0.150472         4.0946 
  55   0.0000       0.154609         4.2071 
  56   0.0000       0.163470         4.4483 
  57   0.0000       0.180657         4.9159 
  58   0.0000       0.186028         5.0621 
  59   0.0000       0.192506         5.2384 
  60   0.0000       0.197493         5.3741 
  61   0.0000       0.200333         5.4513 
  62   0.0000       0.217708         5.9241 
  63   0.0000       0.218454         5.9444 
  64   0.0000       0.228499         6.2178 
  65   0.0000       0.232977         6.3396 
  66   0.0000       0.243147         6.6164 
  67   0.0000       0.245577         6.6825 
  68   0.0000       0.257133         6.9970 
  69   0.0000       0.262038         7.1304 
  70   0.0000       0.272621         7.4184 
  71   0.0000       0.282120         7.6769 
  72   0.0000       0.292113         7.9488 
  73   0.0000       0.296030         8.0554 
  74   0.0000       0.310027         8.4363 
  75   0.0000       0.318304         8.6615 
  76   0.0000       0.329316         8.9612 
  77   0.0000       0.330135         8.9834 
  78   0.0000       0.339008         9.2249 
  79   0.0000       0.354421         9.6443 
  80   0.0000       0.363833         9.9004 
  81   0.0000       0.369740        10.0611 
  82   0.0000       0.382555        10.4099 
  83   0.0000       0.389798        10.6069 
  84   0.0000       0.403127        10.9696 
  85   0.0000       0.408917        11.1272 
  86   0.0000       0.417963        11.3734 
  87   0.0000       0.422951        11.5091 
  88   0.0000       0.430307        11.7093 
  89   0.0000       0.444000        12.0819 
  90   0.0000       0.460873        12.5410 
  91   0.0000       0.468030        12.7357 
  92   0.0000       0.470195        12.7947 
  93   0.0000       0.473113        12.8741 
  94   0.0000       0.478914        13.0319 
  95   0.0000       0.481391        13.0993 
  96   0.0000       0.489189        13.3115 
  97   0.0000       0.492198        13.3934 
  98   0.0000       0.498318        13.5599 
  99   0.0000       0.504024        13.7152 
 100   0.0000       0.510824        13.9002 
 101   0.0000       0.515135        14.0175 
 102   0.0000       0.520843        14.1728 
 103   0.0000       0.524770        14.2797 
 104   0.0000       0.526896        14.3376 
 105   0.0000       0.535612        14.5747 
 106   0.0000       0.539872        14.6907 
 107   0.0000       0.542425        14.7601 
 108   0.0000       0.549046        14.9403 
 109   0.0000       0.553675        15.0663 
 110   0.0000       0.562250        15.2996 
 111   0.0000       0.566772        15.4226 
 112   0.0000       0.575552        15.6616 
 113   0.0000       0.582095        15.8396 
 114   0.0000       0.586975        15.9724 
 115   0.0000       0.598797        16.2941 
 116   0.0000       0.611093        16.6287 
 117   0.0000       0.624006        16.9801 
 118   0.0000       0.637730        17.3535 
 119   0.0000       0.642298        17.4778 
 120   0.0000       0.655537        17.8381 
 121   0.0000       0.659951        17.9582 
 122   0.0000       0.672020        18.2866 
 123   0.0000       0.678852        18.4725 
 124   0.0000       0.706244        19.2179 
 125   0.0000       0.710178        19.3249 
 126   0.0000       0.728067        19.8117 
 127   0.0000       0.740874        20.1602 
 128   0.0000       0.748030        20.3549 
 129   0.0000       0.763280        20.7699 
 130   0.0000       0.784703        21.3528 
 131   0.0000       0.796219        21.6662 
 132   0.0000       0.802036        21.8245 
 133   0.0000       0.811557        22.0836 
 134   0.0000       0.833581        22.6829 
 135   0.0000       0.843171        22.9438 
 136   0.0000       0.853992        23.2383 
 137   0.0000       0.862634        23.4735 
 138   0.0000       0.887071        24.1384 
 139   0.0000       0.894327        24.3359 
 140   0.0000       0.912987        24.8436 
 141   0.0000       0.922355        25.0986 
 142   0.0000       0.939624        25.5685 
 143   0.0000       0.957099        26.0440 
 144   0.0000       0.976051        26.5597 
 145   0.0000       0.978031        26.6136 
 146   0.0000       0.994825        27.0706 
 147   0.0000       1.009827        27.4788 
 148   0.0000       1.016598        27.6630 
 149   0.0000       1.028127        27.9768 
 150   0.0000       1.032623        28.0991 
 151   0.0000       1.042930        28.3796 
 152   0.0000       1.048384        28.5280 
 153   0.0000       1.072352        29.1802 
 154   0.0000       1.074886        29.2491 
 155   0.0000       1.088054        29.6075 
 156   0.0000       1.109220        30.1834 
 157   0.0000       1.119865        30.4731 
 158   0.0000       1.135140        30.8887 
 159   0.0000       1.142297        31.0835 
 160   0.0000       1.154018        31.4024 
 161   0.0000       1.168280        31.7905 
 162   0.0000       1.178056        32.0565 
 163   0.0000       1.195351        32.5272 
 164   0.0000       1.209498        32.9121 
 165   0.0000       1.212889        33.0044 
 166   0.0000       1.228911        33.4404 
 167   0.0000       1.235698        33.6251 
 168   0.0000       1.256479        34.1905 
 169   0.0000       1.272599        34.6292 
 170   0.0000       1.290485        35.1159 
 171   0.0000       1.296784        35.2873 
 172   0.0000       1.316803        35.8320 
 173   0.0000       1.331388        36.2289 
 174   0.0000       1.339955        36.4620 
 175   0.0000       1.351524        36.7768 
 176   0.0000       1.356627        36.9157 
 177   0.0000       1.382060        37.6078 
 178   0.0000       1.392875        37.9021 
 179   0.0000       1.413968        38.4760 
 180   0.0000       1.429663        38.9031 
 181   0.0000       1.437518        39.1169 
 182   0.0000       1.459483        39.7146 
 183   0.0000       1.468175        39.9511 
 184   0.0000       1.491405        40.5832 
 185   0.0000       1.511274        41.1239 
 186   0.0000       1.523689        41.4617 
 187   0.0000       1.534793        41.7638 
 188   0.0000       1.565914        42.6107 
 189   0.0000       1.580263        43.0012 
 190   0.0000       1.592743        43.3407 
 191   0.0000       1.602241        43.5992 
 192   0.0000       1.624297        44.1994 
 193   0.0000       1.633027        44.4369 
 194   0.0000       1.645356        44.7724 
 195   0.0000       1.659493        45.1571 
 196   0.0000       1.667943        45.3870 
 197   0.0000       1.672313        45.5060 
 198   0.0000       1.674133        45.5555 
 199   0.0000       1.690457        45.9997 
 200   0.0000       1.711016        46.5591 
 201   0.0000       1.711787        46.5801 
 202   0.0000       1.718457        46.7616 
 203   0.0000       1.719237        46.7828 
 204   0.0000       1.757057        47.8119 
 205   0.0000       1.763720        47.9933 
 206   0.0000       1.772530        48.2330 
 207   0.0000       1.792667        48.7809 
 208   0.0000       1.795485        48.8576 
 209   0.0000       1.811909        49.3045 
 210   0.0000       1.817040        49.4442 
 211   0.0000       1.840709        50.0882 
 212   0.0000       1.852725        50.4152 
 213   0.0000       1.859738        50.6061 
 214   0.0000       1.877036        51.0767 
 215   0.0000       1.888892        51.3994 
 216   0.0000       1.908671        51.9376 
 217   0.0000       1.913401        52.0663 
 218   0.0000       1.934114        52.6299 
 219   0.0000       1.937863        52.7319 
 220   0.0000       1.948475        53.0207 
 221   0.0000       1.965927        53.4956 
 222   0.0000       1.973560        53.7033 
 223   0.0000       1.983055        53.9617 
 224   0.0000       2.001118        54.4532 
 225   0.0000       2.020885        54.9911 
 226   0.0000       2.032002        55.2936 
 227   0.0000       2.043868        55.6165 
 228   0.0000       2.058604        56.0175 
 229   0.0000       2.064195        56.1696 
 230   0.0000       2.089662        56.8626 
 231   0.0000       2.098608        57.1060 
 232   0.0000       2.107410        57.3455 
 233   0.0000       2.133195        58.0472 
 234   0.0000       2.146748        58.4160 
 235   0.0000       2.165818        58.9349 
 236   0.0000       2.181189        59.3532 
 237   0.0000       2.186760        59.5048 
 238   0.0000       2.191507        59.6339 
 239   0.0000       2.201043        59.8934 
 240   0.0000       2.210995        60.1642 
 241   0.0000       2.225940        60.5709 
 242   0.0000       2.237618        60.8887 
 243   0.0000       2.277760        61.9810 
 244   0.0000       2.293053        62.3971 
 245   0.0000       2.297297        62.5126 
 246   0.0000       2.324591        63.2553 
 247   0.0000       2.357184        64.1422 
 248   0.0000       2.364019        64.3282 
 249   0.0000       2.372431        64.5571 
 250   0.0000       2.391816        65.0846 
 251   0.0000       2.397228        65.2319 
 252   0.0000       2.428828        66.0918 
 253   0.0000       2.441998        66.4501 
 254   0.0000       2.466622        67.1202 
 255   0.0000       2.484316        67.6017 
 256   0.0000       2.496992        67.9466 
 257   0.0000       2.504192        68.1425 
 258   0.0000       2.510456        68.3130 
 259   0.0000       2.526077        68.7380 
 260   0.0000       2.529958        68.8437 
 261   0.0000       2.540986        69.1437 
 262   0.0000       2.567115        69.8547 
 263   0.0000       2.589711        70.4696 
 264   0.0000       2.601508        70.7906 
 265   0.0000       2.614441        71.1425 
 266   0.0000       2.620744        71.3141 
 267   0.0000       2.629207        71.5444 
 268   0.0000       2.643899        71.9442 
 269   0.0000       2.650185        72.1152 
 270   0.0000       2.661941        72.4351 
 271   0.0000       2.678513        72.8861 
 272   0.0000       2.689195        73.1767 
 273   0.0000       2.689790        73.1929 
 274   0.0000       2.704202        73.5851 
 275   0.0000       2.723616        74.1134 
 276   0.0000       2.726949        74.2041 
 277   0.0000       2.735266        74.4304 
 278   0.0000       2.737973        74.5040 
 279   0.0000       2.749486        74.8173 
 280   0.0000       2.763592        75.2012 
 281   0.0000       2.771192        75.4080 
 282   0.0000       2.779235        75.6268 
 283   0.0000       2.790876        75.9436 
 284   0.0000       2.806353        76.3647 
 285   0.0000       2.816357        76.6370 
 286   0.0000       2.829778        77.0022 
 287   0.0000       2.839029        77.2539 
 288   0.0000       2.847931        77.4961 
 289   0.0000       2.860557        77.8397 
 290   0.0000       2.871119        78.1271 
 291   0.0000       2.885882        78.5289 
 292   0.0000       2.897808        78.8534 
 293   0.0000       2.905265        79.0563 
 294   0.0000       2.916530        79.3628 
 295   0.0000       2.931723        79.7762 
 296   0.0000       2.952509        80.3418 
 297   0.0000       2.962030        80.6009 
 298   0.0000       2.994523        81.4851 
 299   0.0000       3.001571        81.6769 
 300   0.0000       3.002893        81.7129 
 301   0.0000       3.029676        82.4417 
 302   0.0000       3.032515        82.5189 
 303   0.0000       3.051299        83.0301 
 304   0.0000       3.058183        83.2174 
 305   0.0000       3.061449        83.3063 
 306   0.0000       3.083609        83.9093 
 307   0.0000       3.099367        84.3381 
 308   0.0000       3.109555        84.6153 
 309   0.0000       3.136371        85.3450 
 310   0.0000       3.146110        85.6100 
 311   0.0000       3.151073        85.7451 
 312   0.0000       3.176658        86.4412 
 313   0.0000       3.186147        86.6995 
 314   0.0000       3.194538        86.9278 
 315   0.0000       3.201654        87.1214 
 316   0.0000       3.214530        87.4718 
 317   0.0000       3.221402        87.6588 
 318   0.0000       3.235528        88.0432 
 319   0.0000       3.241341        88.2014 
 320   0.0000       3.253411        88.5298 
 321   0.0000       3.277685        89.1904 
 322   0.0000       3.284073        89.3642 
 323   0.0000       3.303030        89.8800 
 324   0.0000       3.312835        90.1468 
 325   0.0000       3.321982        90.3957 
 326   0.0000       3.339836        90.8816 
 327   0.0000       3.354177        91.2718 
 328   0.0000       3.354951        91.2929 
 329   0.0000       3.363418        91.5233 
 330   0.0000       3.375470        91.8512 
 331   0.0000       3.384864        92.1068 
 332   0.0000       3.397793        92.4587 
 333   0.0000       3.411317        92.8266 
 334   0.0000       3.426392        93.2369 
 335   0.0000       3.431895        93.3866 
 336   0.0000       3.436406        93.5093 
 337   0.0000       3.446752        93.7909 
 338   0.0000       3.456069        94.0444 
 339   0.0000       3.472657        94.4958 
 340   0.0000       3.483473        94.7901 
 341   0.0000       3.492336        95.0313 
 342   0.0000       3.503596        95.3377 
 343   0.0000       3.521564        95.8266 
 344   0.0000       3.528672        96.0200 
 345   0.0000       3.535887        96.2164 
 346   0.0000       3.542832        96.4053 
 347   0.0000       3.560461        96.8851 
 348   0.0000       3.566217        97.0417 
 349   0.0000       3.581298        97.4521 
 350   0.0000       3.590299        97.6970 
 351   0.0000       3.590980        97.7155 
 352   0.0000       3.616648        98.4140 
 353   0.0000       3.631170        98.8092 
 354   0.0000       3.642742        99.1240 
 355   0.0000       3.653026        99.4039 
 356   0.0000       3.664140        99.7063 
 357   0.0000       3.693061       100.4933 
 358   0.0000       3.709524       100.9413 
 359   0.0000       3.722665       101.2989 
 360   0.0000       3.747905       101.9857 
 361   0.0000       3.752979       102.1237 
 362   0.0000       3.775634       102.7402 
 363   0.0000       3.781752       102.9067 
 364   0.0000       3.809367       103.6582 
 365   0.0000       3.850137       104.7676 
 366   0.0000       3.860705       105.0551 
 367   0.0000       3.871288       105.3431 
 368   0.0000       3.894086       105.9635 
 369   0.0000       3.918987       106.6411 
 370   0.0000       3.937594       107.1474 
 371   0.0000       3.955461       107.6336 
 372   0.0000       3.967645       107.9651 
 373   0.0000       3.981556       108.3436 
 374   0.0000       4.004388       108.9650 
 375   0.0000       4.016410       109.2921 
 376   0.0000       4.028807       109.6294 
 377   0.0000       4.047928       110.1497 
 378   0.0000       4.059660       110.4690 
 379   0.0000       4.078203       110.9735 
 380   0.0000       4.094177       111.4082 
 381   0.0000       4.103782       111.6696 
 382   0.0000       4.123848       112.2156 
 383   0.0000       4.133718       112.4842 
 384   0.0000       4.144863       112.7875 
 385   0.0000       4.166330       113.3716 
 386   0.0000       4.197751       114.2266 
 387   0.0000       4.229171       115.0816 
 388   0.0000       4.254016       115.7577 
 389   0.0000       4.290834       116.7595 
 390   0.0000       4.305985       117.1718 
 391   0.0000       4.329318       117.8067 
 392   0.0000       4.356672       118.5511 
 393   0.0000       4.391184       119.4902 
 394   0.0000       4.412409       120.0677 
 395   0.0000       4.426453       120.4499 
 396   0.0000       4.452560       121.1603 
 397   0.0000       4.463923       121.4695 
 398   0.0000       4.507239       122.6482 
 399   0.0000       4.524307       123.1126 
 400   0.0000       4.569675       124.3472 
 401   0.0000       4.585562       124.7795 
 402   0.0000       4.602058       125.2284 
 403   0.0000       4.629645       125.9790 
 404   0.0000       4.670417       127.0885 
 405   0.0000       4.709408       128.1495 
 406   0.0000       4.725650       128.5915 
 407   0.0000       4.738463       128.9401 
 408   0.0000       4.760622       129.5431 
 409   0.0000       4.799638       130.6048 
 410   0.0000       4.813226       130.9745 
 411   0.0000       4.825738       131.3150 
 412   0.0000       4.849345       131.9574 
 413   0.0000       4.861624       132.2915 
 414   0.0000       4.910435       133.6197 
 415   0.0000       4.938671       134.3881 
 416   0.0000       4.962136       135.0266 
 417   0.0000       4.976013       135.4042 
 418   0.0000       5.022953       136.6815 
 419   0.0000       5.034628       136.9992 
 420   0.0000       5.051621       137.4616 
 421   0.0000       5.107546       138.9834 
 422   0.0000       5.158972       140.3828 
 423   0.0000       5.171536       140.7246 
 424   0.0000       5.199549       141.4869 
 425   0.0000       5.285103       143.8150 
 426   0.0000       5.294452       144.0694 
 427   0.0000       5.421045       147.5141 
 428   0.0000       5.448931       148.2730 
 429   0.0000       5.480823       149.1408 
 430   0.0000       5.550853       151.0464 
 431   0.0000       5.586815       152.0250 
 432   0.0000       5.629969       153.1992 
 433   0.0000       5.666876       154.2035 
 434   0.0000       5.892521       160.3437 
 435   0.0000       5.959574       162.1683 
 436   0.0000       6.123798       166.6370 
 437   0.0000       6.149659       167.3407 
 438   0.0000       6.239341       169.7811 
 439   0.0000       6.489805       176.5966 
 440   0.0000       6.667254       181.4252 
 441   0.0000       6.796975       184.9551 
 442   0.0000       6.845566       186.2773 
 443   0.0000       6.878566       187.1753 
 444   0.0000       6.915313       188.1752 
 445   0.0000       7.057264       192.0379 
 446   0.0000       7.102626       193.2723 
 447   0.0000       7.200435       195.9338 
 448   0.0000       7.374015       200.6571 
 449   0.0000       7.517659       204.5659 
 450   0.0000       7.858550       213.8420 
 451   0.0000       8.352350       227.2790 
 452   0.0000       8.419766       229.1135 
 453   0.0000       8.813962       239.8401 
 454   0.0000       8.956363       243.7150 
 455   0.0000       8.986372       244.5316 
 456   0.0000      22.342900       607.9812 
 457   0.0000      22.365195       608.5879 
 458   0.0000      22.423896       610.1852 
 459   0.0000      22.432368       610.4158 
 460   0.0000      22.479192       611.6899 
 461   0.0000      22.491085       612.0135 
 462   0.0000      22.581669       614.4785 
 463   0.0000      23.127353       629.3273 
 464   0.0000      23.205002       631.4402 
 465   0.0000      32.065308       872.5414 
 466   0.0000      43.648669      1187.7407 
 467   0.0000      57.002829      1551.1258 

                    ********************************
                    * MULLIKEN POPULATION ANALYSIS *
                    ********************************

-----------------------
MULLIKEN ATOMIC CHARGES
-----------------------
   0 C :   -0.343469
   1 C :   -0.202638
   2 C :   -0.346555
   3 H :    0.175186
   4 H :    0.172072
   5 C :    0.307792
   6 C :    0.147430
   7 N :   -0.365908
   8 C :   -0.432013
   9 H :    0.085133
  10 H :    0.089425
  11 H :    0.242270
  12 H :    0.209021
  13 O :   -0.311116
  14 F :   -0.044609
  15 C :   -0.222747
  16 C :   -0.266086
  17 H :    0.119613
  18 H :    0.138228
  19 C :   -0.309395
  20 H :    0.141253
  21 H :    0.130502
  22 H :    0.165318
  23 H :    0.134849
  24 H :    0.139747
  25 H :    0.141859
  26 H :    0.150076
  27 H :    0.154762
Sum of atomic charges:    0.0000000

--------------------------------
MULLIKEN REDUCED ORBITAL CHARGES
--------------------------------
  0 C s       :     3.346596  s :     3.346596
      pz      :     0.891103  p :     2.915617
      px      :     1.057327
      py      :     0.967187
      dz2     :     0.025097  d :     0.076252
      dxz     :     0.010516
      dyz     :     0.013625
      dx2y2   :     0.008549
      dxy     :     0.018466
      f0      :     0.001045  f :     0.005004
      f+1     :     0.000459
      f-1     :     0.001123
      f+2     :     0.000620
      f-2     :     0.000905
      f+3     :     0.000501
      f-3     :     0.000350
  1 C s       :     3.261877  s :     3.261877
      pz      :     0.860792  p :     2.850762
      px      :     0.992318
      py      :     0.997652
      dz2     :     0.023813  d :     0.084796
      dxz     :     0.014576
      dyz     :     0.016554
      dx2y2   :     0.019158
      dxy     :     0.010696
      f0      :     0.001024  f :     0.005203
      f+1     :     0.001163
      f-1     :     0.000794
      f+2     :     0.000609
      f-2     :     0.000475
      f+3     :     0.000342
      f-3     :     0.000796
  2 C s       :     3.297557  s :     3.297557
      pz      :     0.939531  p :     2.972821
      px      :     1.075036
      py      :     0.958254
      dz2     :     0.013261  d :     0.071364
      dxz     :     0.016909
      dyz     :     0.022288
      dx2y2   :     0.005067
      dxy     :     0.013839
      f0      :     0.001018  f :     0.004812
      f+1     :     0.000677
      f-1     :     0.001035
      f+2     :     0.000485
      f-2     :     0.000640
      f+3     :     0.000514
      f-3     :     0.000443
  3 H s       :     0.804497  s :     0.804497
      pz      :     0.003853  p :     0.020318
      px      :     0.007031
      py      :     0.009434
  4 H s       :     0.806882  s :     0.806882
      pz      :     0.006191  p :     0.021046
      px      :     0.009833
      py      :     0.005023
  5 C s       :     3.135540  s :     3.135540
      pz      :     0.728895  p :     2.238263
      px      :     0.695395
      py      :     0.813974
      dz2     :     0.051196  d :     0.289343
      dxz     :     0.026742
      dyz     :     0.075939
      dx2y2   :     0.058349
      dxy     :     0.077118
      f0      :     0.003232  f :     0.029062
      f+1     :     0.004054
      f-1     :     0.003149
      f+2     :     0.004975
      f-2     :     0.004332
      f+3     :     0.004455
      f-3     :     0.004865
  6 C s       :     3.194687  s :     3.194687
      pz      :     0.762065  p :     2.477707
      px      :     0.871991
      py      :     0.843651
      dz2     :     0.026043  d :     0.166215
      dxz     :     0.042978
      dyz     :     0.033560
      dx2y2   :     0.020936
      dxy     :     0.042698
      f0      :     0.003023  f :     0.013962
      f+1     :     0.002063
      f-1     :     0.002009
      f+2     :     0.002313
      f-2     :     0.002365
      f+3     :     0.001144
      f-3     :     0.001045
  7 N s       :     3.422364  s :     3.422364
      pz      :     1.104882  p :     3.911449
      px      :     1.165437
      py      :     1.641130
      dz2     :     0.008918  d :     0.029232
      dxz     :     0.001166
      dyz     :     0.007990
      dx2y2   :     0.006780
      dxy     :     0.004377
      f0      :     0.000552  f :     0.002864
      f+1     :     0.000397
      f-1     :     0.000540
      f+2     :     0.000322
      f-2     :     0.000322
      f+3     :     0.000503
      f-3     :     0.000227
  8 C s       :     3.259745  s :     3.259745
      pz      :     1.041721  p :     3.141303
      px      :     0.900206
      py      :     1.199376
      dz2     :    -0.000061  d :     0.026387
      dxz     :     0.010255
      dyz     :     0.002433
      dx2y2   :     0.004906
      dxy     :     0.008853
      f0      :     0.000513  f :     0.004579
      f+1     :     0.000783
      f-1     :     0.000226
      f+2     :     0.000821
      f-2     :     0.000347
      f+3     :     0.000978
      f-3     :     0.000910
  9 H s       :     0.890752  s :     0.890752
      pz      :     0.009294  p :     0.024115
      px      :     0.007224
      py      :     0.007597
 10 H s       :     0.887092  s :     0.887092
      pz      :     0.009559  p :     0.023483
      px      :     0.005780
      py      :     0.008144
 11 H s       :     0.703418  s :     0.703418
      pz      :     0.005953  p :     0.054312
      px      :     0.035281
      py      :     0.013078
 12 H s       :     0.754416  s :     0.754416
      pz      :     0.017443  p :     0.036564
      px      :     0.006595
      py      :     0.012526
 13 O s       :     3.825236  s :     3.825236
      pz      :     1.571751  p :     4.456977
      px      :     1.555385
      py      :     1.329841
      dz2     :     0.003386  d :     0.027457
      dxz     :     0.001186
      dyz     :     0.007153
      dx2y2   :     0.007031
      dxy     :     0.008701
      f0      :     0.000183  f :     0.001446
      f+1     :     0.000056
      f-1     :     0.000242
      f+2     :     0.000216
      f-2     :     0.000111
      f+3     :     0.000338
      f-3     :     0.000300
 14 F s       :     3.879170  s :     3.879170
      pz      :     1.657232  p :     5.146404
      px      :     1.628369
      py      :     1.860803
      dz2     :     0.003931  d :     0.018149
      dxz     :     0.005470
      dyz     :     0.002620
      dx2y2   :     0.003115
      dxy     :     0.003013
      f0      :     0.000095  f :     0.000886
      f+1     :     0.000203
      f-1     :     0.000060
      f+2     :     0.000182
      f-2     :     0.000182
      f+3     :     0.000082
      f-3     :     0.000082
 15 C s       :     3.266665  s :     3.266665
      pz      :     0.975306  p :     2.865079
      px      :     1.006917
      py      :     0.882855
      dz2     :     0.022650  d :     0.085802
      dxz     :     0.008284
      dyz     :     0.016691
      dx2y2   :     0.021830
      dxy     :     0.016347
      f0      :     0.000455  f :     0.005200
      f+1     :     0.000338
      f-1     :     0.001339
      f+2     :     0.000359
      f-2     :     0.000986
      f+3     :     0.000667
      f-3     :     0.001056
 16 C s       :     3.278239  s :     3.278239
      pz      :     1.047668  p :     2.900978
      px      :     0.866552
      py      :     0.986759
      dz2     :     0.011267  d :     0.081752
      dxz     :     0.014614
      dyz     :     0.014887
      dx2y2   :     0.024250
      dxy     :     0.016734
      f0      :     0.000804  f :     0.005117
      f+1     :     0.000350
      f-1     :     0.000547
      f+2     :     0.000690
      f-2     :     0.000380
      f+3     :     0.001100
      f-3     :     0.001247
 17 H s       :     0.860443  s :     0.860443
      pz      :     0.010688  p :     0.019944
      px      :     0.004503
      py      :     0.004754
 18 H s       :     0.841313  s :     0.841313
      pz      :     0.004214  p :     0.020459
      px      :     0.011628
      py      :     0.004617
 19 C s       :     3.309853  s :     3.309853
      pz      :     1.046922  p :     2.912319
      px      :     0.862539
      py      :     1.002857
      dz2     :     0.017111  d :     0.082175
      dxz     :     0.016934
      dyz     :     0.006808
      dx2y2   :     0.023789
      dxy     :     0.017533
      f0      :     0.000906  f :     0.005048
      f+1     :     0.000640
      f-1     :     0.000344
      f+2     :     0.000749
      f-2     :     0.000276
      f+3     :     0.001023
      f-3     :     0.001109
 20 H s       :     0.837900  s :     0.837900
      pz      :     0.011265  p :     0.020847
      px      :     0.004742
      py      :     0.004840
 21 H s       :     0.849514  s :     0.849514
      pz      :     0.006315  p :     0.019984
      px      :     0.004274
      py      :     0.009394
 22 H s       :     0.813230  s :     0.813230
      pz      :     0.005547  p :     0.021452
      px      :     0.004193
      py      :     0.011712
 23 H s       :     0.845215  s :     0.845215
      pz      :     0.011620  p :     0.019936
      px      :     0.004241
      py      :     0.004075
 24 H s       :     0.840270  s :     0.840270
      pz      :     0.006121  p :     0.019984
      px      :     0.004311
      py      :     0.009552
 25 H s       :     0.837958  s :     0.837958
      pz      :     0.003660  p :     0.020183
      px      :     0.010829
      py      :     0.005694
 26 H s       :     0.828692  s :     0.828692
      pz      :     0.004124  p :     0.021232
      px      :     0.011625
      py      :     0.005484
 27 H s       :     0.825022  s :     0.825022
      pz      :     0.004919  p :     0.020216
      px      :     0.006481
      py      :     0.008817


                     *******************************
                     * LOEWDIN POPULATION ANALYSIS *
                     *******************************

----------------------
LOEWDIN ATOMIC CHARGES
----------------------
   0 C :   -0.221082
   1 C :   -0.263930
   2 C :   -0.246448
   3 H :    0.154741
   4 H :    0.164913
   5 C :   -0.511251
   6 C :   -0.388532
   7 N :    0.024766
   8 C :   -0.305506
   9 H :    0.103819
  10 H :    0.095999
  11 H :    0.140512
  12 H :    0.164158
  13 O :    0.074554
  14 F :    0.373016
  15 C :   -0.261524
  16 C :   -0.268543
  17 H :    0.140547
  18 H :    0.143124
  19 C :   -0.278380
  20 H :    0.143549
  21 H :    0.140457
  22 H :    0.144688
  23 H :    0.142933
  24 H :    0.146240
  25 H :    0.148488
  26 H :    0.142139
  27 H :    0.156554

-------------------------------
LOEWDIN REDUCED ORBITAL CHARGES
-------------------------------
  0 C s       :     2.758329  s :     2.758329
      pz      :     1.008116  p :     3.055658
      px      :     1.025318
      py      :     1.022225
      dz2     :     0.097338  d :     0.369096
      dxz     :     0.058622
      dyz     :     0.088627
      dx2y2   :     0.052204
      dxy     :     0.072305
      f0      :     0.007619  f :     0.037999
      f+1     :     0.005518
      f-1     :     0.006865
      f+2     :     0.004603
      f-2     :     0.006663
      f+3     :     0.003700
      f-3     :     0.003031
  1 C s       :     2.770961  s :     2.770961
      pz      :     0.996477  p :     3.073331
      px      :     1.035417
      py      :     1.041438
      dz2     :     0.097686  d :     0.382226
      dxz     :     0.063346
      dyz     :     0.089177
      dx2y2   :     0.074169
      dxy     :     0.057847
      f0      :     0.006188  f :     0.037412
      f+1     :     0.008170
      f-1     :     0.005311
      f+2     :     0.006050
      f-2     :     0.003857
      f+3     :     0.002774
      f-3     :     0.005062
  2 C s       :     2.779563  s :     2.779563
      pz      :     1.026524  p :     3.080612
      px      :     1.041752
      py      :     1.012336
      dz2     :     0.078308  d :     0.351233
      dxz     :     0.080877
      dyz     :     0.085796
      dx2y2   :     0.033029
      dxy     :     0.073224
      f0      :     0.006316  f :     0.035039
      f+1     :     0.004737
      f-1     :     0.006607
      f+2     :     0.006035
      f-2     :     0.004519
      f+3     :     0.003655
      f-3     :     0.003171
  3 H s       :     0.786033  s :     0.786033
      pz      :     0.012446  p :     0.059227
      px      :     0.021363
      py      :     0.025418
  4 H s       :     0.775724  s :     0.775724
      pz      :     0.017662  p :     0.059363
      px      :     0.027074
      py      :     0.014628
  5 C s       :     2.783741  s :     2.783741
      pz      :     0.795500  p :     2.602726
      px      :     0.794096
      py      :     1.013129
      dz2     :     0.148755  d :     0.948857
      dxz     :     0.135325
      dyz     :     0.230823
      dx2y2   :     0.207416
      dxy     :     0.226538
      f0      :     0.021669  f :     0.175928
      f+1     :     0.022705
      f-1     :     0.018983
      f+2     :     0.028892
      f-2     :     0.026869
      f+3     :     0.027179
      f-3     :     0.029630
  6 C s       :     2.708079  s :     2.708079
      pz      :     0.969940  p :     2.861831
      px      :     1.065561
      py      :     0.826331
      dz2     :     0.153484  d :     0.724690
      dxz     :     0.203006
      dyz     :     0.120554
      dx2y2   :     0.098514
      dxy     :     0.149132
      f0      :     0.022280  f :     0.093931
      f+1     :     0.014218
      f-1     :     0.012853
      f+2     :     0.015614
      f-2     :     0.016605
      f+3     :     0.006570
      f-3     :     0.005791
  7 N s       :     2.954117  s :     2.954117
      pz      :     1.181512  p :     3.842924
      px      :     1.180988
      py      :     1.480424
      dz2     :     0.060334  d :     0.164987
      dxz     :     0.032976
      dyz     :     0.028516
      dx2y2   :     0.029304
      dxy     :     0.013857
      f0      :     0.002905  f :     0.013206
      f+1     :     0.002577
      f-1     :     0.001678
      f+2     :     0.001749
      f-2     :     0.002410
      f+3     :     0.001388
      f-3     :     0.000499
  8 C s       :     2.797569  s :     2.797569
      pz      :     1.033599  p :     3.254568
      px      :     1.081280
      py      :     1.139689
      dz2     :     0.032389  d :     0.224433
      dxz     :     0.105912
      dyz     :     0.017860
      dx2y2   :     0.036902
      dxy     :     0.031371
      f0      :     0.004600  f :     0.028937
      f+1     :     0.005245
      f-1     :     0.001666
      f+2     :     0.004436
      f-2     :     0.002235
      f+3     :     0.005370
      f-3     :     0.005384
  9 H s       :     0.821787  s :     0.821787
      pz      :     0.030065  p :     0.074393
      px      :     0.020615
      py      :     0.023713
 10 H s       :     0.828765  s :     0.828765
      pz      :     0.030838  p :     0.075235
      px      :     0.018722
      py      :     0.025676
 11 H s       :     0.702316  s :     0.702316
      pz      :     0.018498  p :     0.157172
      px      :     0.101642
      py      :     0.037032
 12 H s       :     0.731121  s :     0.731121
      pz      :     0.043631  p :     0.104721
      px      :     0.022884
      py      :     0.038205
 13 O s       :     3.425831  s :     3.425831
      pz      :     1.485191  p :     4.432300
      px      :     1.471476
      py      :     1.475633
      dz2     :     0.009245  d :     0.062262
      dxz     :     0.002330
      dyz     :     0.012532
      dx2y2   :     0.020771
      dxy     :     0.017383
      f0      :     0.000541  f :     0.005053
      f+1     :     0.000142
      f-1     :     0.000831
      f+2     :     0.000623
      f-2     :     0.000442
      f+3     :     0.001200
      f-3     :     0.001274
 14 F s       :     3.522975  s :     3.522975
      pz      :     1.653976  p :     5.062817
      px      :     1.640562
      py      :     1.768278
      dz2     :     0.006719  d :     0.038998
      dxz     :     0.013339
      dyz     :     0.005938
      dx2y2   :     0.006250
      dxy     :     0.006752
      f0      :     0.000197  f :     0.002194
      f+1     :     0.000470
      f-1     :     0.000147
      f+2     :     0.000466
      f-2     :     0.000503
      f+3     :     0.000200
      f-3     :     0.000211
 15 C s       :     2.771311  s :     2.771311
      pz      :     1.017389  p :     3.065926
      px      :     1.029229
      py      :     1.019307
      dz2     :     0.091757  d :     0.387046
      dxz     :     0.037898
      dyz     :     0.084366
      dx2y2   :     0.091452
      dxy     :     0.081574
      f0      :     0.003396  f :     0.037241
      f+1     :     0.004102
      f-1     :     0.007178
      f+2     :     0.003907
      f-2     :     0.006691
      f+3     :     0.004992
      f-3     :     0.006973
 16 C s       :     2.766020  s :     2.766020
      pz      :     1.025434  p :     3.073410
      px      :     1.017921
      py      :     1.030055
      dz2     :     0.067049  d :     0.390653
      dxz     :     0.063719
      dyz     :     0.069435
      dx2y2   :     0.103398
      dxy     :     0.087052
      f0      :     0.004883  f :     0.038460
      f+1     :     0.003994
      f-1     :     0.002830
      f+2     :     0.006616
      f-2     :     0.004859
      f+3     :     0.006824
      f-3     :     0.008455
 17 H s       :     0.802004  s :     0.802004
      pz      :     0.027836  p :     0.057449
      px      :     0.014801
      py      :     0.014812
 18 H s       :     0.799033  s :     0.799033
      pz      :     0.012755  p :     0.057843
      px      :     0.030550
      py      :     0.014538
 19 C s       :     2.767235  s :     2.767235
      pz      :     1.029627  p :     3.084476
      px      :     1.016343
      py      :     1.038507
      dz2     :     0.084073  d :     0.388750
      dxz     :     0.076719
      dyz     :     0.037122
      dx2y2   :     0.110069
      dxy     :     0.080767
      f0      :     0.004982  f :     0.037918
      f+1     :     0.004879
      f-1     :     0.002514
      f+2     :     0.007087
      f-2     :     0.004913
      f+3     :     0.006179
      f-3     :     0.007364
 20 H s       :     0.798125  s :     0.798125
      pz      :     0.029971  p :     0.058326
      px      :     0.014039
      py      :     0.014316
 21 H s       :     0.802051  s :     0.802051
      pz      :     0.019378  p :     0.057492
      px      :     0.013492
      py      :     0.024622
 22 H s       :     0.794020  s :     0.794020
      pz      :     0.017188  p :     0.061292
      px      :     0.013257
      py      :     0.030848
 23 H s       :     0.799805  s :     0.799805
      pz      :     0.030481  p :     0.057262
      px      :     0.013441
      py      :     0.013339
 24 H s       :     0.796205  s :     0.796205
      pz      :     0.017078  p :     0.057555
      px      :     0.013585
      py      :     0.026892
 25 H s       :     0.793550  s :     0.793550
      pz      :     0.011927  p :     0.057963
      px      :     0.028264
      py      :     0.017772
 26 H s       :     0.798883  s :     0.798883
      pz      :     0.012815  p :     0.058979
      px      :     0.030475
      py      :     0.015689
 27 H s       :     0.785887  s :     0.785887
      pz      :     0.014982  p :     0.057559
      px      :     0.019348
      py      :     0.023229


                      *****************************
                      * MAYER POPULATION ANALYSIS *
                      *****************************

  NA   - Mulliken gross atomic population
  ZA   - Total nuclear charge
  QA   - Mulliken gross atomic charge
  VA   - Mayer's total valence
  BVA  - Mayer's bonded valence
  FA   - Mayer's free valence

  ATOM       NA         ZA         QA         VA         BVA        FA
  0 C      6.3435     6.0000    -0.3435     3.7651     3.7651    -0.0000
  1 C      6.2026     6.0000    -0.2026     3.7383     3.7383     0.0000
  2 C      6.3466     6.0000    -0.3466     3.7410     3.7410    -0.0000
  3 H      0.8248     1.0000     0.1752     0.9523     0.9523    -0.0000
  4 H      0.8279     1.0000     0.1721     0.9596     0.9596    -0.0000
  5 C      5.6922     6.0000     0.3078     4.2331     4.2331     0.0000
  6 C      5.8526     6.0000     0.1474     3.7468     3.7468    -0.0000
  7 N      7.3659     7.0000    -0.3659     3.1104     3.1104     0.0000
  8 C      6.4320     6.0000    -0.4320     3.8038     3.8038    -0.0000
  9 H      0.9149     1.0000     0.0851     1.0044     1.0044     0.0000
 10 H      0.9106     1.0000     0.0894     0.9921     0.9921     0.0000
 11 H      0.7577     1.0000     0.2423     1.0219     1.0219     0.0000
 12 H      0.7910     1.0000     0.2090     0.9682     0.9682     0.0000
 13 O      8.3111     8.0000    -0.3111     2.1130     2.1130    -0.0000
 14 F      9.0446     9.0000    -0.0446     1.2809     1.2809    -0.0000
 15 C      6.2227     6.0000    -0.2227     3.7935     3.7935    -0.0000
 16 C      6.2661     6.0000    -0.2661     3.7076     3.7076     0.0000
 17 H      0.8804     1.0000     0.1196     0.9650     0.9650     0.0000
 18 H      0.8618     1.0000     0.1382     0.9667     0.9667    -0.0000
 19 C      6.3094     6.0000    -0.3094     3.6688     3.6688    -0.0000
 20 H      0.8587     1.0000     0.1413     0.9644     0.9644     0.0000
 21 H      0.8695     1.0000     0.1305     0.9651     0.9651     0.0000
 22 H      0.8347     1.0000     0.1653     0.9690     0.9690    -0.0000
 23 H      0.8652     1.0000     0.1348     0.9686     0.9686     0.0000
 24 H      0.8603     1.0000     0.1397     0.9598     0.9598     0.0000
 25 H      0.8581     1.0000     0.1419     0.9644     0.9644     0.0000
 26 H      0.8499     1.0000     0.1501     0.9705     0.9705     0.0000
 27 H      0.8452     1.0000     0.1548     0.9679     0.9679    -0.0000

  Mayer bond orders larger than 0.100000
B(  0-C ,  6-C ) :   0.8666 B(  0-C , 15-C ) :   0.9115 B(  0-C , 26-H ) :   1.0205 
B(  0-C , 27-H ) :   0.9839 B(  1-C ,  2-C ) :   0.9064 B(  1-C , 19-C ) :   0.9211 
B(  1-C , 24-H ) :   0.9783 B(  1-C , 25-H ) :   0.9790 B(  2-C ,  3-H ) :   0.9586 
B(  2-C ,  4-H ) :   0.9450 B(  2-C ,  5-C ) :   0.9691 B(  5-C , 13-O ) :   1.9635 
B(  5-C , 14-F ) :   1.2302 B(  6-C ,  7-N ) :   1.2288 B(  6-C ,  8-C ) :   1.7116 
B(  7-N , 11-H ) :   0.8712 B(  7-N , 12-H ) :   0.9372 B(  8-C ,  9-H ) :   0.9979 
B(  8-C , 10-H ) :   0.9954 B( 11-H , 13-O ) :   0.1199 B( 15-C , 16-C ) :   0.9446 
B( 15-C , 17-H ) :   0.9807 B( 15-C , 18-H ) :   0.9796 B( 16-C , 19-C ) :   0.8757 
B( 16-C , 20-H ) :   0.9715 B( 16-C , 21-H ) :   0.9785 B( 19-C , 22-H ) :   0.9873 
B( 19-C , 23-H ) :   0.9761 

-------
TIMINGS
-------

Total SCF time: 0 days 0 hours 0 min 43 sec 

Total time                  ....      43.334 sec
Sum of individual times     ....      42.425 sec  ( 97.9%)

Fock matrix formation       ....      39.185 sec  ( 90.4%)
  Split-RI-J                ....       3.047 sec  (  7.8% of F)
  Chain of spheres X        ....      31.178 sec  ( 79.6% of F)
  XC integration            ....       4.133 sec  ( 10.5% of F)
    Basis function eval.    ....       0.956 sec  ( 23.1% of XC)
    Density eval.           ....       1.101 sec  ( 26.6% of XC)
    XC-Functional eval.     ....       0.152 sec  (  3.7% of XC)
    XC-Potential eval.      ....       1.053 sec  ( 25.5% of XC)
Diagonalization             ....       0.532 sec  (  1.2%)
Density matrix formation    ....       0.039 sec  (  0.1%)
Population analysis         ....       0.066 sec  (  0.2%)
Initial guess               ....       0.466 sec  (  1.1%)
Orbital Transformation      ....       0.000 sec  (  0.0%)
Orbital Orthonormalization  ....       0.000 sec  (  0.0%)
DIIS solution               ....       0.316 sec  (  0.7%)
SOSCF solution              ....       0.356 sec  (  0.8%)
Grid generation             ....       1.463 sec  (  3.4%)

Maximum memory used throughout the entire SCF-calculation: 73.0 MB

-------------------------   --------------------
FINAL SINGLE POINT ENERGY      -581.171907635631
-------------------------   --------------------


                            ***************************************
                            *     ORCA property calculations      *
                            ***************************************

                                    ---------------------
                                    Active property flags
                                    ---------------------
   (+) Dipole Moment


------------------------------------------------------------------------------
                       ORCA ELECTRIC PROPERTIES CALCULATION
------------------------------------------------------------------------------

Dipole Moment Calculation                       ... on
Quadrupole Moment Calculation                   ... off
Polarizability Calculation                      ... off
GBWName                                         ... LC_BLYP_D4_wb97.gbw
Electron density file                           ... LC_BLYP_D4_wb97.scfp
The origin for moment calculation is the CENTER OF MASS  = ( 2.479073, -2.087121 -6.913875)

-------------
DIPOLE MOMENT
-------------
                                X             Y             Z
Electronic contribution:     -3.45303       0.81180     -12.74527
Nuclear contribution   :      2.21030       0.63135      12.80988
                        -----------------------------------------
Total Dipole Moment    :     -1.24273       1.44315       0.06462
                        -----------------------------------------
Magnitude (a.u.)       :      1.90558
Magnitude (Debye)      :      4.84361



--------------------
Rotational spectrum 
--------------------
 
Rotational constants in cm-1:     0.039980     0.026547     0.019089 
Rotational constants in MHz :  1198.568620   795.867393   572.288555 

 Dipole components along the rotational axes: 
x,y,z [a.u.] :    -1.804322     0.227681     0.569062 
x,y,z [Debye]:    -4.586221     0.578720     1.446441 

 

Timings for individual modules:

Sum of individual times         ...       44.899 sec (=   0.748 min)
GTO integral calculation        ...        1.102 sec (=   0.018 min)   2.5 %
SCF iterations                  ...       43.798 sec (=   0.730 min)  97.5 %
                             ****ORCA TERMINATED NORMALLY****
TOTAL RUN TIME: 0 days 0 hours 0 minutes 45 seconds 548 msec
