
                                        *****************
                                        * O   R   C   A *
                                        *****************

                                            #,                                       
                                            ###                                      
                                            ####                                     
                                            #####                                    
                                            ######                                   
                                           ########,                                 
                                     ,,################,,,,,                         
                               ,,#################################,,                 
                          ,,##########################################,,             
                       ,#########################################, ''#####,          
                    ,#############################################,,   '####,        
                  ,##################################################,,,,####,       
                ,###########''''           ''''###############################       
              ,#####''   ,,,,##########,,,,          '''####'''          '####       
            ,##' ,,,,###########################,,,                        '##       
           ' ,,###''''                  '''############,,,                           
         ,,##''                                '''############,,,,        ,,,,,,###''
      ,#''                                            '''#######################'''  
     '                                                          ''''####''''         
             ,#######,   #######,   ,#######,      ##                                
            ,#'     '#,  ##    ##  ,#'     '#,    #''#        ######   ,####,        
            ##       ##  ##   ,#'  ##            #'  '#       #        #'  '#        
            ##       ##  #######   ##           ,######,      #####,   #    #        
            '#,     ,#'  ##    ##  '#,     ,#' ,#      #,         ##   #,  ,#        
             '#######'   ##     ##  '#######'  #'      '#     #####' # '####'        



                  #######################################################
                  #                        -***-                        #
                  #          Department of theory and spectroscopy      #
                  #    Directorship and core code : Frank Neese         #
                  #        Max Planck Institute fuer Kohlenforschung    #
                  #                Kaiser Wilhelm Platz 1               #
                  #                 D-45470 Muelheim/Ruhr               #
                  #                      Germany                        #
                  #                                                     #
                  #                  All rights reserved                #
                  #                        -***-                        #
                  #######################################################


                         Program Version 5.0.0 -  RELEASE  -
                                (SVN: $Rev: 19529$)
                ($Date: 2021-06-28 11:36:33 +0200 (Mo, 28 Jun 2021) $)


 With contributions from (in alphabetic order):
   Daniel Aravena         : Magnetic Suceptibility
   Michael Atanasov       : Ab Initio Ligand Field Theory (pilot matlab implementation)
   Alexander A. Auer      : GIAO ZORA, VPT2 properties, NMR spectrum
   Ute Becker             : Parallelization
   Giovanni Bistoni       : ED, misc. LED, open-shell LED, HFLD
   Martin Brehm           : Molecular dynamics
   Dmytro Bykov           : SCF Hessian
   Vijay G. Chilkuri      : MRCI spin determinant printing, contributions to CSF-ICE
   Dipayan Datta          : RHF DLPNO-CCSD density
   Achintya Kumar Dutta   : EOM-CC, STEOM-CC
   Dmitry Ganyushin       : Spin-Orbit,Spin-Spin,Magnetic field MRCI
   Miquel Garcia          : C-PCM Hessian, Gaussian charge scheme
   Yang Guo               : DLPNO-NEVPT2, F12-NEVPT2, CIM, IAO-localization
   Andreas Hansen         : Spin unrestricted coupled pair/coupled cluster methods
   Benjamin Helmich-Paris : MC-RPA, TRAH-SCF, COSX integrals
   Lee Huntington         : MR-EOM, pCC
   Robert Izsak           : Overlap fitted RIJCOSX, COSX-SCS-MP3, EOM
   Marcus Kettner         : VPT2
   Christian Kollmar      : KDIIS, OOCD, Brueckner-CCSD(T), CCSD density, CASPT2, CASPT2-K
   Simone Kossmann        : Meta GGA functionals, TD-DFT gradient, OOMP2, MP2 Hessian
   Martin Krupicka        : Initial AUTO-CI
   Lucas Lang             : DCDCAS
   Marvin Lechner         : AUTO-CI (C++ implementation), FIC-MRCC
   Dagmar Lenk            : GEPOL surface, SMD
   Dimitrios Liakos       : Extrapolation schemes; Compound Job, initial MDCI parallelization
   Dimitrios Manganas     : Further ROCIS development; embedding schemes
   Dimitrios Pantazis     : SARC Basis sets
   Anastasios Papadopoulos: AUTO-CI, single reference methods and gradients
   Taras Petrenko         : DFT Hessian,TD-DFT gradient, ASA, ECA, R-Raman, ABS, FL, XAS/XES, NRVS
   Peter Pinski           : DLPNO-MP2, DLPNO-MP2 Gradient
   Christoph Reimann      : Effective Core Potentials
   Marius Retegan         : Local ZFS, SOC
   Christoph Riplinger    : Optimizer, TS searches, QM/MM, DLPNO-CCSD(T), (RO)-DLPNO pert. Triples
   Tobias Risthaus        : Range-separated hybrids, TD-DFT gradient, RPA, STAB
   Michael Roemelt        : Original ROCIS implementation
   Masaaki Saitow         : Open-shell DLPNO-CCSD energy and density
   Barbara Sandhoefer     : DKH picture change effects
   Avijit Sen             : IP-ROCIS
   Kantharuban Sivalingam : CASSCF convergence, NEVPT2, FIC-MRCI
   Bernardo de Souza      : ESD, SOC TD-DFT
   Georgi Stoychev        : AutoAux, RI-MP2 NMR
   Willem Van den Heuvel  : Paramagnetic NMR
   Boris Wezisla          : Elementary symmetry handling
   Frank Wennmohs         : Technical directorship


 We gratefully acknowledge several colleagues who have allowed us to
 interface, adapt or use parts of their codes:
   Stefan Grimme, W. Hujo, H. Kruse, P. Pracht,  : VdW corrections, initial TS optimization,
                  C. Bannwarth, S. Ehlert          DFT functionals, gCP, sTDA/sTD-DF
   Ed Valeev, F. Pavosevic, A. Kumar             : LibInt (2-el integral package), F12 methods
   Garnet Chan, S. Sharma, J. Yang, R. Olivares  : DMRG
   Ulf Ekstrom                                   : XCFun DFT Library
   Mihaly Kallay                                 : mrcc  (arbitrary order and MRCC methods)
   Jiri Pittner, Ondrej Demel                    : Mk-CCSD
   Frank Weinhold                                : gennbo (NPA and NBO analysis)
   Christopher J. Cramer and Donald G. Truhlar   : smd solvation model
   Lars Goerigk                                  : TD-DFT with DH, B97 family of functionals
   V. Asgeirsson, H. Jonsson                     : NEB implementation
   FAccTs GmbH                                   : IRC, NEB, NEB-TS, DLPNO-Multilevel, CI-OPT
                                                   MM, QMMM, 2- and 3-layer-ONIOM, Crystal-QMMM,
                                                   LR-CPCM, SF, NACMEs, symmetry and pop. for TD-DFT,
                                                   nearIR, NL-DFT gradient (VV10), updates on ESD,
                                                   ML-optimized integration grids
   S Lehtola, MJT Oliveira, MAL Marques          : LibXC Library
   Liviu Ungur et al                             : ANISO software


 Your calculation uses the libint2 library for the computation of 2-el integrals
 For citations please refer to: http://libint.valeyev.net

 Your ORCA version has been built with support for libXC version: 5.1.0
 For citations please refer to: https://tddft.org/programs/libxc/

 This ORCA versions uses:
   CBLAS   interface :  Fast vector & matrix operations
   LAPACKE interface :  Fast linear algebra routines
   SCALAPACK package :  Parallel linear algebra routines
   Shared memory     :  Shared parallel matrices
   BLAS/LAPACK       :  OpenBLAS 0.3.15  USE64BITINT DYNAMIC_ARCH NO_AFFINITY Haswell SINGLE_THREADED
        Core in use  :  Haswell
   Copyright (c) 2011-2014, The OpenBLAS Project




***************************************
The coordinates will be read from file: D5.xyz
***************************************


================================================================================

----- Orbital basis set information -----
Your calculation utilizes the basis: aug-cc-pVTZ 
    H, B-Ne : Obtained from the ccRepo (grant-hill.group.shef.ac.uk/ccrepo) Feb. 2017
              R. A. Kendall, T. H. Dunning, Jr., R. J. Harrison, J. Chem. Phys. 96, 6796 (1992)
         He : Obtained from the ccRepo (grant-hill.group.shef.ac.uk/ccrepo) Feb. 2017
              D. E. Woon, T. H. Dunning, Jr., J. Chem. Phys. 100, 2975 (1994)
  Li-Be, Na : Obtained from the ccRepo (grant-hill.group.shef.ac.uk/ccrepo) Feb. 2017
              B. P. Prascher, D. E. Woon, K. A. Peterson, T. H. Dunning, Jr., A. K. Wilson, Theor. Chem. Acc. 128, 69 (2011)
         Mg : Obtained from the Peterson Research Group Website (tyr0.chem.wsu.edu/~kipeters) Feb. 2017
              B. P. Prascher, D. E. Woon, K. A. Peterson, T. H. Dunning, Jr., A. K. Wilson, Theor. Chem. Acc. 128, 69 (2011)
      Al-Ar : Obtained from the ccRepo (grant-hill.group.shef.ac.uk/ccrepo) Feb. 2017
              D. E. Woon, T. H. Dunning, Jr., J. Chem. Phys. 98, 1358 (1993)
      Sc-Zn : Obtained from the ccRepo (grant-hill.group.shef.ac.uk/ccrepo) Feb. 2017
              N. B. Balabanov, K. A. Peterson, J. Chem. Phys. 123, 064107 (2005)
              N. B. Balabanov, K. A. Peterson, J. Chem. Phys. 125, 074110 (2006)
      Ga-Kr : Obtained from the ccRepo (grant-hill.group.shef.ac.uk/ccrepo) Feb. 2017
              A. K. Wilson, D. E. Woon, K. A. Peterson, T. H. Dunning, Jr., J. Chem. Phys. 110, 7667 (1999)
     Ag, Au : Obtained from the Peterson Research Group Website (tyr0.chem.wsu.edu/~kipeters) Feb. 2017
              K. A. Peterson, C. Puzzarini, Theor. Chem. Acc. 114, 283 (2005)

----- AuxJ basis set information -----
Your calculation utilizes the auxiliary basis: def2/J
   F. Weigend, Phys. Chem. Chem. Phys. 8, 1057 (2006).

----- AuxC basis set information -----
Your calculation utilizes the auxiliary basis: aug-cc-pVTZ/C 
  H-He, B-F, Al-Ar, Ga-Kr : Obtained from the EMSL Basis Set Exchange (bse.pnl.gov) Feb. 2017
                            F. Weigend, A. Kohn, C. Hattig, J. Chem. Phys. 116, 3175 (2002)
                   Be, Mg : Obtained from the TURBOMOLE 7.0 basis set library
                            C. Haettig, Phys. Chem. Chem. Phys. 7, 59 (2005)
                       Ne : Obtained from the EMSL Basis Set Exchange (bse.pnl.gov) Feb. 2017
                            C. Haettig, Phys. Chem. Chem. Phys. 7, 59 (2005)
                            F. Weigend, A. Kohn, C. Hattig, J. Chem. Phys. 116, 3175 (2002)
                    Sc-Zn : Obtained from the EMSL Basis Set Exchange (bse.pnl.gov) Feb. 2017
                            J. G. Hill, J. A. Platts, J. Chem. Phys. 128, 044104 (2008)

================================================================================
                                        WARNINGS
                       Please study these warnings very carefully!
================================================================================


WARNING: Post HF methods need fully converged wavefunctions
  ===> : Setting SCFConvForced true
         You can overwrite this default with %scf ConvForced false 


WARNING: MDCI localization with Augmented Hessian Foster-Boys
  ===> : Switching off randomization!

INFO   : the flag for use of the SHARK integral package has been found!

================================================================================
                                       INPUT FILE
================================================================================
NAME = D5_dlpno.com
|  1> !DLPNO-CCSD(T) aug-cc-pVTZ aug-cc-pVTZ/C TightSCF TightPNO RIJCOSX def2/J 
|  2> 
|  3> *xyzfile 0 1 D5.xyz
|  4> 
|  5> %MaxCore 64000
|  6> 
|  7> %pal nprocs 18 
|  8> end  
|  9> 
| 10> %scf
| 11>   MaxIter 150
| 12> end
| 13> 
| 14> 
| 15>                          ****END OF INPUT****
================================================================================

                       ****************************
                       * Single Point Calculation *
                       ****************************

---------------------------------
CARTESIAN COORDINATES (ANGSTROEM)
---------------------------------
  C      5.558206   -1.992914   -6.215054
  C      4.930199   -7.375319   -2.649623
  C      3.841892   -6.951611   -3.632829
  H      3.458144   -5.954425   -3.407121
  H      2.988484   -7.643606   -3.567078
  S      4.318115   -6.915930   -5.368692
  C      4.181880   -2.589671   -6.298911
  C      3.145873   -1.768431   -6.486753
  N      4.019102   -3.864307   -6.227427
  H      4.768490   -4.591153   -5.990773
  H      3.122405   -4.333392   -6.314620
  H      3.281635   -0.777786   -6.566549
  H      2.212549   -2.134193   -6.562246
  O      5.406154   -5.899480   -5.512972
  O      3.111910   -6.445079   -6.043792
  C      6.419260   -2.542944   -5.077630
  C      5.872267   -5.002756   -2.427819
  C      6.173994   -6.485522   -2.606315
  H      6.734852   -6.613767   -3.534015
  H      6.821463   -6.831018   -1.793617
  H      4.469612   -7.406168   -1.655876
  H      5.230134   -8.398678   -2.885906
  C      5.896512   -2.169314   -3.694552
  H      7.428880   -2.143665   -5.208078
  H      6.505894   -3.627541   -5.175502
  C      6.807804   -2.623428   -2.551019
  H      4.894708   -2.589732   -3.557501
  H      5.778823   -1.081255   -3.635790
  C      7.111544   -4.122463   -2.520363
  H      7.751615   -2.071393   -2.614406
  H      6.345837   -2.326401   -1.604086
  H      5.362882   -4.828697   -1.471335
  H      5.174429   -4.702577   -3.211298
  H      7.778329   -4.329347   -1.677651
  H      7.673189   -4.402845   -3.417586
  F      4.763396   -8.239424   -5.698629
  H      6.036826   -2.198189   -7.176852
  H      5.467610   -0.907371   -6.127968

----------------------------
CARTESIAN COORDINATES (A.U.)
----------------------------
  NO LB      ZA    FRAG     MASS         X           Y           Z
   0 C     6.0000    0    12.011   10.503488   -3.766062  -11.744750
   1 C     6.0000    0    12.011    9.316726  -13.937333   -5.007061
   2 C     6.0000    0    12.011    7.260124  -13.136641   -6.865052
   3 H     1.0000    0     1.008    6.534945  -11.252232   -6.438525
   4 H     1.0000    0     1.008    5.647417  -14.444323   -6.740800
   5 S    16.0000    0    32.060    8.160056  -13.069213  -10.145357
   6 C     6.0000    0    12.011    7.902607   -4.893769  -11.903217
   7 C     6.0000    0    12.011    5.944839   -3.341850  -12.258188
   8 N     7.0000    0    14.007    7.595003   -7.302481  -11.768132
   9 H     1.0000    0     1.008    9.011140   -8.676022  -11.320921
  10 H     1.0000    0     1.008    5.900490   -8.188924  -11.932902
  11 H     1.0000    0     1.008    6.201392   -1.469802  -12.408980
  12 H     1.0000    0     1.008    4.181111   -4.033041  -12.400847
  13 O     8.0000    0    15.999   10.216150  -11.148401  -10.418007
  14 O     8.0000    0    15.999    5.880658  -12.179433  -11.421112
  15 C     6.0000    0    12.011   12.130644   -4.805467   -9.595331
  16 C     6.0000    0    12.011   11.096976   -9.453839   -4.587913
  17 C     6.0000    0    12.011   11.667157  -12.255860   -4.925221
  18 H     1.0000    0     1.008   12.727027  -12.498208   -6.678320
  19 H     1.0000    0     1.008   12.890697  -12.908753   -3.389444
  20 H     1.0000    0     1.008    8.446342  -13.995630   -3.129152
  21 H     1.0000    0     1.008    9.883521  -15.871201   -5.453572
  22 C     6.0000    0    12.011   11.142793   -4.099409   -6.981691
  23 H     1.0000    0     1.008   14.038548   -4.050941   -9.841842
  24 H     1.0000    0     1.008   12.294357   -6.855060   -9.780281
  25 C     6.0000    0    12.011   12.864885   -4.957561   -4.820727
  26 H     1.0000    0     1.008    9.249658   -4.893884   -6.722702
  27 H     1.0000    0     1.008   10.920393   -2.043276   -6.870647
  28 C     6.0000    0    12.011   13.438871   -7.790326   -4.762797
  29 H     1.0000    0     1.008   14.648429   -3.914365   -4.940511
  30 H     1.0000    0     1.008   11.991895   -4.396261   -3.031284
  31 H     1.0000    0     1.008   10.134377   -9.124915   -2.780420
  32 H     1.0000    0     1.008    9.778255   -8.886583   -6.068473
  33 H     1.0000    0     1.008   14.698912   -8.181281   -3.170302
  34 H     1.0000    0     1.008   14.500226   -8.320172   -6.458302
  35 F     9.0000    0    18.998    9.001515  -15.570255  -10.768848
  36 H     1.0000    0     1.008   11.407947   -4.153975  -13.562284
  37 H     1.0000    0     1.008   10.332286   -1.714682  -11.580182

--------------------------------
INTERNAL COORDINATES (ANGSTROEM)
--------------------------------
 C      0   0   0     0.000000000000     0.00000000     0.00000000
 C      1   0   0     6.486676991334     0.00000000     0.00000000
 C      2   1   0     1.526641676857    58.98431618     0.00000000
 H      3   2   1     1.092056719456   111.76657926   301.76291724
 H      3   2   1     1.100675257080   109.86252232   183.37509207
 S      3   2   1     1.800355913609   115.96964618    63.28433129
 C      1   2   3     1.502473091366    67.19621670     9.82950561
 C      7   1   2     1.335301347352   118.31340541   149.09843253
 N      7   1   2     1.286974259129   120.40681479   327.21744653
 H      9   7   1     1.070463621394   126.60018884     7.96837689
 H      9   7   1     1.015731265044   124.35252214   182.57998756
 H      8   7   1     1.003083391702   120.90245867   359.77551784
 H      8   7   1     1.005274113129   120.47231394   179.03064483
 O      6   3   2     1.495932471292   107.38856853   297.68915787
 O      6   3   2     1.460271114037   103.51186950   181.67727166
 C      1   2   3     1.528947328879    49.24078969   172.77851068
 C      2   1   7     2.562370365129    40.85970591   226.35299093
 C     17   2   1     1.523644630425    33.02671159   255.40808035
 H     18  17   2     1.091621223501   108.39902792   121.62547515
 H     18  17   2     1.095017103952   109.70622864   237.96127787
 H      2   1   7     1.095730250170   124.23256610   279.63708206
 H      2   1   7     1.092270007789   129.19229883    99.04052312
 C     16   1   2     1.525048166014   113.17227676   275.89147488
 H     16   1   2     1.093512939299   107.44934201   154.77668930
 H     16   1   2     1.092445288031   109.58301316    39.82866386
 C     23  16   1     1.531123874549   113.61923186   184.39820079
 H     23  16   1     1.095054699889   109.45275122    61.39371418
 H     23  16   1     1.095981364808   109.18727053   305.73194925
 C     17   2   1     1.522921594669   146.00953636   264.46588188
 H     26  23  16     1.095235050783   108.67352889    66.02747159
 H     26  23  16     1.094677843090   108.32516486   180.85641006
 H     17   2   1     1.097557381820    92.96033186   131.32387738
 H     17   2   1     1.091294020132    87.56109018    24.84306882
 H     29  17   2     1.094333898118   109.86175449   288.41192908
 H     29  17   2     1.095019659233   108.61241254    43.53892715
 F      6   3   2     1.434841640015   106.58974907    58.18895583
 H      1   2   3     1.093740711115   111.71451344   270.83870435
 H      1   2   3     1.092792888067   140.57257057   102.14735505

---------------------------
INTERNAL COORDINATES (A.U.)
---------------------------
 C      0   0   0     0.000000000000     0.00000000     0.00000000
 C      1   0   0    12.258043032829     0.00000000     0.00000000
 C      2   1   0     2.884934673891    58.98431618     0.00000000
 H      3   2   1     2.063688122481   111.76657926   301.76291724
 H      3   2   1     2.079974798266   109.86252232   183.37509207
 S      3   2   1     3.402179620307   115.96964618    63.28433129
 C      1   2   3     2.839262666268    67.19621670     9.82950561
 C      7   1   2     2.523353852751   118.31340541   149.09843253
 N      7   1   2     2.432028891161   120.40681479   327.21744653
 H      9   7   1     2.022883080760   126.60018884     7.96837689
 H      9   7   1     1.919453916594   124.35252214   182.57998756
 H      8   7   1     1.895552899801   120.90245867   359.77551784
 H      8   7   1     1.899692763334   120.47231394   179.03064483
 O      6   3   2     2.826902685582   107.38856853   297.68915787
 O      6   3   2     2.759512486805   103.51186950   181.67727166
 C      1   2   3     2.889291724773    49.24078969   172.77851068
 C      2   1   7     4.842178243770    40.85970591   226.35299093
 C     17   2   1     2.879271076922    33.02671159   255.40808035
 H     18  17   2     2.062865154392   108.39902792   121.62547515
 H     18  17   2     2.069282438429   109.70622864   237.96127787
 H      2   1   7     2.070630089473   124.23256610   279.63708206
 H      2   1   7     2.064091179017   129.19229883    99.04052312
 C     16   1   2     2.881923374806   113.17227676   275.89147488
 H     16   1   2     2.066439979174   107.44934201   154.77668930
 H     16   1   2     2.064422410672   109.58301316    39.82866386
 C     23  16   1     2.893404800005   113.61923186   184.39820079
 H     23  16   1     2.069353484453   109.45275122    61.39371418
 H     23  16   1     2.071104627368   109.18727053   305.73194925
 C     17   2   1     2.877904737359   146.00953636   264.46588188
 H     26  23  16     2.069694298250   108.67352889    66.02747159
 H     26  23  16     2.068641328312   108.32516486   180.85641006
 H     17   2   1     2.074082867903    92.96033186   131.32387738
 H     17   2   1     2.062246829636    87.56109018    24.84306882
 H     29  17   2     2.067991366509   109.86175449   288.41192908
 H     29  17   2     2.069287267211   108.61241254    43.53892715
 F      6   3   2     2.711457745175   106.58974907    58.18895583
 H      1   2   3     2.066870405528   111.71451344   270.83870435
 H      1   2   3     2.065079279544   140.57257057   102.14735505

---------------------
BASIS SET INFORMATION
---------------------
There are 6 groups of distinct atoms

 Group   1 Type C   : 19s6p3d2f contracted to 5s4p3d2f pattern {88111/3111/111/11}
 Group   2 Type H   : 6s3p2d contracted to 4s3p2d pattern {3111/111/11}
 Group   3 Type S   : 42s17p3d2f contracted to 6s5p3d2f pattern {131313111/77111/111/11}
 Group   4 Type N   : 19s6p3d2f contracted to 5s4p3d2f pattern {88111/3111/111/11}
 Group   5 Type O   : 19s6p3d2f contracted to 5s4p3d2f pattern {88111/3111/111/11}
 Group   6 Type F   : 19s6p3d2f contracted to 5s4p3d2f pattern {88111/3111/111/11}

Atom   0C    basis set group =>   1
Atom   1C    basis set group =>   1
Atom   2C    basis set group =>   1
Atom   3H    basis set group =>   2
Atom   4H    basis set group =>   2
Atom   5S    basis set group =>   3
Atom   6C    basis set group =>   1
Atom   7C    basis set group =>   1
Atom   8N    basis set group =>   4
Atom   9H    basis set group =>   2
Atom  10H    basis set group =>   2
Atom  11H    basis set group =>   2
Atom  12H    basis set group =>   2
Atom  13O    basis set group =>   5
Atom  14O    basis set group =>   5
Atom  15C    basis set group =>   1
Atom  16C    basis set group =>   1
Atom  17C    basis set group =>   1
Atom  18H    basis set group =>   2
Atom  19H    basis set group =>   2
Atom  20H    basis set group =>   2
Atom  21H    basis set group =>   2
Atom  22C    basis set group =>   1
Atom  23H    basis set group =>   2
Atom  24H    basis set group =>   2
Atom  25C    basis set group =>   1
Atom  26H    basis set group =>   2
Atom  27H    basis set group =>   2
Atom  28C    basis set group =>   1
Atom  29H    basis set group =>   2
Atom  30H    basis set group =>   2
Atom  31H    basis set group =>   2
Atom  32H    basis set group =>   2
Atom  33H    basis set group =>   2
Atom  34H    basis set group =>   2
Atom  35F    basis set group =>   6
Atom  36H    basis set group =>   2
Atom  37H    basis set group =>   2
---------------------------------
AUXILIARY/J BASIS SET INFORMATION
---------------------------------
There are 6 groups of distinct atoms

 Group   1 Type C   : 12s5p4d2f1g contracted to 6s4p3d1f1g pattern {711111/2111/211/2/1}
 Group   2 Type H   : 5s2p1d contracted to 3s1p1d pattern {311/2/1}
 Group   3 Type S   : 14s5p5d2f1g contracted to 8s4p3d1f1g pattern {71111111/2111/311/2/1}
 Group   4 Type N   : 12s5p4d2f1g contracted to 6s4p3d1f1g pattern {711111/2111/211/2/1}
 Group   5 Type O   : 12s5p4d2f1g contracted to 6s4p3d1f1g pattern {711111/2111/211/2/1}
 Group   6 Type F   : 12s5p4d2f1g contracted to 6s4p3d1f1g pattern {711111/2111/211/2/1}

Atom   0C    basis set group =>   1
Atom   1C    basis set group =>   1
Atom   2C    basis set group =>   1
Atom   3H    basis set group =>   2
Atom   4H    basis set group =>   2
Atom   5S    basis set group =>   3
Atom   6C    basis set group =>   1
Atom   7C    basis set group =>   1
Atom   8N    basis set group =>   4
Atom   9H    basis set group =>   2
Atom  10H    basis set group =>   2
Atom  11H    basis set group =>   2
Atom  12H    basis set group =>   2
Atom  13O    basis set group =>   5
Atom  14O    basis set group =>   5
Atom  15C    basis set group =>   1
Atom  16C    basis set group =>   1
Atom  17C    basis set group =>   1
Atom  18H    basis set group =>   2
Atom  19H    basis set group =>   2
Atom  20H    basis set group =>   2
Atom  21H    basis set group =>   2
Atom  22C    basis set group =>   1
Atom  23H    basis set group =>   2
Atom  24H    basis set group =>   2
Atom  25C    basis set group =>   1
Atom  26H    basis set group =>   2
Atom  27H    basis set group =>   2
Atom  28C    basis set group =>   1
Atom  29H    basis set group =>   2
Atom  30H    basis set group =>   2
Atom  31H    basis set group =>   2
Atom  32H    basis set group =>   2
Atom  33H    basis set group =>   2
Atom  34H    basis set group =>   2
Atom  35F    basis set group =>   6
Atom  36H    basis set group =>   2
Atom  37H    basis set group =>   2
---------------------------------
AUXILIARY/C BASIS SET INFORMATION
---------------------------------
There are 6 groups of distinct atoms

 Group   1 Type C   : 9s7p6d4f2g contracted to 9s7p6d4f2g pattern {111111111/1111111/111111/1111/11}
 Group   2 Type H   : 5s4p3d2f contracted to 5s4p3d2f pattern {11111/1111/111/11}
 Group   3 Type S   : 11s9p8d6f3g contracted to 11s9p8d6f3g pattern {11111111111/111111111/11111111/111111/111}
 Group   4 Type N   : 9s7p6d4f2g contracted to 9s7p6d4f2g pattern {111111111/1111111/111111/1111/11}
 Group   5 Type O   : 9s7p6d4f2g contracted to 9s7p6d4f2g pattern {111111111/1111111/111111/1111/11}
 Group   6 Type F   : 9s7p6d4f2g contracted to 9s7p6d4f2g pattern {111111111/1111111/111111/1111/11}

Atom   0C    basis set group =>   1
Atom   1C    basis set group =>   1
Atom   2C    basis set group =>   1
Atom   3H    basis set group =>   2
Atom   4H    basis set group =>   2
Atom   5S    basis set group =>   3
Atom   6C    basis set group =>   1
Atom   7C    basis set group =>   1
Atom   8N    basis set group =>   4
Atom   9H    basis set group =>   2
Atom  10H    basis set group =>   2
Atom  11H    basis set group =>   2
Atom  12H    basis set group =>   2
Atom  13O    basis set group =>   5
Atom  14O    basis set group =>   5
Atom  15C    basis set group =>   1
Atom  16C    basis set group =>   1
Atom  17C    basis set group =>   1
Atom  18H    basis set group =>   2
Atom  19H    basis set group =>   2
Atom  20H    basis set group =>   2
Atom  21H    basis set group =>   2
Atom  22C    basis set group =>   1
Atom  23H    basis set group =>   2
Atom  24H    basis set group =>   2
Atom  25C    basis set group =>   1
Atom  26H    basis set group =>   2
Atom  27H    basis set group =>   2
Atom  28C    basis set group =>   1
Atom  29H    basis set group =>   2
Atom  30H    basis set group =>   2
Atom  31H    basis set group =>   2
Atom  32H    basis set group =>   2
Atom  33H    basis set group =>   2
Atom  34H    basis set group =>   2
Atom  35F    basis set group =>   6
Atom  36H    basis set group =>   2
Atom  37H    basis set group =>   2


           ************************************************************
           *        Program running with 18 parallel MPI-processes    *
           *              working on a common directory               *
           ************************************************************
------------------------------------------------------------------------------
                           ORCA GTO INTEGRAL CALCULATION
                           -- RI-GTO INTEGRALS CHOSEN --
------------------------------------------------------------------------------
------------------------------------------------------------------------------
                   ___                                                        
                  /   \      - P O W E R E D   B Y -                         
                 /     \                                                     
                 |  |  |   _    _      __       _____    __    __             
                 |  |  |  | |  | |    /  \     |  _  \  |  |  /  |          
                  \  \/   | |  | |   /    \    | | | |  |  | /  /          
                 / \  \   | |__| |  /  /\  \   | |_| |  |  |/  /          
                |  |  |   |  __  | /  /__\  \  |    /   |      \           
                |  |  |   | |  | | |   __   |  |    \   |  |\   \          
                \     /   | |  | | |  |  |  |  | |\  \  |  | \   \       
                 \___/    |_|  |_| |__|  |__|  |_| \__\ |__|  \__/        
                                                                              
                      - O R C A' S   B I G   F R I E N D -                    
                                      &                                       
                       - I N T E G R A L  F E E D E R -                       
                                                                              
 v1 FN, 2020, v2 2021                                                         
------------------------------------------------------------------------------


Reading SHARK input file D5_dlpno.SHARKINP.tmp ... ok
----------------------
SHARK INTEGRAL PACKAGE
----------------------

Number of atoms                             ...     38
Number of basis functions                   ...   1246
Number of shells                            ...    424
Maximum angular momentum                    ...      3
Integral batch strategy                     ... SHARK/LIBINT Hybrid
RI-J (if used) integral strategy            ... SPLIT-RIJ (Revised 2003 algorithm where possible)
Printlevel                                  ...      1
Contraction scheme used                     ... SEGMENTED contraction
Coulomb Range Separation                    ... NOT USED
Exchange Range Separation                   ... NOT USED
Finite Nucleus Model                        ... NOT USED
Auxiliary Coulomb fitting basis             ... AVAILABLE
   # of basis functions in Aux-J            ...   1028
   # of shells in Aux-J                     ...    352
   Maximum angular momentum in Aux-J        ...      4
Auxiliary J/K fitting basis                 ... NOT available
Auxiliary Correlation fitting basis         ... AVAILABLE
   # of basis functions in Aux-C            ...   2749
   # of shells in Aux-C                     ...    765
   Maximum angular momentum in Aux-C        ...      4
Auxiliary 'external' fitting basis          ... NOT available
Integral threshold                          ...     2.500000e-11
Primitive cut-off                           ...     2.500000e-12
Primitive pair pre-selection threshold      ...     2.500000e-12

Calculating pre-screening integrals         ... done (  1.0 sec) Dimension = 424
Organizing shell pair data                  ... done (  1.0 sec)
Shell pair information
Total number of shell pairs                 ...     90100
Shell pairs after pre-screening             ...     79860
Total number of primitive shell pairs       ...    287373
Primitive shell pairs kept                  ...    176034
          la=0 lb=0:  12933 shell pairs
          la=1 lb=0:  19771 shell pairs
          la=1 lb=1:   7645 shell pairs
          la=2 lb=0:  13741 shell pairs
          la=2 lb=1:  10521 shell pairs
          la=2 lb=2:   3683 shell pairs
          la=3 lb=0:   4831 shell pairs
          la=3 lb=1:   3688 shell pairs
          la=3 lb=2:   2573 shell pairs
          la=3 lb=3:    474 shell pairs

Calculating one electron integrals          ... done (  0.2 sec)
Calculating RI/J V-Matrix + Cholesky decomp.... done (  0.3 sec)
Calculating RI/C V-Matrix + Cholesky decomp.... done (  2.1 sec)
Calculating Nuclear repulsion               ... done (  0.0 sec) ENN=   1431.852662714939 Eh

SHARK setup successfully completed in   4.9 seconds

Maximum memory used throughout the entire GTOINT-calculation: 129.7 MB


           ************************************************************
           *        Program running with 18 parallel MPI-processes    *
           *              working on a common directory               *
           ************************************************************
-------------------------------------------------------------------------------
                                 ORCA SCF
-------------------------------------------------------------------------------

------------
SCF SETTINGS
------------
Hamiltonian:
 Ab initio Hamiltonian  Method          .... Hartree-Fock(GTOs)
 RI-approximation to the Coulomb term is turned on
   Number of AuxJ basis functions       .... 1028
   RIJ-COSX (HFX calculated with COS-X)).... on


General Settings:
 Integral files         IntName         .... D5_dlpno
 Hartree-Fock type      HFTyp           .... RHF
 Total Charge           Charge          ....    0
 Multiplicity           Mult            ....    1
 Number of Electrons    NEL             ....  136
 Basis Dimension        Dim             .... 1246
 Nuclear Repulsion      ENuc            ....   1431.8526627149 Eh

Convergence Acceleration:
 DIIS                   CNVDIIS         .... on
   Start iteration      DIISMaxIt       ....    12
   Startup error        DIISStart       ....  0.200000
   # of expansion vecs  DIISMaxEq       ....     5
   Bias factor          DIISBfac        ....   1.050
   Max. coefficient     DIISMaxC        ....  10.000
 Trust-Rad. Augm. Hess. CNVTRAH         .... auto
   Auto Start mean grad. ratio tolernc. ....  1.125000
   Auto Start start iteration           ....    20
   Auto Start num. interpolation iter.  ....    10
   Max. Number of Micro iterations      ....    16
   Max. Number of Macro iterations      .... Maxiter - #DIIS iter
   Number of Davidson start vectors     ....     2
   Converg. threshold I  (grad. norm)   ....   1.000e-05
   Converg. threshold II (energy diff.) ....   1.000e-08
   Grad. Scal. Fac. for Micro threshold ....   0.100
   Minimum threshold for Micro iter.    ....   0.010
   NR start threshold (gradient norm)   ....   0.001
   Initial trust radius                 ....   0.400
   Minimum AH scaling param. (alpha)    ....   1.000
   Maximum AH scaling param. (alpha)    .... 1000.000
   Orbital update algorithm             .... Taylor
   White noise on init. David. guess    .... on
   Maximum white noise                  ....   0.010
   Quad. conv. algorithm                .... NR
 SOSCF                  CNVSOSCF        .... on
   Start iteration      SOSCFMaxIt      ....   150
   Startup grad/error   SOSCFStart      ....  0.003300
 Level Shifting         CNVShift        .... on
   Level shift para.    LevelShift      ....    0.2500
   Turn off err/grad.   ShiftErr        ....    0.0010
 Zerner damping         CNVZerner       .... off
 Static damping         CNVDamp         .... on
   Fraction old density DampFac         ....    0.7000
   Max. Damping (<1)    DampMax         ....    0.9800
   Min. Damping (>=0)   DampMin         ....    0.0000
   Turn off err/grad.   DampErr         ....    0.1000
 Fernandez-Rico         CNVRico         .... off

SCF Procedure:
 Maximum # iterations   MaxIter         ....   150
 SCF integral mode      SCFMode         .... Direct
   Integral package                     .... SHARK and LIBINT hybrid scheme
 Reset frequency        DirectResetFreq ....    20
 Integral Threshold     Thresh          ....  2.500e-11 Eh
 Primitive CutOff       TCut            ....  2.500e-12 Eh

Convergence Tolerance:
 Convergence Check Mode ConvCheckMode   .... Total+1el-Energy
 Convergence forced     ConvForced      .... 1
 Energy Change          TolE            ....  1.000e-08 Eh
 1-El. energy change                    ....  1.000e-05 Eh
 Orbital Gradient       TolG            ....  1.000e-05
 Orbital Rotation angle TolX            ....  1.000e-05
 DIIS Error             TolErr          ....  5.000e-07


Diagonalization of the overlap matrix:
Smallest eigenvalue                        ... 8.081e-07
Time for diagonalization                   ...    0.475 sec
Threshold for overlap eigenvalues          ... 1.000e-08
Number of eigenvalues below threshold      ... 0
Time for construction of square roots      ...    1.137 sec
Total time needed                          ...    1.623 sec

Time for model grid setup =    0.327 sec

------------------------------
INITIAL GUESS: MODEL POTENTIAL
------------------------------
Loading Hartree-Fock densities                     ... done
Calculating cut-offs                               ... done
Initializing the effective Hamiltonian             ... done
Setting up the integral package (SHARK)            ... done
Starting the Coulomb interaction                   ... done (   0.7 sec)
Reading the grid                                   ... done
Mapping shells                                     ... done
Starting the XC term evaluation                    ... done (   0.6 sec)
Transforming the Hamiltonian                       ... done (   0.5 sec)
Diagonalizing the Hamiltonian                      ... done (   0.5 sec)
Back transforming the eigenvectors                 ... done (   0.2 sec)
Now organizing SCF variables                       ... done
                      ------------------
                      INITIAL GUESS DONE (   3.0 sec)
                      ------------------
--------------------
COSX GRID GENERATION
--------------------

GRIDX 1
-------
General Integration Accuracy     IntAcc      ... 3.816
Radial Grid Type                 RadialGrid  ... OptM3 with GC (2021)
Angular Grid (max. ang.)         AngularGrid ... 1 (Lebedev-50)
Angular grid pruning method      GridPruning ... 4 (adaptive)
Weight generation scheme         WeightScheme... Becke
Basis function cutoff            BFCut       ... 1.0000e-11
Integration weight cutoff        WCut        ... 1.0000e-14
Angular grids for H and He will be reduced by one unit
Partially contracted basis set               ... on
Rotationally invariant grid construction     ... off

Total number of grid points                  ...    21557
Total number of batches                      ...      358
Average number of points per batch           ...       60
Average number of grid points per atom       ...      567
UseSFitting                                  ... on

GRIDX 2
-------
General Integration Accuracy     IntAcc      ... 4.020
Radial Grid Type                 RadialGrid  ... OptM3 with GC (2021)
Angular Grid (max. ang.)         AngularGrid ... 2 (Lebedev-110)
Angular grid pruning method      GridPruning ... 4 (adaptive)
Weight generation scheme         WeightScheme... Becke
Basis function cutoff            BFCut       ... 1.0000e-11
Integration weight cutoff        WCut        ... 1.0000e-14
Angular grids for H and He will be reduced by one unit
Partially contracted basis set               ... on
Rotationally invariant grid construction     ... off

Total number of grid points                  ...    49436
Total number of batches                      ...      792
Average number of points per batch           ...       62
Average number of grid points per atom       ...     1301
UseSFitting                                  ... on

GRIDX 3
-------
General Integration Accuracy     IntAcc      ... 4.338
Radial Grid Type                 RadialGrid  ... OptM3 with GC (2021)
Angular Grid (max. ang.)         AngularGrid ... 3 (Lebedev-194)
Angular grid pruning method      GridPruning ... 4 (adaptive)
Weight generation scheme         WeightScheme... Becke
Basis function cutoff            BFCut       ... 1.0000e-11
Integration weight cutoff        WCut        ... 1.0000e-14
Angular grids for H and He will be reduced by one unit
Partially contracted basis set               ... on
Rotationally invariant grid construction     ... off

Total number of grid points                  ...   110147
Total number of batches                      ...     1739
Average number of points per batch           ...       63
Average number of grid points per atom       ...     2899
UseSFitting                                  ... on

Time for X-Grid setup             =    3.721 sec

 re-compute Schwartz prescreening matrix in partically contracted basis (1) ...done (   0.167 sec)
--------------
SCF ITERATIONS
--------------
ITER       Energy         Delta-E        Max-DP      RMS-DP      [F,P]     Damp
               ***  Starting incremental Fock matrix formation  ***
  0  -1129.6427018661   0.000000000000 0.12857649  0.00110689  0.3211383 0.7000
  1  -1130.0082569227  -0.365555056588 0.09424008  0.00090350  0.1941235 0.7000
                               ***Turning on DIIS***
  2  -1130.2217511137  -0.213494190953 0.14641811  0.00076946  0.1186659 0.7000
  3  -1131.8728641949  -1.651113081194 1.02574007  0.00293329  0.0833450 0.0000
  4  -1130.4573948469   1.415469347999 0.28335197  0.00072435  0.0141161 0.0000
  5  -1130.6233770972  -0.165982250305 0.05315840  0.00023104  0.0041470 0.0000
                      *** Initiating the SOSCF procedure ***
                           *** Shutting down DIIS ***
                      *** Re-Reading the Fockian *** 
                      *** Removing any level shift *** 
ITER      Energy       Delta-E        Grad      Rot      Max-DP    RMS-DP
  6  -1130.64336049  -0.0199833919  0.000550  0.000550  0.057230  0.000122
               *** Restarting incremental Fock matrix formation ***
  7  -1130.66271618  -0.0193556879  0.000488  0.000632  1.277963  0.003478
  8  -1130.66276391  -0.0000477351  0.000127  0.000331  0.094464  0.000509
  9  -1130.66276754  -0.0000036322  0.000091  0.000152  0.050896  0.000274
 10  -1130.66277012  -0.0000025773  0.000032  0.000103  0.017238  0.000092
 11  -1130.66277053  -0.0000004043  0.000008  0.000028  0.000866  0.000004
                  ***Gradient check signals convergence***
              ***Rediagonalizing the Fockian in SOSCF/NRSCF***

               *****************************************************
               *                     SUCCESS                       *
               *           SCF CONVERGED AFTER  12 CYCLES          *
               *****************************************************

Old exchange energy                            =   -123.645379882 Eh
New exchange energy                            =   -123.644989159 Eh
Exchange energy change after final integration =      0.000390723 Eh
Total energy after final integration           =  -1130.662379826 Eh
Final COS-X integration done in                =    43.398 sec

----------------
TOTAL SCF ENERGY
----------------

Total Energy       :        -1130.66237983 Eh          -30766.88751 eV

Components:
Nuclear Repulsion  :         1431.85266271 Eh           38962.69178 eV
Electronic Energy  :        -2562.51504254 Eh          -69729.57929 eV
One Electron Energy:        -4396.75765383 Eh         -119641.85824 eV
Two Electron Energy:         1834.24261129 Eh           49912.27894 eV
Max COSX asymmetry :            0.00004573 Eh               0.00124 eV

Virial components:
Potential Energy   :        -2260.94024832 Eh          -61523.31194 eV
Kinetic Energy     :         1130.27786850 Eh           30756.42443 eV
Virial Ratio       :            2.00034019


---------------
SCF CONVERGENCE
---------------

  Last Energy change         ...   -2.3242e-08  Tolerance :   1.0000e-08
  Last MAX-Density change    ...    3.9968e-15  Tolerance :   1.0000e-07
  Last RMS-Density change    ...    1.3036e-17  Tolerance :   5.0000e-09
  Last Orbital Gradient      ...    2.2165e-06  Tolerance :   1.0000e-05
  Last Orbital Rotation      ...    1.0367e-05  Tolerance :   1.0000e-05

             **** THE GBW FILE WAS UPDATED (D5_dlpno.gbw) ****
             **** DENSITY D5_dlpno.scfp WAS UPDATED ****
             **** ENERGY FILE WAS UPDATED (D5_dlpno.en.tmp) ****
             **** THE GBW FILE WAS UPDATED (D5_dlpno.gbw) ****
             **** DENSITY D5_dlpno.scfp WAS UPDATED ****
----------------
ORBITAL ENERGIES
----------------

  NO   OCC          E(Eh)            E(eV) 
   0   2.0000     -92.281355     -2511.1033 
   1   2.0000     -26.462401      -720.0786 
   2   2.0000     -20.589075      -560.2572 
   3   2.0000     -20.587789      -560.2222 
   4   2.0000     -15.508181      -421.9991 
   5   2.0000     -11.314118      -307.8728 
   6   2.0000     -11.269465      -306.6577 
   7   2.0000     -11.237608      -305.7909 
   8   2.0000     -11.225602      -305.4642 
   9   2.0000     -11.223825      -305.4158 
  10   2.0000     -11.216587      -305.2188 
  11   2.0000     -11.211317      -305.0755 
  12   2.0000     -11.203326      -304.8580 
  13   2.0000     -11.202506      -304.8357 
  14   2.0000     -11.200342      -304.7768 
  15   2.0000     -11.116007      -302.4819 
  16   2.0000      -9.244711      -251.5614 
  17   2.0000      -6.932193      -188.6346 
  18   2.0000      -6.927966      -188.5195 
  19   2.0000      -6.927645      -188.5108 
  20   2.0000      -1.833216       -49.8843 
  21   2.0000      -1.476395       -40.1747 
  22   2.0000      -1.368769       -37.2461 
  23   2.0000      -1.203607       -32.7518 
  24   2.0000      -1.137981       -30.9660 
  25   2.0000      -1.090654       -29.6782 
  26   2.0000      -1.057896       -28.7868 
  27   2.0000      -1.021311       -27.7913 
  28   2.0000      -0.996977       -27.1291 
  29   2.0000      -0.961684       -26.1687 
  30   2.0000      -0.935354       -25.4523 
  31   2.0000      -0.889477       -24.2039 
  32   2.0000      -0.862949       -23.4820 
  33   2.0000      -0.860500       -23.4154 
  34   2.0000      -0.833454       -22.6794 
  35   2.0000      -0.811464       -22.0810 
  36   2.0000      -0.780265       -21.2321 
  37   2.0000      -0.761604       -20.7243 
  38   2.0000      -0.747589       -20.3429 
  39   2.0000      -0.698292       -19.0015 
  40   2.0000      -0.689283       -18.7564 
  41   2.0000      -0.679118       -18.4797 
  42   2.0000      -0.656937       -17.8762 
  43   2.0000      -0.640594       -17.4315 
  44   2.0000      -0.626226       -17.0405 
  45   2.0000      -0.621110       -16.9013 
  46   2.0000      -0.611250       -16.6330 
  47   2.0000      -0.593505       -16.1501 
  48   2.0000      -0.581845       -15.8328 
  49   2.0000      -0.578297       -15.7363 
  50   2.0000      -0.565240       -15.3810 
  51   2.0000      -0.555131       -15.1059 
  52   2.0000      -0.544411       -14.8142 
  53   2.0000      -0.534705       -14.5501 
  54   2.0000      -0.530083       -14.4243 
  55   2.0000      -0.515145       -14.0178 
  56   2.0000      -0.507271       -13.8035 
  57   2.0000      -0.496727       -13.5166 
  58   2.0000      -0.495374       -13.4798 
  59   2.0000      -0.487561       -13.2672 
  60   2.0000      -0.475190       -12.9306 
  61   2.0000      -0.469838       -12.7849 
  62   2.0000      -0.463172       -12.6036 
  63   2.0000      -0.453922       -12.3519 
  64   2.0000      -0.442213       -12.0332 
  65   2.0000      -0.432795       -11.7769 
  66   2.0000      -0.428464       -11.6591 
  67   2.0000      -0.249966        -6.8019 
  68   0.0000       0.014678         0.3994 
  69   0.0000       0.027003         0.7348 
  70   0.0000       0.028085         0.7642 
  71   0.0000       0.035228         0.9586 
  72   0.0000       0.043070         1.1720 
  73   0.0000       0.043649         1.1878 
  74   0.0000       0.045332         1.2335 
  75   0.0000       0.048944         1.3318 
  76   0.0000       0.053558         1.4574 
  77   0.0000       0.060328         1.6416 
  78   0.0000       0.062758         1.7077 
  79   0.0000       0.063475         1.7272 
  80   0.0000       0.065861         1.7922 
  81   0.0000       0.069100         1.8803 
  82   0.0000       0.074307         2.0220 
  83   0.0000       0.081649         2.2218 
  84   0.0000       0.082266         2.2386 
  85   0.0000       0.087915         2.3923 
  86   0.0000       0.090484         2.4622 
  87   0.0000       0.091254         2.4832 
  88   0.0000       0.097895         2.6639 
  89   0.0000       0.099102         2.6967 
  90   0.0000       0.102310         2.7840 
  91   0.0000       0.106299         2.8925 
  92   0.0000       0.108611         2.9555 
  93   0.0000       0.115664         3.1474 
  94   0.0000       0.119265         3.2454 
  95   0.0000       0.121898         3.3170 
  96   0.0000       0.125373         3.4116 
  97   0.0000       0.127862         3.4793 
  98   0.0000       0.131018         3.5652 
  99   0.0000       0.131892         3.5890 
 100   0.0000       0.135459         3.6860 
 101   0.0000       0.137517         3.7420 
 102   0.0000       0.139748         3.8027 
 103   0.0000       0.141372         3.8469 
 104   0.0000       0.145043         3.9468 
 105   0.0000       0.150662         4.0997 
 106   0.0000       0.153382         4.1737 
 107   0.0000       0.156143         4.2489 
 108   0.0000       0.157962         4.2984 
 109   0.0000       0.159766         4.3475 
 110   0.0000       0.160399         4.3647 
 111   0.0000       0.163369         4.4455 
 112   0.0000       0.165129         4.4934 
 113   0.0000       0.167676         4.5627 
 114   0.0000       0.172230         4.6866 
 115   0.0000       0.173889         4.7318 
 116   0.0000       0.182428         4.9641 
 117   0.0000       0.185183         5.0391 
 118   0.0000       0.189200         5.1484 
 119   0.0000       0.192117         5.2278 
 120   0.0000       0.192651         5.2423 
 121   0.0000       0.195972         5.3327 
 122   0.0000       0.198022         5.3885 
 123   0.0000       0.201278         5.4771 
 124   0.0000       0.202790         5.5182 
 125   0.0000       0.204627         5.5682 
 126   0.0000       0.205994         5.6054 
 127   0.0000       0.213171         5.8007 
 128   0.0000       0.218491         5.9454 
 129   0.0000       0.219344         5.9686 
 130   0.0000       0.224137         6.0991 
 131   0.0000       0.230766         6.2794 
 132   0.0000       0.233585         6.3562 
 133   0.0000       0.235982         6.4214 
 134   0.0000       0.238454         6.4887 
 135   0.0000       0.241318         6.5666 
 136   0.0000       0.242224         6.5913 
 137   0.0000       0.249361         6.7855 
 138   0.0000       0.250612         6.8195 
 139   0.0000       0.254724         6.9314 
 140   0.0000       0.257410         7.0045 
 141   0.0000       0.262897         7.1538 
 142   0.0000       0.268005         7.2928 
 143   0.0000       0.270561         7.3623 
 144   0.0000       0.273291         7.4366 
 145   0.0000       0.275414         7.4944 
 146   0.0000       0.278650         7.5824 
 147   0.0000       0.280366         7.6291 
 148   0.0000       0.281271         7.6538 
 149   0.0000       0.286948         7.8082 
 150   0.0000       0.289726         7.8839 
 151   0.0000       0.290280         7.8989 
 152   0.0000       0.296627         8.0716 
 153   0.0000       0.300635         8.1807 
 154   0.0000       0.304275         8.2797 
 155   0.0000       0.306192         8.3319 
 156   0.0000       0.310041         8.4366 
 157   0.0000       0.311517         8.4768 
 158   0.0000       0.312902         8.5145 
 159   0.0000       0.318469         8.6660 
 160   0.0000       0.319510         8.6943 
 161   0.0000       0.325841         8.8666 
 162   0.0000       0.328128         8.9288 
 163   0.0000       0.329440         8.9645 
 164   0.0000       0.332392         9.0449 
 165   0.0000       0.333158         9.0657 
 166   0.0000       0.338575         9.2131 
 167   0.0000       0.339719         9.2442 
 168   0.0000       0.345024         9.3886 
 169   0.0000       0.345309         9.3963 
 170   0.0000       0.346267         9.4224 
 171   0.0000       0.351147         9.5552 
 172   0.0000       0.353916         9.6305 
 173   0.0000       0.357074         9.7165 
 174   0.0000       0.361984         9.8501 
 175   0.0000       0.365061         9.9338 
 176   0.0000       0.368858        10.0371 
 177   0.0000       0.372398        10.1335 
 178   0.0000       0.375047        10.2055 
 179   0.0000       0.378763        10.3067 
 180   0.0000       0.384626        10.4662 
 181   0.0000       0.386174        10.5083 
 182   0.0000       0.389136        10.5889 
 183   0.0000       0.392477        10.6798 
 184   0.0000       0.395519        10.7626 
 185   0.0000       0.397550        10.8179 
 186   0.0000       0.398388        10.8407 
 187   0.0000       0.401762        10.9325 
 188   0.0000       0.405853        11.0438 
 189   0.0000       0.407025        11.0757 
 190   0.0000       0.413620        11.2552 
 191   0.0000       0.414821        11.2879 
 192   0.0000       0.417784        11.3685 
 193   0.0000       0.421214        11.4618 
 194   0.0000       0.422713        11.5026 
 195   0.0000       0.425494        11.5783 
 196   0.0000       0.427886        11.6434 
 197   0.0000       0.429390        11.6843 
 198   0.0000       0.432591        11.7714 
 199   0.0000       0.436535        11.8787 
 200   0.0000       0.439440        11.9578 
 201   0.0000       0.443899        12.0791 
 202   0.0000       0.446245        12.1429 
 203   0.0000       0.448105        12.1935 
 204   0.0000       0.453231        12.3330 
 205   0.0000       0.455945        12.4069 
 206   0.0000       0.459233        12.4964 
 207   0.0000       0.462553        12.5867 
 208   0.0000       0.463524        12.6131 
 209   0.0000       0.468249        12.7417 
 210   0.0000       0.472387        12.8543 
 211   0.0000       0.475117        12.9286 
 212   0.0000       0.477559        12.9951 
 213   0.0000       0.482262        13.1230 
 214   0.0000       0.483620        13.1600 
 215   0.0000       0.489352        13.3159 
 216   0.0000       0.492845        13.4110 
 217   0.0000       0.493586        13.4311 
 218   0.0000       0.498343        13.5606 
 219   0.0000       0.501761        13.6536 
 220   0.0000       0.504512        13.7285 
 221   0.0000       0.506790        13.7904 
 222   0.0000       0.508821        13.8457 
 223   0.0000       0.510427        13.8894 
 224   0.0000       0.513538        13.9741 
 225   0.0000       0.514832        14.0093 
 226   0.0000       0.515959        14.0400 
 227   0.0000       0.523380        14.2419 
 228   0.0000       0.525869        14.3096 
 229   0.0000       0.526519        14.3273 
 230   0.0000       0.530539        14.4367 
 231   0.0000       0.531474        14.4621 
 232   0.0000       0.535908        14.5828 
 233   0.0000       0.541076        14.7234 
 234   0.0000       0.543977        14.8024 
 235   0.0000       0.545039        14.8313 
 236   0.0000       0.548570        14.9273 
 237   0.0000       0.550029        14.9671 
 238   0.0000       0.553538        15.0625 
 239   0.0000       0.555719        15.1219 
 240   0.0000       0.557843        15.1797 
 241   0.0000       0.561639        15.2830 
 242   0.0000       0.562798        15.3145 
 243   0.0000       0.564785        15.3686 
 244   0.0000       0.565939        15.4000 
 245   0.0000       0.569138        15.4870 
 246   0.0000       0.573832        15.6148 
 247   0.0000       0.574883        15.6434 
 248   0.0000       0.580810        15.8047 
 249   0.0000       0.581182        15.8148 
 250   0.0000       0.582400        15.8479 
 251   0.0000       0.586366        15.9558 
 252   0.0000       0.587856        15.9964 
 253   0.0000       0.590791        16.0762 
 254   0.0000       0.594197        16.1689 
 255   0.0000       0.598699        16.2914 
 256   0.0000       0.600791        16.3484 
 257   0.0000       0.601679        16.3725 
 258   0.0000       0.605734        16.4829 
 259   0.0000       0.609813        16.5939 
 260   0.0000       0.614925        16.7330 
 261   0.0000       0.620104        16.8739 
 262   0.0000       0.624752        17.0004 
 263   0.0000       0.629140        17.1198 
 264   0.0000       0.631730        17.1902 
 265   0.0000       0.632552        17.2126 
 266   0.0000       0.634064        17.2537 
 267   0.0000       0.639687        17.4068 
 268   0.0000       0.644958        17.5502 
 269   0.0000       0.649179        17.6651 
 270   0.0000       0.650489        17.7007 
 271   0.0000       0.651779        17.7358 
 272   0.0000       0.656597        17.8669 
 273   0.0000       0.658081        17.9073 
 274   0.0000       0.664561        18.0836 
 275   0.0000       0.667159        18.1543 
 276   0.0000       0.668555        18.1923 
 277   0.0000       0.672706        18.3053 
 278   0.0000       0.674043        18.3416 
 279   0.0000       0.679098        18.4792 
 280   0.0000       0.680218        18.5097 
 281   0.0000       0.683523        18.5996 
 282   0.0000       0.688303        18.7297 
 283   0.0000       0.695499        18.9255 
 284   0.0000       0.699895        19.0451 
 285   0.0000       0.702059        19.1040 
 286   0.0000       0.707007        19.2386 
 287   0.0000       0.711798        19.3690 
 288   0.0000       0.712644        19.3920 
 289   0.0000       0.715455        19.4685 
 290   0.0000       0.722883        19.6707 
 291   0.0000       0.725332        19.7373 
 292   0.0000       0.729983        19.8638 
 293   0.0000       0.733557        19.9611 
 294   0.0000       0.737288        20.0626 
 295   0.0000       0.740343        20.1458 
 296   0.0000       0.744543        20.2600 
 297   0.0000       0.748448        20.3663 
 298   0.0000       0.752694        20.4819 
 299   0.0000       0.758048        20.6275 
 300   0.0000       0.761508        20.7217 
 301   0.0000       0.764734        20.8095 
 302   0.0000       0.767867        20.8947 
 303   0.0000       0.770123        20.9561 
 304   0.0000       0.775293        21.0968 
 305   0.0000       0.777999        21.1704 
 306   0.0000       0.780290        21.2328 
 307   0.0000       0.787565        21.4307 
 308   0.0000       0.790384        21.5074 
 309   0.0000       0.794311        21.6143 
 310   0.0000       0.799411        21.7531 
 311   0.0000       0.803236        21.8572 
 312   0.0000       0.810595        22.0574 
 313   0.0000       0.816114        22.2076 
 314   0.0000       0.821088        22.3429 
 315   0.0000       0.822255        22.3747 
 316   0.0000       0.823634        22.4122 
 317   0.0000       0.827513        22.5178 
 318   0.0000       0.837030        22.7767 
 319   0.0000       0.840066        22.8593 
 320   0.0000       0.842409        22.9231 
 321   0.0000       0.849006        23.1026 
 322   0.0000       0.850263        23.1368 
 323   0.0000       0.853647        23.2289 
 324   0.0000       0.860400        23.4127 
 325   0.0000       0.866336        23.5742 
 326   0.0000       0.868374        23.6297 
 327   0.0000       0.869871        23.6704 
 328   0.0000       0.872526        23.7426 
 329   0.0000       0.880575        23.9617 
 330   0.0000       0.885821        24.1044 
 331   0.0000       0.889003        24.1910 
 332   0.0000       0.898137        24.4396 
 333   0.0000       0.898972        24.4623 
 334   0.0000       0.899971        24.4895 
 335   0.0000       0.906420        24.6649 
 336   0.0000       0.912969        24.8432 
 337   0.0000       0.915534        24.9130 
 338   0.0000       0.918719        24.9996 
 339   0.0000       0.925832        25.1932 
 340   0.0000       0.930313        25.3151 
 341   0.0000       0.934219        25.4214 
 342   0.0000       0.940336        25.5878 
 343   0.0000       0.942748        25.6535 
 344   0.0000       0.944542        25.7023 
 345   0.0000       0.947564        25.7845 
 346   0.0000       0.950316        25.8594 
 347   0.0000       0.955885        26.0110 
 348   0.0000       0.957836        26.0641 
 349   0.0000       0.963448        26.2168 
 350   0.0000       0.967346        26.3228 
 351   0.0000       0.970454        26.4074 
 352   0.0000       0.972022        26.4501 
 353   0.0000       0.976697        26.5773 
 354   0.0000       0.980155        26.6714 
 355   0.0000       0.984639        26.7934 
 356   0.0000       0.990334        26.9484 
 357   0.0000       0.994688        27.0668 
 358   0.0000       0.997660        27.1477 
 359   0.0000       0.999499        27.1977 
 360   0.0000       1.003035        27.2940 
 361   0.0000       1.007698        27.4209 
 362   0.0000       1.009785        27.4776 
 363   0.0000       1.014032        27.5932 
 364   0.0000       1.014856        27.6156 
 365   0.0000       1.016570        27.6623 
 366   0.0000       1.021598        27.7991 
 367   0.0000       1.023217        27.8432 
 368   0.0000       1.028785        27.9947 
 369   0.0000       1.032101        28.0849 
 370   0.0000       1.035539        28.1784 
 371   0.0000       1.039437        28.2845 
 372   0.0000       1.044204        28.4142 
 373   0.0000       1.048207        28.5232 
 374   0.0000       1.050298        28.5800 
 375   0.0000       1.051427        28.6108 
 376   0.0000       1.057390        28.7731 
 377   0.0000       1.060990        28.8710 
 378   0.0000       1.065448        28.9923 
 379   0.0000       1.067564        29.0499 
 380   0.0000       1.071240        29.1499 
 381   0.0000       1.072554        29.1857 
 382   0.0000       1.077639        29.3240 
 383   0.0000       1.078769        29.3548 
 384   0.0000       1.084782        29.5184 
 385   0.0000       1.086171        29.5562 
 386   0.0000       1.093093        29.7446 
 387   0.0000       1.098937        29.9036 
 388   0.0000       1.102341        29.9962 
 389   0.0000       1.104256        30.0483 
 390   0.0000       1.108834        30.1729 
 391   0.0000       1.111019        30.2324 
 392   0.0000       1.114843        30.3364 
 393   0.0000       1.118768        30.4432 
 394   0.0000       1.119395        30.4603 
 395   0.0000       1.121120        30.5072 
 396   0.0000       1.124848        30.6087 
 397   0.0000       1.131933        30.8015 
 398   0.0000       1.134375        30.8679 
 399   0.0000       1.138032        30.9674 
 400   0.0000       1.142956        31.1014 
 401   0.0000       1.146129        31.1878 
 402   0.0000       1.151568        31.3358 
 403   0.0000       1.153545        31.3896 
 404   0.0000       1.156386        31.4669 
 405   0.0000       1.158454        31.5231 
 406   0.0000       1.161770        31.6134 
 407   0.0000       1.168263        31.7900 
 408   0.0000       1.173037        31.9199 
 409   0.0000       1.175289        31.9812 
 410   0.0000       1.177233        32.0341 
 411   0.0000       1.178304        32.0633 
 412   0.0000       1.180081        32.1116 
 413   0.0000       1.187558        32.3151 
 414   0.0000       1.189763        32.3751 
 415   0.0000       1.194526        32.5047 
 416   0.0000       1.199464        32.6391 
 417   0.0000       1.204886        32.7866 
 418   0.0000       1.207995        32.8712 
 419   0.0000       1.213936        33.0329 
 420   0.0000       1.215323        33.0706 
 421   0.0000       1.217117        33.1194 
 422   0.0000       1.222310        33.2607 
 423   0.0000       1.226006        33.3613 
 424   0.0000       1.229366        33.4528 
 425   0.0000       1.235410        33.6172 
 426   0.0000       1.236724        33.6530 
 427   0.0000       1.241589        33.7854 
 428   0.0000       1.243784        33.8451 
 429   0.0000       1.248371        33.9699 
 430   0.0000       1.252052        34.0701 
 431   0.0000       1.255120        34.1535 
 432   0.0000       1.256978        34.2041 
 433   0.0000       1.259097        34.2618 
 434   0.0000       1.267176        34.4816 
 435   0.0000       1.268091        34.5065 
 436   0.0000       1.269640        34.5487 
 437   0.0000       1.273609        34.6567 
 438   0.0000       1.275783        34.7158 
 439   0.0000       1.276570        34.7372 
 440   0.0000       1.279456        34.8158 
 441   0.0000       1.284940        34.9650 
 442   0.0000       1.292701        35.1762 
 443   0.0000       1.295170        35.2434 
 444   0.0000       1.297004        35.2933 
 445   0.0000       1.299469        35.3604 
 446   0.0000       1.302181        35.4341 
 447   0.0000       1.307915        35.5902 
 448   0.0000       1.313337        35.7377 
 449   0.0000       1.317509        35.8513 
 450   0.0000       1.320000        35.9190 
 451   0.0000       1.326824        36.1047 
 452   0.0000       1.334663        36.3180 
 453   0.0000       1.338123        36.4122 
 454   0.0000       1.340829        36.4858 
 455   0.0000       1.341405        36.5015 
 456   0.0000       1.345010        36.5996 
 457   0.0000       1.347206        36.6594 
 458   0.0000       1.355863        36.8949 
 459   0.0000       1.360552        37.0225 
 460   0.0000       1.365170        37.1482 
 461   0.0000       1.368606        37.2417 
 462   0.0000       1.371744        37.3271 
 463   0.0000       1.380303        37.5600 
 464   0.0000       1.381394        37.5896 
 465   0.0000       1.385712        37.7072 
 466   0.0000       1.390485        37.8370 
 467   0.0000       1.393192        37.9107 
 468   0.0000       1.401124        38.1265 
 469   0.0000       1.405705        38.2512 
 470   0.0000       1.410462        38.3806 
 471   0.0000       1.411891        38.4195 
 472   0.0000       1.415151        38.5082 
 473   0.0000       1.419765        38.6338 
 474   0.0000       1.423337        38.7310 
 475   0.0000       1.430926        38.9375 
 476   0.0000       1.433295        39.0019 
 477   0.0000       1.435634        39.0656 
 478   0.0000       1.438935        39.1554 
 479   0.0000       1.440453        39.1967 
 480   0.0000       1.446497        39.3612 
 481   0.0000       1.455758        39.6132 
 482   0.0000       1.460753        39.7491 
 483   0.0000       1.467048        39.9204 
 484   0.0000       1.470432        40.0125 
 485   0.0000       1.474167        40.1141 
 486   0.0000       1.476610        40.1806 
 487   0.0000       1.483676        40.3729 
 488   0.0000       1.485647        40.4265 
 489   0.0000       1.488182        40.4955 
 490   0.0000       1.492001        40.5994 
 491   0.0000       1.494012        40.6541 
 492   0.0000       1.498430        40.7743 
 493   0.0000       1.502590        40.8875 
 494   0.0000       1.507652        41.0253 
 495   0.0000       1.510349        41.0987 
 496   0.0000       1.517947        41.3054 
 497   0.0000       1.521847        41.4116 
 498   0.0000       1.529460        41.6187 
 499   0.0000       1.532879        41.7118 
 500   0.0000       1.534665        41.7604 
 501   0.0000       1.546014        42.0692 
 502   0.0000       1.548645        42.1408 
 503   0.0000       1.550098        42.1803 
 504   0.0000       1.555468        42.3264 
 505   0.0000       1.562902        42.5287 
 506   0.0000       1.566847        42.6361 
 507   0.0000       1.567488        42.6535 
 508   0.0000       1.577399        42.9232 
 509   0.0000       1.578910        42.9643 
 510   0.0000       1.580660        43.0120 
 511   0.0000       1.585639        43.1474 
 512   0.0000       1.596004        43.4295 
 513   0.0000       1.599418        43.5224 
 514   0.0000       1.608945        43.7816 
 515   0.0000       1.609114        43.7862 
 516   0.0000       1.609918        43.8081 
 517   0.0000       1.618886        44.0521 
 518   0.0000       1.620551        44.0974 
 519   0.0000       1.624569        44.2068 
 520   0.0000       1.632560        44.4242 
 521   0.0000       1.635715        44.5101 
 522   0.0000       1.636742        44.5380 
 523   0.0000       1.643312        44.7168 
 524   0.0000       1.648664        44.8624 
 525   0.0000       1.651796        44.9476 
 526   0.0000       1.656537        45.0767 
 527   0.0000       1.659904        45.1683 
 528   0.0000       1.665935        45.3324 
 529   0.0000       1.669799        45.4375 
 530   0.0000       1.675244        45.5857 
 531   0.0000       1.679490        45.7013 
 532   0.0000       1.680663        45.7332 
 533   0.0000       1.684817        45.8462 
 534   0.0000       1.691985        46.0412 
 535   0.0000       1.701559        46.3018 
 536   0.0000       1.703098        46.3437 
 537   0.0000       1.708943        46.5027 
 538   0.0000       1.712238        46.5924 
 539   0.0000       1.715197        46.6729 
 540   0.0000       1.718377        46.7594 
 541   0.0000       1.723453        46.8975 
 542   0.0000       1.728918        47.0462 
 543   0.0000       1.732370        47.1402 
 544   0.0000       1.734192        47.1898 
 545   0.0000       1.737720        47.2858 
 546   0.0000       1.743477        47.4424 
 547   0.0000       1.746062        47.5128 
 548   0.0000       1.749404        47.6037 
 549   0.0000       1.754431        47.7405 
 550   0.0000       1.755365        47.7659 
 551   0.0000       1.764109        48.0039 
 552   0.0000       1.769023        48.1376 
 553   0.0000       1.774168        48.2776 
 554   0.0000       1.779648        48.4267 
 555   0.0000       1.786043        48.6007 
 556   0.0000       1.789288        48.6890 
 557   0.0000       1.792790        48.7843 
 558   0.0000       1.794234        48.8236 
 559   0.0000       1.795592        48.8605 
 560   0.0000       1.799683        48.9719 
 561   0.0000       1.809340        49.2347 
 562   0.0000       1.811134        49.2834 
 563   0.0000       1.815130        49.3922 
 564   0.0000       1.824922        49.6587 
 565   0.0000       1.827481        49.7283 
 566   0.0000       1.829464        49.7822 
 567   0.0000       1.838860        50.0379 
 568   0.0000       1.848659        50.3046 
 569   0.0000       1.850047        50.3423 
 570   0.0000       1.853292        50.4306 
 571   0.0000       1.857584        50.5474 
 572   0.0000       1.859440        50.5979 
 573   0.0000       1.863996        50.7219 
 574   0.0000       1.866929        50.8017 
 575   0.0000       1.875053        51.0228 
 576   0.0000       1.876902        51.0731 
 577   0.0000       1.883853        51.2622 
 578   0.0000       1.884500        51.2798 
 579   0.0000       1.894568        51.5538 
 580   0.0000       1.898091        51.6497 
 581   0.0000       1.906639        51.8823 
 582   0.0000       1.906737        51.8849 
 583   0.0000       1.912040        52.0293 
 584   0.0000       1.913706        52.0746 
 585   0.0000       1.920044        52.2471 
 586   0.0000       1.926043        52.4103 
 587   0.0000       1.928330        52.4725 
 588   0.0000       1.934750        52.6472 
 589   0.0000       1.938994        52.7627 
 590   0.0000       1.947650        52.9983 
 591   0.0000       1.948890        53.0320 
 592   0.0000       1.950987        53.0890 
 593   0.0000       1.961107        53.3644 
 594   0.0000       1.962859        53.4121 
 595   0.0000       1.970173        53.6111 
 596   0.0000       1.973106        53.6909 
 597   0.0000       1.974302        53.7235 
 598   0.0000       1.980957        53.9046 
 599   0.0000       1.985108        54.0175 
 600   0.0000       1.990762        54.1714 
 601   0.0000       1.993463        54.2449 
 602   0.0000       1.997760        54.3618 
 603   0.0000       2.000209        54.4285 
 604   0.0000       2.006753        54.6065 
 605   0.0000       2.010652        54.7126 
 606   0.0000       2.011889        54.7463 
 607   0.0000       2.019324        54.9486 
 608   0.0000       2.022318        55.0301 
 609   0.0000       2.026175        55.1350 
 610   0.0000       2.028971        55.2111 
 611   0.0000       2.030511        55.2530 
 612   0.0000       2.035920        55.4002 
 613   0.0000       2.041249        55.5452 
 614   0.0000       2.047359        55.7115 
 615   0.0000       2.049975        55.7827 
 616   0.0000       2.055385        55.9299 
 617   0.0000       2.057982        56.0005 
 618   0.0000       2.069805        56.3223 
 619   0.0000       2.070680        56.3461 
 620   0.0000       2.071521        56.3689 
 621   0.0000       2.078531        56.5597 
 622   0.0000       2.084253        56.7154 
 623   0.0000       2.087374        56.8003 
 624   0.0000       2.092241        56.9328 
 625   0.0000       2.103436        57.2374 
 626   0.0000       2.109274        57.3963 
 627   0.0000       2.113472        57.5105 
 628   0.0000       2.120399        57.6990 
 629   0.0000       2.123432        57.7815 
 630   0.0000       2.129926        57.9582 
 631   0.0000       2.130117        57.9634 
 632   0.0000       2.137926        58.1759 
 633   0.0000       2.147017        58.4233 
 634   0.0000       2.154082        58.6156 
 635   0.0000       2.155826        58.6630 
 636   0.0000       2.161325        58.8126 
 637   0.0000       2.165578        58.9284 
 638   0.0000       2.172739        59.1232 
 639   0.0000       2.173641        59.1478 
 640   0.0000       2.177496        59.2527 
 641   0.0000       2.185269        59.4642 
 642   0.0000       2.190430        59.6046 
 643   0.0000       2.198321        59.8193 
 644   0.0000       2.201116        59.8954 
 645   0.0000       2.211702        60.1835 
 646   0.0000       2.215418        60.2846 
 647   0.0000       2.221994        60.4635 
 648   0.0000       2.229175        60.6589 
 649   0.0000       2.231971        60.7350 
 650   0.0000       2.240703        60.9726 
 651   0.0000       2.250306        61.2339 
 652   0.0000       2.256116        61.3920 
 653   0.0000       2.260634        61.5150 
 654   0.0000       2.264282        61.6142 
 655   0.0000       2.266708        61.6803 
 656   0.0000       2.271106        61.7999 
 657   0.0000       2.279772        62.0357 
 658   0.0000       2.285316        62.1866 
 659   0.0000       2.290512        62.3280 
 660   0.0000       2.295655        62.4680 
 661   0.0000       2.303458        62.6803 
 662   0.0000       2.304083        62.6973 
 663   0.0000       2.310108        62.8612 
 664   0.0000       2.319369        63.1132 
 665   0.0000       2.320907        63.1551 
 666   0.0000       2.331309        63.4381 
 667   0.0000       2.332216        63.4628 
 668   0.0000       2.339036        63.6484 
 669   0.0000       2.342635        63.7463 
 670   0.0000       2.346545        63.8527 
 671   0.0000       2.354182        64.0606 
 672   0.0000       2.359474        64.2045 
 673   0.0000       2.360981        64.2456 
 674   0.0000       2.370574        64.5066 
 675   0.0000       2.374519        64.6139 
 676   0.0000       2.381928        64.8156 
 677   0.0000       2.387074        64.9556 
 678   0.0000       2.397720        65.2453 
 679   0.0000       2.399684        65.2987 
 680   0.0000       2.402621        65.3786 
 681   0.0000       2.407343        65.5071 
 682   0.0000       2.409306        65.5606 
 683   0.0000       2.416303        65.7510 
 684   0.0000       2.419970        65.8507 
 685   0.0000       2.428784        66.0906 
 686   0.0000       2.436195        66.2922 
 687   0.0000       2.440218        66.4017 
 688   0.0000       2.452682        66.7409 
 689   0.0000       2.455802        66.8258 
 690   0.0000       2.460015        66.9404 
 691   0.0000       2.463650        67.0393 
 692   0.0000       2.469212        67.1907 
 693   0.0000       2.472446        67.2787 
 694   0.0000       2.480518        67.4983 
 695   0.0000       2.488218        67.7079 
 696   0.0000       2.495135        67.8961 
 697   0.0000       2.502401        68.0938 
 698   0.0000       2.510410        68.3117 
 699   0.0000       2.519033        68.5464 
 700   0.0000       2.525377        68.7190 
 701   0.0000       2.530733        68.8647 
 702   0.0000       2.534005        68.9538 
 703   0.0000       2.540102        69.1197 
 704   0.0000       2.545486        69.2662 
 705   0.0000       2.552797        69.4651 
 706   0.0000       2.559566        69.6493 
 707   0.0000       2.573930        70.0402 
 708   0.0000       2.577791        70.1453 
 709   0.0000       2.581998        70.2597 
 710   0.0000       2.589062        70.4520 
 711   0.0000       2.596338        70.6499 
 712   0.0000       2.596593        70.6569 
 713   0.0000       2.607275        70.9475 
 714   0.0000       2.610700        71.0408 
 715   0.0000       2.614116        71.1337 
 716   0.0000       2.624854        71.4259 
 717   0.0000       2.626463        71.4697 
 718   0.0000       2.631759        71.6138 
 719   0.0000       2.638493        71.7970 
 720   0.0000       2.644778        71.9681 
 721   0.0000       2.654355        72.2287 
 722   0.0000       2.657620        72.3175 
 723   0.0000       2.670712        72.6738 
 724   0.0000       2.675446        72.8026 
 725   0.0000       2.683466        73.0208 
 726   0.0000       2.691434        73.2377 
 727   0.0000       2.697679        73.4076 
 728   0.0000       2.702454        73.5375 
 729   0.0000       2.713244        73.8311 
 730   0.0000       2.725102        74.1538 
 731   0.0000       2.729781        74.2811 
 732   0.0000       2.732695        74.3604 
 733   0.0000       2.736612        74.4670 
 734   0.0000       2.743518        74.6549 
 735   0.0000       2.755496        74.9808 
 736   0.0000       2.762537        75.1725 
 737   0.0000       2.763591        75.2011 
 738   0.0000       2.771373        75.4129 
 739   0.0000       2.783151        75.7334 
 740   0.0000       2.790621        75.9367 
 741   0.0000       2.798031        76.1383 
 742   0.0000       2.803401        76.2844 
 743   0.0000       2.808212        76.4153 
 744   0.0000       2.813575        76.5613 
 745   0.0000       2.821769        76.7842 
 746   0.0000       2.832122        77.0660 
 747   0.0000       2.837245        77.2054 
 748   0.0000       2.854038        77.6623 
 749   0.0000       2.858846        77.7932 
 750   0.0000       2.866970        78.0142 
 751   0.0000       2.876983        78.2867 
 752   0.0000       2.881245        78.4027 
 753   0.0000       2.895893        78.8012 
 754   0.0000       2.902311        78.9759 
 755   0.0000       2.920473        79.4701 
 756   0.0000       2.924020        79.5666 
 757   0.0000       2.930359        79.7391 
 758   0.0000       2.942025        80.0566 
 759   0.0000       2.948781        80.2404 
 760   0.0000       2.952857        80.3513 
 761   0.0000       2.971004        80.8451 
 762   0.0000       2.983386        81.1821 
 763   0.0000       2.991643        81.4067 
 764   0.0000       3.009183        81.8840 
 765   0.0000       3.013027        81.9886 
[...]
   MOs        -> AO shells       423.1
   PAOs       -> AO shells       424.0

Calculating integrals (12.4 sec, 1254.397 MB)
Sorting integrals (2.3 sec, 1254.366 MB)
Total time for the integral transformation: 15.0 sec
--------------------------------
INITIAL GUESS AND PNO GENERATION
--------------------------------

PNO truncation parameters                   .... 
    ScaleTCutPNO       =        1.000e-02
    PAOOverlapThresh   =        1.000e-08

    TCutPairs          =        1.000e-05
    TCutPNO            =        1.000e-07
    TCutPNOSingles     =        3.000e-09
    TCutMP2Pairs       =        1.000e-06
    TCutMKN            =        1.000e-03
    TCutDO             =        5.000e-03

Pair selection                          .... not used
Type of local MP2 treatment                 .... full local PMP2
Strategy for PNO selection                  .... occupation number selection
Pair density normalization                  .... MP2 norm
Spin component scaling                      .... not used

PASS-1: Formation of initial guess LMP2 amplitudes
Initial amplitudes guess done. Entering LMP2 iteration loop:
   Max. no of iterations          ...  50
   Energy convergence tolerance   ...    1.0e-07
   Residual convergence tolerance ...    5.0e-07
   Fock matrix cutoff             ...    1.0e-05 Eh
   DIIS convergence acceleration parameters:
        Max # vectors in DIIS     ... 7
        Start iteration of DIIS   ... 0
        Levelshift                ... 2.000e-01
        Damping factor 1          ... 5.000e-01
        Damping factor 2          ... 1.000e+00
   L-MP2 PNO cut-off              ...   1.0e-09
   L-MP2 PNO cut-off (core)       ...   1.0e-11
                           *** Turning on DIIS ***
LMP2-Iter=   0:  ELMP2= -3.055071359577  DE=   6.6e-02 RMAX=   8.3e-03
LMP2-Iter=   1:  ELMP2= -3.087606555797  DE=   3.3e-02 RMAX=   4.9e-03
LMP2-Iter=   2:  ELMP2= -3.093335562786  DE=   5.7e-03 RMAX=   1.3e-03
LMP2-Iter=   3:  ELMP2= -3.094037557753  DE=   7.0e-04 RMAX=   5.8e-04
LMP2-Iter=   4:  ELMP2= -3.094058735722  DE=   2.1e-05 RMAX=   1.9e-04
LMP2-Iter=   5:  ELMP2= -3.094038025144  DE=   2.1e-05 RMAX=   5.2e-05
LMP2-Iter=   6:  ELMP2= -3.094036409939  DE=   1.6e-06 RMAX=   1.0e-05
LMP2-Iter=   7:  ELMP2= -3.094037120350  DE=   7.1e-07 RMAX=   2.3e-06
LMP2-Iter=   8:  ELMP2= -3.094037310668  DE=   1.9e-07 RMAX=   6.8e-07
LMP2-Iter=   9:  ELMP2= -3.094037288176  DE=   2.2e-08 RMAX=   2.1e-07
LMP2-Iter=  10:  ELMP2= -3.094037264185  DE=   2.4e-08 RMAX=   6.2e-08 => CONVERGED
PASS-2: Formation of Pair natural orbitals
   .... Finished loop over pairs

 PNO Occupation Number Statistics: 
  | Av. % of trace(Dij) retained        ...  98.163041872406
  | sigma^2 in % of trace(Dij) retained ...   9.73e+00
  | Av. % of trace(Di) retained         ...  99.999538904171
  | sigma^2 in % of trace(Di) retained  ...   1.04e-08
 Distributions of % trace(Dij) recovered:
  |       >= 99.9  ...   155 ( 13.6 % of all pairs)
  |   [60.0, 70.0) ...     1 (  0.1 % of all pairs)
  |   [70.0, 80.0) ...     8 (  0.7 % of all pairs)
  |   [80.0, 90.0) ...    26 (  2.3 % of all pairs)
  |   [90.0, 99.0) ...   531 ( 46.6 % of all pairs)
  |   [99.0, 99.9) ...   419 ( 36.8 % of all pairs)
 Distributions of % trace(Di) recovered :
  |       >= 99.9  ...    48 (100.0 % of all I-pairs )

Making pair pair interaction lists          ... done

                       ===========================
                        823 OF 1140 PAIRS ARE KEPT
                       ===========================

Total time spent in the initial guess                 ...   483.442 sec
L-MP2 correlation energy (all non-screened pairs)     ...      -3.094037264185 Eh
L-MP2 PNO error correction                            ...      -0.000142444441 Eh
                                                          --------------------
Initial total L-MP2 energy (non-screened pairs)       ...      -3.094179708627 Eh

Initial PNO correlation energy                        ...      -3.088435428615 Eh
sum of pair energies estimated for screened out pairs ...      -0.000025537623 Eh
sum of MP2 pair energies for pairs that were not kept ...      -0.001734899032 Eh
sum of PNO error estimates for the kept pairs         ...      -0.004347347702 Eh
                                                          --------------------
sum of all corrections                                         -0.006107784358
Initial total correlation energy                               -3.094543212973
Thresholds for map construction and integral transformation for fine MP2 and CCSD(T) calculation:
   TCutMKN   ...     1.0e-03
   TCutDO    ...     5.0e-03
   TCutPairs ...     1.0e-05
   TCutCMO   ...     1.0e-03
   TCutCPAO  ...     1.0e-03

Time for aux screen maps:            0.027
Time for maps after fine MP2:            0.140
-----------------------------
LOCAL RI TRANSFORMATION (IJV)
-----------------------------

Orbital window:      20 to 67
Basis functions:   1246 (424 shells)
Aux. functions:    2749 (765 shells)
Use SHARK:           on

Processing maps (0.0 sec)
Average map sizes:
   Aux shells -> MOs(i)           47.5
   Aux shells -> MOs(j)           48.0
   MOs        -> AO shells       423.1

Calculating integrals (10.9 sec, 47.894 MB)
Sorting integrals (0.2 sec, 47.863 MB)
Total time for the integral transformation: 11.1 sec
--------------------------------
LOCAL RI TRANSFORMATION (VABPAO)
--------------------------------

Number of PAOs:    1246
Basis functions:   1246 (424 shells)
Aux. functions:    2749 (765 shells)
Use SHARK:           on

Processing maps (0.0 sec)
Average map sizes:
   Aux shells -> PAOs           1246.0
   PAOs       -> AO shells       424.0

Calculating integrals (52.5 sec, 32561.269 MB)
Finished


-------------------------------------
Pair Pair Term precalculation with     
RI-(ij|mn) and (im|jn) transformation  
ON THE FLY                             
-------------------------------------

   IBatch   1 (of   1)              ... done ( 2749.106 sec)
Total EXT                           ...        2749.106 sec

---------------------
RI-PNO TRANSFORMATION
---------------------

Total Number of PNOs                   ... 28164
Average number of PNOs per pair        ...    34
Maximal number of PNOs per pair        ...   105
   #pairs with  1 -  5 PNOs   :    0
   #pairs with  6 - 10 PNOs   :  183
   #pairs with 11 - 15 PNOs   :   87
   #pairs with 16 - 20 PNOs   :   47
   #pairs with 21 - 25 PNOs   :   45
   #pairs with 26 - 30 PNOs   :   71
   #pairs with 31 - 35 PNOs   :   55
   #pairs with 36 - 40 PNOs   :   37
   #pairs with 41 - 45 PNOs   :   27
   #pairs with 46 - 50 PNOs   :   20
   #pairs with 51 - 55 PNOs   :   63
   #pairs with 56 - 60 PNOs   :   51
   #pairs with 61 - 65 PNOs   :   28
   #pairs with 66 - 70 PNOs   :   18
   #pairs with 71 - 75 PNOs   :   21
   #pairs with 76 - 80 PNOs   :   56
   #pairs with 81 - 85 PNOs   :    6
   #pairs with 86 - 90 PNOs   :    4
   #pairs with 91 - 95 PNOs   :    3
   #pairs with > 96 PNOs      :    1

Generation of (ij|ab)[P] integrals            ... on
Generation of (ia|bc)[P],(ja|bc)[P] integrals ... on
Storage of 3 and 4 external integrals         ... on
Generation of ALL (ka|bc)[P] integrals        ... on
Keep RI integrals in memory                   ... off

Ibatch:  1 (of  1)
Starting 2-4 index PNO integral generation ... done

Timings:
Total PNO integral transformation time     ...       2318.785 sec
Size of the 3-external file                ...       679 MB
Size of the 4-external file                ...      5755 MB
Size of the IKJL file                      ...         0 MB
Size of the all 3-external file            ...     16299 MB
Size of the 1-external file                ...        30 MB

Making pair/pair overlap matrices          ... done (  318.263 sec)
Size of the pair overlap file              ... 4315 MB
Redoing the guess amplitudes               ... done (    0.031 sec)

-------------------------
FINAL STARTUP INFORMATION
-------------------------

E(0)                                       ...  -1130.662376508
E(L-MP2)                                   ...     -3.094179709
E(L-MP2) including corrections             ...     -3.094543213
Initial E(tot)                             ...  -1133.756919721
<T|T>                                      ...      0.805221852
Number of pairs included                   ... 823
Total number of pairs                      ... 1176

------------------------------------------------
                  RHF COUPLED CLUSTER ITERATIONS
------------------------------------------------

Number of PNO amplitudes to be optimized   ...      1435394
Number of non-PNO amplitudes               ...   1142063932
Untruncated number of regular amplitudes   ...   1631916384

Iter       E(tot)           E(Corr)          Delta-E          Residual     Time
  0  -1133.651535921     -2.983051628      0.111128080      0.024995253   89.84
                           *** Turning on DIIS ***
  1  -1133.755124174     -3.086639881     -0.103588253      0.008684135  102.99
  2  -1133.828465847     -3.159981554     -0.073341673      0.003939117  102.75
  3  -1133.842905007     -3.174420714     -0.014439160      0.001921639  103.17
  4  -1133.846816053     -3.178331760     -0.003911045      0.000991538  105.45
  5  -1133.848016163     -3.179531871     -0.001200111      0.000449450  100.26
  6  -1133.848300159     -3.179815866     -0.000283995      0.000261184   97.26
  7  -1133.848350942     -3.179866649     -0.000050783      0.000150655  105.54
  8  -1133.848367493     -3.179883201     -0.000016551      0.000100861  106.25
  9  -1133.848349471     -3.179865178      0.000018023      0.000062792  106.07
 10  -1133.848355973     -3.179871680     -0.000006502      0.000031509  103.94
 11  -1133.848353612     -3.179869320      0.000002360      0.000011738  105.06
 12  -1133.848354222     -3.179869930     -0.000000610      0.000004243  104.05
               --- The Coupled-Cluster iterations have converged ---

----------------------
COUPLED CLUSTER ENERGY
----------------------

E(0)                                       ...  -1130.662376508
E(CORR)(strong-pairs)                      ...     -3.179869930
E(CORR)(weak-pairs)                        ...     -0.006107784
E(CORR)(corrected)                         ...     -3.185977714
E(TOT)                                     ...  -1133.848354222
Singles Norm <S|S>**1/2                    ...      0.119821960  
T1 diagnostic                              ...      0.012229278  

------------------
LARGEST AMPLITUDES
------------------
  30-> 68  30-> 68       0.046137
  43-> 68  43-> 68       0.042903
  40-> 68  40-> 68       0.039219
  52-> 68  52-> 68       0.037218
  61-> 68  61-> 68       0.037077
  37-> 68  37-> 68       0.036175
  64-> 68  64-> 68       0.034842
  29-> 68  29-> 68       0.034708
  54-> 68  54-> 68       0.034444
  50-> 68  50-> 68       0.034346
  49-> 68  49-> 68       0.033750
  30-> 70  30-> 70       0.033466
  28-> 68  28-> 68       0.033092
  63-> 68  63-> 68       0.032903
  49-> 77  49-> 77       0.032834
  48-> 68  48-> 68       0.032546


-------------------------------------------
DLPNO BASED TRIPLES CORRECTION
-------------------------------------------

Singles multiplier          ...  1.000000
TCutTNO                     ... 1.000e-09
TCutMP2Pairs                ... 1.000e-06
TCutDOStrong                ... 1.000e-02
TCutMKNStrong               ... 1.000e-02
TCutDOWeak                  ... 2.000e-02
TCutMKNWeak                 ... 1.000e-01

Fragment selection                          .... not used
Number of Triples that are to be computed   ...     13372

 . . . . . . . . .
10% done  
20% done  
30% done  
40% done  
50% done  
60% done  
70% done  
80% done  
90% done               (  17948.974 sec)
Triples timings:
Total time for T0               ... 19044.808 sec
Total time for Iterative (T)    ...     0.000 sec
Total time of overall (T)       ... 19279.497 sec

Triples List generation         ...     0.000 sec
TNO generation                  ...  1095.705 sec
Pair density generation         ...     0.037 sec
Look up tables                  ...     0.000 sec
Generating 3-index integrals    ... 16247.401 sec
  Make 4-ind.int. from 3-ind.int...   179.905 sec
  Projecting amplitudes (D + S) ...  1408.847 sec
  Downprojecting integrals      ...     0.018 sec
  Energy contr. (sum over a,b,c)...    35.334 sec
Fitting ET(->0)                 ...     0.000 sec

Everything after 3-index        ...  1701.573 sec

Timing details:
 TNO integrals                  ... 16412.921 sec
   Reading 3-index integrals    ...    26.006 sec
   Sorting integrals            ...  1317.846 sec
       Sorting integrals 1      ...     0.025 sec
       Sorting integrals 2      ...  1267.412 sec
       Sorting integrals 3      ...     6.026 sec
       Sorting integrals 4      ...     0.699 sec
       Sorting integrals 5      ...     7.389 sec
       Sorting integrals 6      ...    36.294 sec
   Calculating local VM**-1/2   ...    30.937 sec
   Orthogonal. integrals        ...    31.997 sec
   Multipl. 3-index integrals   ... 15006.134 sec
   All concerning IRIab (w/TNO) ...    75.763 sec

 Calculate W0/W1                ...    77.220 sec
 W 3-ext contribution           ...    34.770 sec
 W 3-int contribution           ...    16.884 sec
 Sorting W                      ...    24.476 sec

 V exchange contribution        ...    12.069 sec

 Timings for Triples without generation
     of 3-index integrals       ...  1701.557 sec
       0 weak pairs             ...  1202.272 sec
       1 weak pair              ...   499.285 sec
       2 weak pairs             ...     0.000 sec
       3 weak pairs             ...     0.000 sec
  Extra time for extrapolation  ...     0.000 sec

Number of Triples   (0, 1, 2, 3 weak pairs; overall):   8109    5263       0       0  ( 13372)
Number of Atoms     (0, 1, 2, 3 weak pairs; overall):   31.3    29.3     0.0     0.0  (    38)
Number of PAOs      (0, 1, 2, 3 weak pairs; overall): 1049.2   996.7     0.0     0.0  (  1246)
Number of AuxFcns   (0, 1, 2, 3 weak pairs; overall):  996.1   509.1     0.0     0.0  (  2749)
Number of TNOs      (0, 1, 2, 3 weak pairs         ):   94.0    55.5     0.0     0.0
Aver. Number of NTNO, Atoms, PAOs, AuxFcns / Triples:  13372    78.8    30.5  1028.6   804.4

Triples Correction (T)                     ...     -0.134707397
Final correlation energy                   ...     -3.320685111
E(CCSD)                                    ...  -1133.848354222
E(CCSD(T))                                 ...  -1133.983061619



------------------------------------------------------------------------------- 
                                     TIMINGS                                   
------------------------------------------------------------------------------- 


Total execution time                   ...    26799.837 sec

Localization of occupied MO's          ...        5.942 sec (  0.0%)
Fock Matrix Formation                  ...       40.229 sec (  0.2%)
Global overlap, Fock, MKN matrices     ...        2.601 sec (  0.0%)
Differential overlap integrals         ...        4.619 sec (  0.0%)
Organizing maps                        ...        0.415 sec (  0.0%)
RI 3-index integral generations        ...       94.169 sec (  0.4%)
RI-PNO integral transformation         ...     5408.857 sec ( 20.2%)
Initial Guess                          ...      625.592 sec (  2.3%)
DIIS Solver                            ...       11.791 sec (  0.0%)
State Vector Update                    ...        0.175 sec (  0.0%)
Sigma-vector construction              ...     1330.593 sec (  5.0%)
  <0|H|D>                              ...        0.003 sec (  0.0% of sigma)
  <D|H|D>(0-ext)                       ...       30.730 sec (  2.3% of sigma)
  <D|H|D>(2-ext Fock)                  ...        0.037 sec (  0.0% of sigma)
  <D|H|D>(2-ext)                       ...      647.645 sec ( 48.7% of sigma)
  <D|H|D>(4-ext)                       ...       69.703 sec (  5.2% of sigma)
  <D|H|D>(4-ext-corr)                  ...      360.248 sec ( 27.1% of sigma)
  CCSD doubles correction              ...        1.125 sec (  0.1% of sigma)
  <S|H|S>                              ...        3.532 sec (  0.3% of sigma)
  <S|H|D>(1-ext)                       ...        2.356 sec (  0.2% of sigma)
  <D|H|S>(1-ext)                       ...        0.046 sec (  0.0% of sigma)
  <S|H|D>(3-ext)                       ...        1.502 sec (  0.1% of sigma)
  CCSD singles correction              ...        0.001 sec (  0.0% of sigma)
  Fock-dressing                        ...      145.112 sec ( 10.9% of sigma)
  Singles amplitudes                   ...       10.227 sec (  0.8% of sigma)
  (ik|jl)-dressing                     ...       23.087 sec (  1.7% of sigma)
  (ij|ab),(ia|jb)-dressing             ...        8.560 sec (  0.6% of sigma)
  Pair energies                        ...        0.040 sec (  0.0% of sigma)
Total Time for computing (T)           ...    19279.853 sec ( 71.9% of ALL)


Maximum memory used throughout the entire MDCI-calculation: 46374.9 MB

-------------------------   --------------------
FINAL SINGLE POINT ENERGY     -1133.983061618951
-------------------------   --------------------


                            ***************************************
                            *     ORCA property calculations      *
                            ***************************************


  WARNING: The energy has been calculated at the MDCI level but the densities
           used in the property calculations are still SCF densities
           MDCI response densities have not been calculated 
           use %mdci Density linearized end
           or  %mdci Density unrelaxed end
           or  %mdci Density orbopt end

                                    ---------------------
                                    Active property flags
                                    ---------------------
   (+) Dipole Moment


------------------------------------------------------------------------------
                       ORCA ELECTRIC PROPERTIES CALCULATION
------------------------------------------------------------------------------

Dipole Moment Calculation                       ... on
Quadrupole Moment Calculation                   ... off
Polarizability Calculation                      ... off
GBWName                                         ... D5_dlpno.gbw
Electron density file                           ... D5_dlpno.scfp
The origin for moment calculation is the CENTER OF MASS  = ( 9.485345, -9.355933 -8.801904)

-------------
DIPOLE MOMENT
-------------
                                X             Y             Z
Electronic contribution:     -8.00244     -23.53213     -13.43586
Nuclear contribution   :      8.54118      20.92489      15.31138
                        -----------------------------------------
Total Dipole Moment    :      0.53874      -2.60723       1.87552
                        -----------------------------------------
Magnitude (a.u.)       :      3.25661
Magnitude (Debye)      :      8.27763



--------------------
Rotational spectrum 
--------------------
 
Rotational constants in cm-1:     0.018156     0.012306     0.008278 
Rotational constants in MHz :   544.309022   368.914527   248.178402 

 Dipole components along the rotational axes: 
x,y,z [a.u.] :    -2.580562    -1.981714     0.137794 
x,y,z [Debye]:    -6.559268    -5.037116     0.350244 

 

Timings for individual modules:

Sum of individual times         ...    27096.911 sec (= 451.615 min)
GTO integral calculation        ...        5.522 sec (=   0.092 min)   0.0 %
SCF iterations                  ...      286.049 sec (=   4.767 min)   1.1 %
MDCI module                     ...    26805.340 sec (= 446.756 min)  98.9 %
                             ****ORCA TERMINATED NORMALLY****
TOTAL RUN TIME: 0 days 7 hours 31 minutes 38 seconds 281 msec
