
                                        *****************
                                        * O   R   C   A *
                                        *****************

                                            #,                                       
                                            ###                                      
                                            ####                                     
                                            #####                                    
                                            ######                                   
                                           ########,                                 
                                     ,,################,,,,,                         
                               ,,#################################,,                 
                          ,,##########################################,,             
                       ,#########################################, ''#####,          
                    ,#############################################,,   '####,        
                  ,##################################################,,,,####,       
                ,###########''''           ''''###############################       
              ,#####''   ,,,,##########,,,,          '''####'''          '####       
            ,##' ,,,,###########################,,,                        '##       
           ' ,,###''''                  '''############,,,                           
         ,,##''                                '''############,,,,        ,,,,,,###''
      ,#''                                            '''#######################'''  
     '                                                          ''''####''''         
             ,#######,   #######,   ,#######,      ##                                
            ,#'     '#,  ##    ##  ,#'     '#,    #''#        ######   ,####,        
            ##       ##  ##   ,#'  ##            #'  '#       #        #'  '#        
            ##       ##  #######   ##           ,######,      #####,   #    #        
            '#,     ,#'  ##    ##  '#,     ,#' ,#      #,         ##   #,  ,#        
             '#######'   ##     ##  '#######'  #'      '#     #####' # '####'        



                  #######################################################
                  #                        -***-                        #
                  #          Department of theory and spectroscopy      #
                  #    Directorship and core code : Frank Neese         #
                  #        Max Planck Institute fuer Kohlenforschung    #
                  #                Kaiser Wilhelm Platz 1               #
                  #                 D-45470 Muelheim/Ruhr               #
                  #                      Germany                        #
                  #                                                     #
                  #                  All rights reserved                #
                  #                        -***-                        #
                  #######################################################


                         Program Version 5.0.0 -  RELEASE  -
                                (SVN: $Rev: 19529$)
                ($Date: 2021-06-28 11:36:33 +0200 (Mo, 28 Jun 2021) $)


 With contributions from (in alphabetic order):
   Daniel Aravena         : Magnetic Suceptibility
   Michael Atanasov       : Ab Initio Ligand Field Theory (pilot matlab implementation)
   Alexander A. Auer      : GIAO ZORA, VPT2 properties, NMR spectrum
   Ute Becker             : Parallelization
   Giovanni Bistoni       : ED, misc. LED, open-shell LED, HFLD
   Martin Brehm           : Molecular dynamics
   Dmytro Bykov           : SCF Hessian
   Vijay G. Chilkuri      : MRCI spin determinant printing, contributions to CSF-ICE
   Dipayan Datta          : RHF DLPNO-CCSD density
   Achintya Kumar Dutta   : EOM-CC, STEOM-CC
   Dmitry Ganyushin       : Spin-Orbit,Spin-Spin,Magnetic field MRCI
   Miquel Garcia          : C-PCM Hessian, Gaussian charge scheme
   Yang Guo               : DLPNO-NEVPT2, F12-NEVPT2, CIM, IAO-localization
   Andreas Hansen         : Spin unrestricted coupled pair/coupled cluster methods
   Benjamin Helmich-Paris : MC-RPA, TRAH-SCF, COSX integrals
   Lee Huntington         : MR-EOM, pCC
   Robert Izsak           : Overlap fitted RIJCOSX, COSX-SCS-MP3, EOM
   Marcus Kettner         : VPT2
   Christian Kollmar      : KDIIS, OOCD, Brueckner-CCSD(T), CCSD density, CASPT2, CASPT2-K
   Simone Kossmann        : Meta GGA functionals, TD-DFT gradient, OOMP2, MP2 Hessian
   Martin Krupicka        : Initial AUTO-CI
   Lucas Lang             : DCDCAS
   Marvin Lechner         : AUTO-CI (C++ implementation), FIC-MRCC
   Dagmar Lenk            : GEPOL surface, SMD
   Dimitrios Liakos       : Extrapolation schemes; Compound Job, initial MDCI parallelization
   Dimitrios Manganas     : Further ROCIS development; embedding schemes
   Dimitrios Pantazis     : SARC Basis sets
   Anastasios Papadopoulos: AUTO-CI, single reference methods and gradients
   Taras Petrenko         : DFT Hessian,TD-DFT gradient, ASA, ECA, R-Raman, ABS, FL, XAS/XES, NRVS
   Peter Pinski           : DLPNO-MP2, DLPNO-MP2 Gradient
   Christoph Reimann      : Effective Core Potentials
   Marius Retegan         : Local ZFS, SOC
   Christoph Riplinger    : Optimizer, TS searches, QM/MM, DLPNO-CCSD(T), (RO)-DLPNO pert. Triples
   Tobias Risthaus        : Range-separated hybrids, TD-DFT gradient, RPA, STAB
   Michael Roemelt        : Original ROCIS implementation
   Masaaki Saitow         : Open-shell DLPNO-CCSD energy and density
   Barbara Sandhoefer     : DKH picture change effects
   Avijit Sen             : IP-ROCIS
   Kantharuban Sivalingam : CASSCF convergence, NEVPT2, FIC-MRCI
   Bernardo de Souza      : ESD, SOC TD-DFT
   Georgi Stoychev        : AutoAux, RI-MP2 NMR
   Willem Van den Heuvel  : Paramagnetic NMR
   Boris Wezisla          : Elementary symmetry handling
   Frank Wennmohs         : Technical directorship


 We gratefully acknowledge several colleagues who have allowed us to
 interface, adapt or use parts of their codes:
   Stefan Grimme, W. Hujo, H. Kruse, P. Pracht,  : VdW corrections, initial TS optimization,
                  C. Bannwarth, S. Ehlert          DFT functionals, gCP, sTDA/sTD-DF
   Ed Valeev, F. Pavosevic, A. Kumar             : LibInt (2-el integral package), F12 methods
   Garnet Chan, S. Sharma, J. Yang, R. Olivares  : DMRG
   Ulf Ekstrom                                   : XCFun DFT Library
   Mihaly Kallay                                 : mrcc  (arbitrary order and MRCC methods)
   Jiri Pittner, Ondrej Demel                    : Mk-CCSD
   Frank Weinhold                                : gennbo (NPA and NBO analysis)
   Christopher J. Cramer and Donald G. Truhlar   : smd solvation model
   Lars Goerigk                                  : TD-DFT with DH, B97 family of functionals
   V. Asgeirsson, H. Jonsson                     : NEB implementation
   FAccTs GmbH                                   : IRC, NEB, NEB-TS, DLPNO-Multilevel, CI-OPT
                                                   MM, QMMM, 2- and 3-layer-ONIOM, Crystal-QMMM,
                                                   LR-CPCM, SF, NACMEs, symmetry and pop. for TD-DFT,
                                                   nearIR, NL-DFT gradient (VV10), updates on ESD,
                                                   ML-optimized integration grids
   S Lehtola, MJT Oliveira, MAL Marques          : LibXC Library
   Liviu Ungur et al                             : ANISO software


 Your calculation uses the libint2 library for the computation of 2-el integrals
 For citations please refer to: http://libint.valeyev.net

 Your ORCA version has been built with support for libXC version: 5.1.0
 For citations please refer to: https://tddft.org/programs/libxc/

 This ORCA versions uses:
   CBLAS   interface :  Fast vector & matrix operations
   LAPACKE interface :  Fast linear algebra routines
   SCALAPACK package :  Parallel linear algebra routines
   Shared memory     :  Shared parallel matrices
   BLAS/LAPACK       :  OpenBLAS 0.3.15  USE64BITINT DYNAMIC_ARCH NO_AFFINITY Haswell SINGLE_THREADED
        Core in use  :  Haswell
   Copyright (c) 2011-2014, The OpenBLAS Project


Your calculation utilizes the atom-pairwise dispersion correction
with the zero-damping scheme (D30)
Cite in your paper:
S.Grimme, J.Antony, S.Ehrlich and H.Krieg, J.Chem.Phys., 132, (2010), 154104 
   

XCFun DFT library Copyright 2009-2010 Ulf Ekstrom and contributors.
See http://admol.org/xcfun for more information.
This is free software; see the source code for copying conditions.
There is ABSOLUTELY NO WARRANTY; not even for MERCHANTABILITY or FITNESS FOR A PARTICULAR PURPOSE.
For details see the documentation.
Scientific users of this library should cite U. Ekstrom, L. Visscher, R. Bast, A. J. Thorvaldsen and K. Ruud;
J.Chem.Theor.Comp. 2010, DOI: 10.1021/ct100117s
XCFun Version 0.99 

================================================================================

----- Orbital basis set information -----
Your calculation utilizes the basis: def2-SVPD
   F. Weigend and R. Ahlrichs, Phys. Chem. Chem. Phys. 7, 3297 (2005).
   D. Rappoport and F. Furche, J. Chem. Phys. 133 134105 (2010).

----- AuxJ basis set information -----
Your calculation utilizes the auxiliary basis: def2/J
   F. Weigend, Phys. Chem. Chem. Phys. 8, 1057 (2006).

================================================================================
                                        WARNINGS
                       Please study these warnings very carefully!
================================================================================


INFO   : the flag for use of the SHARK integral package has been found!

================================================================================
                                       INPUT FILE
================================================================================
NAME = C1_wt_dlpno_neg.com
|  1> !wB97X-D3 RIJCOSX def2-SVPD def2/J TightSCF CPCM(Water)
|  2> *xyz 0 1
|  3> C          4.99986       -1.59613       -5.92488
|  4> C          3.76678       -2.26611       -6.51175
|  5> C          2.49670       -1.84416       -5.73570
|  6> H          1.62642       -2.21743       -6.30895
|  7> H          2.48182       -2.45607       -4.79341
|  8> F          2.45973       -0.50920       -5.50576
|  9> H          3.88619       -3.35708       -6.53360
| 10> H          3.68560       -1.92217       -7.54713
| 11> H          5.86637       -1.89999       -6.47418
| 12> H          5.10830       -1.88372       -4.89997
| 13> H          4.89230       -0.53341       -5.98765
| 14> *
| 15> 
| 16> %MaxCore 64000
| 17> 
| 18> %pal nprocs 18
| 19> end  
| 20> 
| 21> %scf
| 22>   MaxIter 150
| 23> end
| 24> 
| 25> 
| 26>                          ****END OF INPUT****
================================================================================

                       ****************************
                       * Single Point Calculation *
                       ****************************

---------------------------------
CARTESIAN COORDINATES (ANGSTROEM)
---------------------------------
  C      4.999860   -1.596130   -5.924880
  C      3.766780   -2.266110   -6.511750
  C      2.496700   -1.844160   -5.735700
  H      1.626420   -2.217430   -6.308950
  H      2.481820   -2.456070   -4.793410
  F      2.459730   -0.509200   -5.505760
  H      3.886190   -3.357080   -6.533600
  H      3.685600   -1.922170   -7.547130
  H      5.866370   -1.899990   -6.474180
  H      5.108300   -1.883720   -4.899970
  H      4.892300   -0.533410   -5.987650

----------------------------
CARTESIAN COORDINATES (A.U.)
----------------------------
  NO LB      ZA    FRAG     MASS         X           Y           Z
   0 C     6.0000    0    12.011    9.448366   -3.016249  -11.196401
   1 C     6.0000    0    12.011    7.118183   -4.282327  -12.305424
   2 C     6.0000    0    12.011    4.718079   -3.484957  -10.838902
   3 H     1.0000    0     1.008    3.073488   -4.190335  -11.922188
   4 H     1.0000    0     1.008    4.689960   -4.641300   -9.058232
   5 F     9.0000    0    18.998    4.648216   -0.962249  -10.404379
   6 H     1.0000    0     1.008    7.343835   -6.343962  -12.346715
   7 H     1.0000    0     1.008    6.964775   -3.632375  -14.262009
   8 H     1.0000    0     1.008   11.085833   -3.590461  -12.234427
   9 H     1.0000    0     1.008    9.653288   -3.559715   -9.259601
  10 H     1.0000    0     1.008    9.245107   -1.007999  -11.315019

--------------------------------
INTERNAL COORDINATES (ANGSTROEM)
--------------------------------
 C      0   0   0     0.000000000000     0.00000000     0.00000000
 C      1   0   0     1.521110082703     0.00000000     0.00000000
 C      2   1   0     1.547061282367   110.60000472     0.00000000
 H      3   2   1     1.106947755678   107.07915659   170.42715163
 H      3   2   1     1.123639491385   106.43993875   281.07926646
 F      3   2   1     1.355122646147   112.09846273    45.34057030
 H      2   1   3     1.097702924976   110.93137330   235.43207269
 H      2   1   3     1.094027723780   106.66746513   118.58042428
 H      1   2   3     1.070000453131   109.47117749   179.99986796
 H      1   2   3     1.070003621396   109.47097718    60.00024924
 H      1   2   3     1.069992067681   109.47151897   300.00065405

---------------------------
INTERNAL COORDINATES (A.U.)
---------------------------
 C      0   0   0     0.000000000000     0.00000000     0.00000000
 C      1   0   0     2.874481475855     0.00000000     0.00000000
 C      2   1   0     2.923522136067   110.60000472     0.00000000
 H      3   2   1     2.091828102790   107.07915659   170.42715163
 H      3   2   1     2.123370911976   106.43993875   281.07926646
 F      3   2   1     2.560810679092   112.09846273    45.34057030
 H      2   1   3     2.074357904608   110.93137330   235.43207269
 H      2   1   3     2.067412780862   106.66746513   118.58042428
 H      1   2   3     2.022007819589   109.47117749   179.99986796
 H      1   2   3     2.022013806742   109.47097718    60.00024924
 H      1   2   3     2.021991973385   109.47151897   300.00065405

---------------------
BASIS SET INFORMATION
---------------------
There are 3 groups of distinct atoms

 Group   1 Type C   : 8s4p2d contracted to 4s2p2d pattern {5111/31/11}
 Group   2 Type H   : 4s2p contracted to 2s2p pattern {31/11}
 Group   3 Type F   : 8s5p2d contracted to 4s3p2d pattern {5111/311/11}

Atom   0C    basis set group =>   1
Atom   1C    basis set group =>   1
Atom   2C    basis set group =>   1
Atom   3H    basis set group =>   2
Atom   4H    basis set group =>   2
Atom   5F    basis set group =>   3
Atom   6H    basis set group =>   2
Atom   7H    basis set group =>   2
Atom   8H    basis set group =>   2
Atom   9H    basis set group =>   2
Atom  10H    basis set group =>   2
---------------------------------
AUXILIARY/J BASIS SET INFORMATION
---------------------------------
There are 3 groups of distinct atoms

 Group   1 Type C   : 12s5p4d2f1g contracted to 6s4p3d1f1g pattern {711111/2111/211/2/1}
 Group   2 Type H   : 5s2p1d contracted to 3s1p1d pattern {311/2/1}
 Group   3 Type F   : 12s5p4d2f1g contracted to 6s4p3d1f1g pattern {711111/2111/211/2/1}

Atom   0C    basis set group =>   1
Atom   1C    basis set group =>   1
Atom   2C    basis set group =>   1
Atom   3H    basis set group =>   2
Atom   4H    basis set group =>   2
Atom   5F    basis set group =>   3
Atom   6H    basis set group =>   2
Atom   7H    basis set group =>   2
Atom   8H    basis set group =>   2
Atom   9H    basis set group =>   2
Atom  10H    basis set group =>   2


           ************************************************************
           *        Program running with 18 parallel MPI-processes    *
           *              working on a common directory               *
           ************************************************************
------------------------------------------------------------------------------
                           ORCA GTO INTEGRAL CALCULATION
                           -- RI-GTO INTEGRALS CHOSEN --
------------------------------------------------------------------------------
------------------------------------------------------------------------------
                   ___                                                        
                  /   \      - P O W E R E D   B Y -                         
                 /     \                                                     
                 |  |  |   _    _      __       _____    __    __             
                 |  |  |  | |  | |    /  \     |  _  \  |  |  /  |          
                  \  \/   | |  | |   /    \    | | | |  |  | /  /          
                 / \  \   | |__| |  /  /\  \   | |_| |  |  |/  /          
                |  |  |   |  __  | /  /__\  \  |    /   |      \           
                |  |  |   | |  | | |   __   |  |    \   |  |\   \          
                \     /   | |  | | |  |  |  |  | |\  \  |  | \   \       
                 \___/    |_|  |_| |__|  |__|  |_| \__\ |__|  \__/        
                                                                              
                      - O R C A' S   B I G   F R I E N D -                    
                                      &                                       
                       - I N T E G R A L  F E E D E R -                       
                                                                              
 v1 FN, 2020, v2 2021                                                         
------------------------------------------------------------------------------


Reading SHARK input file C1_wt_dlpno_neg.SHARKINP.tmp ... ok
----------------------
SHARK INTEGRAL PACKAGE
----------------------

Number of atoms                             ...     11
Number of basis functions                   ...    139
Number of shells                            ...     61
Maximum angular momentum                    ...      2
Integral batch strategy                     ... SHARK/LIBINT Hybrid
RI-J (if used) integral strategy            ... SPLIT-RIJ (Revised 2003 algorithm where possible)
Printlevel                                  ...      1
Contraction scheme used                     ... SEGMENTED contraction
Coulomb Range Separation                    ... NOT USED
Exchange Range Separation                   ... Long Range
   Mu parameter                             ...  0.250000
   Scaling (regular/separated)              ...  0.195728  0.804272
Finite Nucleus Model                        ... NOT USED
Auxiliary Coulomb fitting basis             ... AVAILABLE
   # of basis functions in Aux-J            ...    273
   # of shells in Aux-J                     ...     95
   Maximum angular momentum in Aux-J        ...      4
Auxiliary J/K fitting basis                 ... NOT available
Auxiliary Correlation fitting basis         ... NOT available
Auxiliary 'external' fitting basis          ... NOT available
Integral threshold                          ...     2.500000e-11
Primitive cut-off                           ...     2.500000e-12
Primitive pair pre-selection threshold      ...     2.500000e-12

Calculating pre-screening integrals         ... done (  0.0 sec) Dimension = 61
Organizing shell pair data                  ... done (  0.0 sec)
Shell pair information
Total number of shell pairs                 ...      1891
Shell pairs after pre-screening             ...      1886
Total number of primitive shell pairs       ...      5023
Primitive shell pairs kept                  ...      4389
          la=0 lb=0:    462 shell pairs
          la=1 lb=0:    688 shell pairs
          la=1 lb=1:    276 shell pairs
          la=2 lb=0:    240 shell pairs
          la=2 lb=1:    184 shell pairs
          la=2 lb=2:     36 shell pairs

Calculating one electron integrals          ... done (  0.0 sec)
Calculating RI/J V-Matrix + Cholesky decomp.... done (  0.0 sec)
Calculating Nuclear repulsion               ... done (  0.0 sec) ENN=    131.424045791575 Eh

SHARK setup successfully completed in   0.2 seconds

Maximum memory used throughout the entire GTOINT-calculation: 8.8 MB


           ************************************************************
           *        Program running with 18 parallel MPI-processes    *
           *              working on a common directory               *
           ************************************************************
-------------------------------------------------------------------------------
                                 ORCA SCF
-------------------------------------------------------------------------------

------------
SCF SETTINGS
------------
Hamiltonian:
 Density Functional     Method          .... DFT(GTOs)
 Exchange Functional    Exchange        .... WB97X-D3
 Correlation Functional Correlation     .... WB97X-D3
 Gradients option       PostSCFGGA      .... off
 Hybrid DFT is turned on
   Fraction HF Exchange ScalHFX         ....  0.195728
   Scaling of DF-GGA-X  ScalDFX         ....  0.000000
   Scaling of DF-GGA-C  ScalDFC         ....  1.000000
   Scaling of DF-LDA-C  ScalLDAC        ....  1.000000
   Perturbative correction              ....  0.000000
   Density functional embedding theory  .... OFF
 Long-range corrected/Screened/Range-Separated Hybrid DFT is turned on
   Amount of maximum screened exact exchange              ....  0.804272
   Range separation parameter mu (erf(mu*r12)/r12)        ....  0.250000
 RI-approximation to the Coulomb term is turned on
   Number of AuxJ basis functions       .... 273
   RIJ-COSX (HFX calculated with COS-X)).... on


General Settings:
 Integral files         IntName         .... C1_wt_dlpno_neg
 Hartree-Fock type      HFTyp           .... RHF
 Total Charge           Charge          ....    0
 Multiplicity           Mult            ....    1
 Number of Electrons    NEL             ....   34
 Basis Dimension        Dim             ....  139
 Nuclear Repulsion      ENuc            ....    131.4240457916 Eh

Convergence Acceleration:
 DIIS                   CNVDIIS         .... on
   Start iteration      DIISMaxIt       ....    12
   Startup error        DIISStart       ....  0.200000
   # of expansion vecs  DIISMaxEq       ....     5
   Bias factor          DIISBfac        ....   1.050
   Max. coefficient     DIISMaxC        ....  10.000
 Trust-Rad. Augm. Hess. CNVTRAH         .... auto
   Auto Start mean grad. ratio tolernc. ....  1.125000
   Auto Start start iteration           ....    20
   Auto Start num. interpolation iter.  ....    10
   Max. Number of Micro iterations      ....    16
   Max. Number of Macro iterations      .... Maxiter - #DIIS iter
   Number of Davidson start vectors     ....     2
   Converg. threshold I  (grad. norm)   ....   1.000e-05
   Converg. threshold II (energy diff.) ....   1.000e-08
   Grad. Scal. Fac. for Micro threshold ....   0.100
   Minimum threshold for Micro iter.    ....   0.010
   NR start threshold (gradient norm)   ....   0.001
   Initial trust radius                 ....   0.400
   Minimum AH scaling param. (alpha)    ....   1.000
   Maximum AH scaling param. (alpha)    .... 1000.000
   Orbital update algorithm             .... Taylor
   White noise on init. David. guess    .... on
   Maximum white noise                  ....   0.010
   Quad. conv. algorithm                .... NR
 SOSCF                  CNVSOSCF        .... on
   Start iteration      SOSCFMaxIt      ....   150
   Startup grad/error   SOSCFStart      ....  0.003300
 Level Shifting         CNVShift        .... on
   Level shift para.    LevelShift      ....    0.2500
   Turn off err/grad.   ShiftErr        ....    0.0010
 Zerner damping         CNVZerner       .... off
 Static damping         CNVDamp         .... on
   Fraction old density DampFac         ....    0.7000
   Max. Damping (<1)    DampMax         ....    0.9800
   Min. Damping (>=0)   DampMin         ....    0.0000
   Turn off err/grad.   DampErr         ....    0.1000
 Fernandez-Rico         CNVRico         .... off

SCF Procedure:
 Maximum # iterations   MaxIter         ....   150
 SCF integral mode      SCFMode         .... Direct
   Integral package                     .... SHARK and LIBINT hybrid scheme
 Reset frequency        DirectResetFreq ....    20
 Integral Threshold     Thresh          ....  2.500e-11 Eh
 Primitive CutOff       TCut            ....  2.500e-12 Eh

Convergence Tolerance:
 Convergence Check Mode ConvCheckMode   .... Total+1el-Energy
 Convergence forced     ConvForced      .... 0
 Energy Change          TolE            ....  1.000e-08 Eh
 1-El. energy change                    ....  1.000e-05 Eh
 Orbital Gradient       TolG            ....  1.000e-05
 Orbital Rotation angle TolX            ....  1.000e-05
 DIIS Error             TolErr          ....  5.000e-07


Diagonalization of the overlap matrix:
Smallest eigenvalue                        ... 2.270e-04
Time for diagonalization                   ...    0.006 sec
Threshold for overlap eigenvalues          ... 1.000e-08
Number of eigenvalues below threshold      ... 0
Time for construction of square roots      ...    0.012 sec
Total time needed                          ...    0.019 sec

Time for model grid setup =    0.039 sec

------------------------------
INITIAL GUESS: MODEL POTENTIAL
------------------------------
Loading Hartree-Fock densities                     ... done
Calculating cut-offs                               ... done
Initializing the effective Hamiltonian             ... done
Setting up the integral package (SHARK)            ... done
Starting the Coulomb interaction                   ... done (   0.0 sec)
Reading the grid                                   ... done
Mapping shells                                     ... done
Starting the XC term evaluation                    ... done (   0.0 sec)
  promolecular density results
     # of electrons  =     33.995167333
     EX              =    -27.396715575
     EC              =     -1.112085803
     EX+EC           =    -28.508801377
Transforming the Hamiltonian                       ... done (   0.0 sec)
Diagonalizing the Hamiltonian                      ... done (   0.0 sec)
Back transforming the eigenvectors                 ... done (   0.0 sec)
Now organizing SCF variables                       ... done
                      ------------------
                      INITIAL GUESS DONE (   0.1 sec)
                      ------------------
-------------------
DFT GRID GENERATION
-------------------

General Integration Accuracy     IntAcc      ... 4.388
Radial Grid Type                 RadialGrid  ... OptM3 with GC (2021)
Angular Grid (max. ang.)         AngularGrid ... 4 (Lebedev-302)
Angular grid pruning method      GridPruning ... 4 (adaptive)
Weight generation scheme         WeightScheme... Becke
Basis function cutoff            BFCut       ... 1.0000e-11
Integration weight cutoff        WCut        ... 1.0000e-14
Angular grids for H and He will be reduced by one unit
Partially contracted basis set               ... off
Rotationally invariant grid construction     ... off

Total number of grid points                  ...    48577
Total number of batches                      ...      766
Average number of points per batch           ...       63
Average number of grid points per atom       ...     4416
Time for grid setup =    0.240 sec

--------------------
COSX GRID GENERATION
--------------------

GRIDX 1
-------
General Integration Accuracy     IntAcc      ... 3.816
Radial Grid Type                 RadialGrid  ... OptM3 with GC (2021)
Angular Grid (max. ang.)         AngularGrid ... 1 (Lebedev-50)
Angular grid pruning method      GridPruning ... 4 (adaptive)
Weight generation scheme         WeightScheme... Becke
Basis function cutoff            BFCut       ... 1.0000e-11
Integration weight cutoff        WCut        ... 1.0000e-14
Angular grids for H and He will be reduced by one unit
Partially contracted basis set               ... on
Rotationally invariant grid construction     ... off

Total number of grid points                  ...     6087
Total number of batches                      ...      102
Average number of points per batch           ...       59
Average number of grid points per atom       ...      553
UseSFitting                                  ... on

GRIDX 2
-------
General Integration Accuracy     IntAcc      ... 4.020
Radial Grid Type                 RadialGrid  ... OptM3 with GC (2021)
Angular Grid (max. ang.)         AngularGrid ... 2 (Lebedev-110)
Angular grid pruning method      GridPruning ... 4 (adaptive)
Weight generation scheme         WeightScheme... Becke
Basis function cutoff            BFCut       ... 1.0000e-11
Integration weight cutoff        WCut        ... 1.0000e-14
Angular grids for H and He will be reduced by one unit
Partially contracted basis set               ... on
Rotationally invariant grid construction     ... off

Total number of grid points                  ...    13726
Total number of batches                      ...      220
Average number of points per batch           ...       62
Average number of grid points per atom       ...     1248
UseSFitting                                  ... on

GRIDX 3
-------
General Integration Accuracy     IntAcc      ... 4.338
Radial Grid Type                 RadialGrid  ... OptM3 with GC (2021)
Angular Grid (max. ang.)         AngularGrid ... 3 (Lebedev-194)
Angular grid pruning method      GridPruning ... 4 (adaptive)
Weight generation scheme         WeightScheme... Becke
Basis function cutoff            BFCut       ... 1.0000e-11
Integration weight cutoff        WCut        ... 1.0000e-14
Angular grids for H and He will be reduced by one unit
Partially contracted basis set               ... on
Rotationally invariant grid construction     ... off

Total number of grid points                  ...    31404
Total number of batches                      ...      496
Average number of points per batch           ...       63
Average number of grid points per atom       ...     2855
UseSFitting                                  ... on

Time for X-Grid setup             =    0.180 sec


--------------------
CPCM SOLVATION MODEL
--------------------
CPCM parameters:
  Epsilon                                         ...      80.4000
  Refrac                                          ...       1.3300
  Rsolv                                           ...       1.3000
  Surface type                                    ... GAUSSIAN VDW
  Epsilon function type                           ...         CPCM
Radii:
 Radius for C  used is    3.8550 Bohr (=   2.0400 Ang.)
 Radius for H  used is    2.4944 Bohr (=   1.3200 Ang.)
 Radius for F  used is    3.3335 Bohr (=   1.7640 Ang.)
Calculating surface                               ...        done! (  0.0s)
GEPOL surface points                              ...          659
GEPOL Volume                                      ...     592.8680
GEPOL Surface-area                                ...     381.5655
Calculating surface distance matrix               ...        done! (  0.0s)
Performing Cholesky decomposition & store         ...        done! (  0.0s)
Overall time for CPCM initialization              ...                 0.0s
--------------
SCF ITERATIONS
--------------
ITER       Energy         Delta-E        Max-DP      RMS-DP      [F,P]     Damp
               ***  Starting incremental Fock matrix formation  ***
  0   -218.0676229720   0.000000000000 0.09725361  0.00234797  0.1624990 0.7000
  1   -218.1062893629  -0.038666390983 0.05645597  0.00152206  0.0978997 0.7000
                               ***Turning on DIIS***
  2   -218.1268580846  -0.020568721685 0.09588280  0.00289223  0.0506151 0.0000
  3   -218.1603594305  -0.033501345835 0.05188909  0.00111982  0.0367396 0.0000
  4   -218.1651260109  -0.004766580421 0.00581143  0.00015619  0.0043670 0.0000
                      *** Initiating the SOSCF procedure ***
                           *** Shutting down DIIS ***
                      *** Re-Reading the Fockian *** 
                      *** Removing any level shift *** 
ITER      Energy       Delta-E        Grad      Rot      Max-DP    RMS-DP
  5   -218.16520599  -0.0000799793  0.000406  0.000406  0.001194  0.000047
               *** Restarting incremental Fock matrix formation ***
  6   -218.16525997  -0.0000539748  0.000200  0.000298  0.000820  0.000036
  7   -218.16526085  -0.0000008888  0.000189  0.000095  0.000474  0.000013
  8   -218.16526188  -0.0000010238  0.000015  0.000034  0.000112  0.000004
  9   -218.16526189  -0.0000000098  0.000007  0.000008  0.000042  0.000001
                 **** Energy Check signals convergence ****
              ***Rediagonalizing the Fockian in SOSCF/NRSCF***

               *****************************************************
               *                     SUCCESS                       *
               *           SCF CONVERGED AFTER  10 CYCLES          *
               *****************************************************

Old exchange energy                            =     -9.146358660 Eh
New exchange energy                            =     -9.146345465 Eh
Exchange energy change after final integration =      0.000013195 Eh
Total energy after final integration           =   -218.165248697 Eh
Final COS-X integration done in                =     0.570 sec

----------------
TOTAL SCF ENERGY
----------------

Total Energy       :         -218.16524870 Eh           -5936.57823 eV

Components:
Nuclear Repulsion  :          131.42404579 Eh            3576.23010 eV
Electronic Energy  :         -349.58929449 Eh           -9512.80832 eV
One Electron Energy:         -557.69763815 Eh          -15175.72425 eV
Two Electron Energy:          208.10834366 Eh            5662.91593 eV
Max COSX asymmetry :            0.00000524 Eh               0.00014 eV
CPCM Dielectric    :           -0.00416157 Eh              -0.11324 eV

Virial components:
Potential Energy   :         -434.17363110 Eh          -11814.46514 eV
Kinetic Energy     :          216.00838240 Eh            5877.88691 eV
Virial Ratio       :            2.00998510


DFT components:
N(Alpha)           :       17.000045590015 electrons
N(Beta)            :       17.000045590015 electrons
N(Total)           :       34.000091180030 electrons
E(XC)              :      -20.134542799681 Eh       
DFET-embed. en.    :        0.000000000000 Eh       
CPCM Solvation Model Properties:
Surface-charge          :           -0.01951308
Charge-correction       :           -0.00005115 Eh              -0.00139 eV
Free-energy (cav+disp)  :  This term is not implemented in the current solvation scheme

---------------
SCF CONVERGENCE
---------------

  Last Energy change         ...   -4.6776e-09  Tolerance :   1.0000e-08
  Last MAX-Density change    ...    1.3323e-15  Tolerance :   1.0000e-07
  Last RMS-Density change    ...    2.8055e-17  Tolerance :   5.0000e-09
  Last Orbital Gradient      ...    1.0688e-06  Tolerance :   1.0000e-05
  Last Orbital Rotation      ...    2.1500e-06  Tolerance :   1.0000e-05

             **** THE GBW FILE WAS UPDATED (C1_wt_dlpno_neg.gbw) ****
             **** DENSITY C1_wt_dlpno_neg.scfp WAS UPDATED ****
             **** ENERGY FILE WAS UPDATED (C1_wt_dlpno_neg.en.tmp) ****
             **** THE GBW FILE WAS UPDATED (C1_wt_dlpno_neg.gbw) ****
             **** DENSITY C1_wt_dlpno_neg.scfp WAS UPDATED ****
----------------
ORBITAL ENERGIES
----------------

  NO   OCC          E(Eh)            E(eV) 
   0   2.0000     -24.800236      -674.8487 
   1   2.0000     -10.362598      -281.9806 
   2   2.0000     -10.285918      -279.8940 
   3   2.0000     -10.267024      -279.3799 
   4   2.0000      -1.314315       -35.7643 
   5   2.0000      -0.892329       -24.2815 
   6   2.0000      -0.792000       -21.5514 
   7   2.0000      -0.696215       -18.9450 
   8   2.0000      -0.617470       -16.8022 
   9   2.0000      -0.601372       -16.3642 
  10   2.0000      -0.580442       -15.7946 
  11   2.0000      -0.533707       -14.5229 
  12   2.0000      -0.494859       -13.4658 
  13   2.0000      -0.466215       -12.6863 
  14   2.0000      -0.444799       -12.1036 
  15   2.0000      -0.415942       -11.3184 
  16   2.0000      -0.411103       -11.1867 
  17   0.0000       0.098604         2.6832 
  18   0.0000       0.124723         3.3939 
  19   0.0000       0.132237         3.5984 
  20   0.0000       0.151623         4.1259 
  21   0.0000       0.174897         4.7592 
  22   0.0000       0.181982         4.9520 
  23   0.0000       0.197803         5.3825 
  24   0.0000       0.204325         5.5600 
  25   0.0000       0.215800         5.8722 
  26   0.0000       0.235391         6.4053 
  27   0.0000       0.249229         6.7819 
  28   0.0000       0.257406         7.0044 
  29   0.0000       0.263769         7.1775 
  30   0.0000       0.271492         7.3877 
  31   0.0000       0.277229         7.5438 
  32   0.0000       0.285443         7.7673 
  33   0.0000       0.312996         8.5170 
  34   0.0000       0.324992         8.8435 
  35   0.0000       0.361498         9.8369 
  36   0.0000       0.372052        10.1240 
  37   0.0000       0.382543        10.4095 
  38   0.0000       0.386329        10.5125 
  39   0.0000       0.389934        10.6106 
  40   0.0000       0.408502        11.1159 
  41   0.0000       0.422049        11.4845 
  42   0.0000       0.431266        11.7353 
  43   0.0000       0.436142        11.8680 
  44   0.0000       0.438801        11.9404 
  45   0.0000       0.452806        12.3215 
  46   0.0000       0.455978        12.4078 
  47   0.0000       0.464969        12.6525 
  48   0.0000       0.472006        12.8439 
  49   0.0000       0.474419        12.9096 
  50   0.0000       0.497583        13.5399 
  51   0.0000       0.502854        13.6833 
  52   0.0000       0.516964        14.0673 
  53   0.0000       0.544527        14.8173 
  54   0.0000       0.549937        14.9645 
  55   0.0000       0.561490        15.2789 
  56   0.0000       0.566536        15.4162 
  57   0.0000       0.579080        15.7576 
  58   0.0000       0.580342        15.7919 
  59   0.0000       0.591226        16.0881 
  60   0.0000       0.610295        16.6070 
  61   0.0000       0.617915        16.8143 
  62   0.0000       0.624995        17.0070 
  63   0.0000       0.635264        17.2864 
  64   0.0000       0.646184        17.5836 
  65   0.0000       0.655765        17.8443 
  66   0.0000       0.667036        18.1510 
  67   0.0000       0.674370        18.3505 
  68   0.0000       0.706259        19.2183 
  69   0.0000       0.736916        20.0525 
  70   0.0000       0.825798        22.4711 
  71   0.0000       0.836515        22.7627 
  72   0.0000       0.886900        24.1338 
  73   0.0000       0.906629        24.6706 
  74   0.0000       0.931265        25.3410 
  75   0.0000       0.950888        25.8750 
  76   0.0000       0.983608        26.7653 
  77   0.0000       0.997595        27.1459 
  78   0.0000       1.051081        28.6014 
  79   0.0000       1.067596        29.0508 
  80   0.0000       1.090996        29.6875 
  81   0.0000       1.124373        30.5957 
  82   0.0000       1.126939        30.6656 
  83   0.0000       1.132984        30.8301 
  84   0.0000       1.157942        31.5092 
  85   0.0000       1.171056        31.8661 
  86   0.0000       1.205454        32.8021 
  87   0.0000       1.257386        34.2152 
  88   0.0000       1.279598        34.8196 
  89   0.0000       1.348713        36.7004 
  90   0.0000       1.368774        37.2462 
  91   0.0000       1.386658        37.7329 
  92   0.0000       1.407314        38.2949 
  93   0.0000       1.460569        39.7441 
  94   0.0000       1.653438        44.9923 
  95   0.0000       1.685409        45.8623 
  96   0.0000       1.705653        46.4132 
  97   0.0000       1.726805        46.9887 
  98   0.0000       1.767072        48.0845 
  99   0.0000       1.783944        48.5436 
 100   0.0000       1.814214        49.3673 
 101   0.0000       1.843468        50.1633 
 102   0.0000       1.927612        52.4530 
 103   0.0000       1.948448        53.0200 
 104   0.0000       1.957651        53.2704 
 105   0.0000       2.007342        54.6225 
 106   0.0000       2.045861        55.6707 
 107   0.0000       2.062256        56.1168 
 108   0.0000       2.100749        57.1643 
 109   0.0000       2.114177        57.5297 
 110   0.0000       2.134508        58.0829 
 111   0.0000       2.164314        58.8940 
 112   0.0000       2.184853        59.4529 
 113   0.0000       2.229324        60.6630 
 114   0.0000       2.251607        61.2693 
 115   0.0000       2.331101        63.4325 
 116   0.0000       2.370738        64.5111 
 117   0.0000       2.419974        65.8508 
 118   0.0000       2.490515        67.7704 
 119   0.0000       2.531610        68.8886 
 120   0.0000       2.551486        69.4295 
 121   0.0000       2.596885        70.6648 
 122   0.0000       2.649075        72.0850 
 123   0.0000       2.703342        73.5617 
 124   0.0000       2.773172        75.4618 
 125   0.0000       2.797983        76.1370 
 126   0.0000       2.817306        76.6628 
 127   0.0000       2.934761        79.8589 
 128   0.0000       3.084023        83.9205 
 129   0.0000       3.127552        85.1050 
 130   0.0000       3.167034        86.1794 
 131   0.0000       3.204180        87.1902 
 132   0.0000       3.281750        89.3010 
 133   0.0000       3.311415        90.1082 
 134   0.0000       3.510849        95.5351 
 135   0.0000       3.542325        96.3916 
 136   0.0000       3.597551        97.8943 
 137   0.0000       3.618068        98.4526 
 138   0.0000       4.035321       109.8067 

                    ********************************
                    * MULLIKEN POPULATION ANALYSIS *
                    ********************************

-----------------------
MULLIKEN ATOMIC CHARGES
-----------------------
   0 C :    0.514080
   1 C :   -0.538693
   2 C :    0.639950
   3 H :   -0.031474
   4 H :    0.045132
   5 F :   -0.465485
   6 H :   -0.045863
   7 H :   -0.013174
   8 H :   -0.058245
   9 H :   -0.042396
  10 H :   -0.003833
Sum of atomic charges:    0.0000000

--------------------------------
MULLIKEN REDUCED ORBITAL CHARGES
--------------------------------
  0 C s       :     2.526293  s :     2.526293
      pz      :     0.931805  p :     2.839951
      px      :     0.942526
      py      :     0.965620
      dz2     :     0.031230  d :     0.119676
      dxz     :     0.045094
      dyz     :     0.002914
      dx2y2   :     0.029008
      dxy     :     0.011430
  1 C s       :     2.945457  s :     2.945457
      pz      :     1.036739  p :     3.104406
      px      :     1.062504
      py      :     1.005163
      dz2     :     0.110773  d :     0.488831
      dxz     :     0.099553
      dyz     :     0.019537
      dx2y2   :     0.176056
      dxy     :     0.082912
  2 C s       :     2.721393  s :     2.721393
      pz      :     0.981412  p :     2.481526
      px      :     0.960816
      py      :     0.539297
      dz2     :     0.034535  d :     0.157131
      dxz     :     0.023450
      dyz     :     0.036023
      dx2y2   :     0.013997
      dxy     :     0.049126
  3 H s       :     0.993566  s :     0.993566
      pz      :     0.014391  p :     0.037908
      px      :     0.024669
      py      :    -0.001152
  4 H s       :     0.918139  s :     0.918139
      pz      :     0.037392  p :     0.036729
      px      :    -0.010243
      py      :     0.009580
  5 F s       :     3.976475  s :     3.976475
      pz      :     1.955350  p :     5.447713
      px      :     1.974380
      py      :     1.517983
      dz2     :     0.002331  d :     0.041297
      dxz     :     0.001366
      dyz     :     0.015988
      dx2y2   :     0.010333
      dxy     :     0.011279
  6 H s       :     1.010162  s :     1.010162
      pz      :    -0.010452  p :     0.035701
      px      :    -0.006744
      py      :     0.052897
  7 H s       :     0.993047  s :     0.993047
      pz      :     0.056312  p :     0.020128
      px      :    -0.020411
      py      :    -0.015773
  8 H s       :     1.031928  s :     1.031928
      pz      :     0.009475  p :     0.026317
      px      :     0.019708
      py      :    -0.002866
  9 H s       :     1.004690  s :     1.004690
      pz      :     0.049112  p :     0.037705
      px      :    -0.003149
      py      :    -0.008258
 10 H s       :     0.955823  s :     0.955823
      pz      :    -0.017026  p :     0.048010
      px      :     0.008530
      py      :     0.056506


                     *******************************
                     * LOEWDIN POPULATION ANALYSIS *
                     *******************************

----------------------
LOEWDIN ATOMIC CHARGES
----------------------
   0 C :    0.105363
   1 C :   -0.063308
   2 C :    0.098802
   3 H :    0.034328
   4 H :    0.046749
   5 F :   -0.228664
   6 H :    0.033676
   7 H :    0.022087
   8 H :   -0.015674
   9 H :   -0.012630
  10 H :   -0.020729

-------------------------------
LOEWDIN REDUCED ORBITAL CHARGES
-------------------------------
  0 C s       :     2.699391  s :     2.699391
      pz      :     0.933374  p :     2.779121
      px      :     0.910430
      py      :     0.935317
      dz2     :     0.096872  d :     0.416126
      dxz     :     0.096090
      dyz     :     0.030427
      dx2y2   :     0.119483
      dxy     :     0.073255
  1 C s       :     2.698765  s :     2.698765
      pz      :     0.918586  p :     2.725399
      px      :     0.887050
      py      :     0.919763
      dz2     :     0.161318  d :     0.639145
      dxz     :     0.144346
      dyz     :     0.047006
      dx2y2   :     0.188687
      dxy     :     0.097788
  2 C s       :     2.679127  s :     2.679127
      pz      :     0.916577  p :     2.503683
      px      :     0.916588
      py      :     0.670517
      dz2     :     0.108176  d :     0.718388
      dxz     :     0.101199
      dyz     :     0.168858
      dx2y2   :     0.180994
      dxy     :     0.159163
  3 H s       :     0.736877  s :     0.736877
      pz      :     0.085856  p :     0.228794
      px      :     0.099019
      py      :     0.043919
  4 H s       :     0.730648  s :     0.730648
      pz      :     0.107397  p :     0.222603
      px      :     0.060876
      py      :     0.054330
  5 F s       :     3.647642  s :     3.647642
      pz      :     1.874149  p :     5.343187
      px      :     1.881100
      py      :     1.587938
      dz2     :     0.020134  d :     0.237835
      dxz     :     0.006364
      dyz     :     0.078382
      dx2y2   :     0.059646
      dxy     :     0.073309
  6 H s       :     0.729009  s :     0.729009
      pz      :     0.064035  p :     0.237316
      px      :     0.054227
      py      :     0.119054
  7 H s       :     0.731630  s :     0.731630
      pz      :     0.113126  p :     0.246283
      px      :     0.059162
      py      :     0.073995
  8 H s       :     0.744116  s :     0.744116
      pz      :     0.089165  p :     0.271558
      px      :     0.104427
      py      :     0.077967
  9 H s       :     0.742000  s :     0.742000
      pz      :     0.125306  p :     0.270630
      px      :     0.069603
      py      :     0.075721
 10 H s       :     0.735821  s :     0.735821
      pz      :     0.073280  p :     0.284908
      px      :     0.082763
      py      :     0.128866


                      *****************************
                      * MAYER POPULATION ANALYSIS *
                      *****************************

  NA   - Mulliken gross atomic population
  ZA   - Total nuclear charge
  QA   - Mulliken gross atomic charge
  VA   - Mayer's total valence
  BVA  - Mayer's bonded valence
  FA   - Mayer's free valence

  ATOM       NA         ZA         QA         VA         BVA        FA
  0 C      5.4859     6.0000     0.5141     3.9840     3.9840     0.0000
  1 C      6.5387     6.0000    -0.5387     5.1493     5.1493     0.0000
  2 C      5.3600     6.0000     0.6400     3.8646     3.8646    -0.0000
  3 H      1.0315     1.0000    -0.0315     1.0823     1.0823     0.0000
  4 H      0.9549     1.0000     0.0451     1.0667     1.0667     0.0000
  5 F      9.4655     9.0000    -0.4655     0.7884     0.7884    -0.0000
  6 H      1.0459     1.0000    -0.0459     1.1219     1.1219     0.0000
  7 H      1.0132     1.0000    -0.0132     1.0609     1.0609    -0.0000
  8 H      1.0582     1.0000    -0.0582     1.0342     1.0342     0.0000
  9 H      1.0424     1.0000    -0.0424     1.0889     1.0889     0.0000
 10 H      1.0038     1.0000    -0.0038     1.0950     1.0950     0.0000

  Mayer bond orders larger than 0.100000
B(  0-C ,  1-C ) :   1.2849 B(  0-C ,  8-H ) :   0.8574 B(  0-C ,  9-H ) :   0.8479 
B(  0-C , 10-H ) :   0.8364 B(  1-C ,  2-C ) :   1.1546 B(  1-C ,  6-H ) :   1.0046 
B(  1-C ,  7-H ) :   0.9583 B(  1-C ,  8-H ) :   0.1691 B(  1-C ,  9-H ) :   0.1603 
B(  1-C , 10-H ) :   0.1605 B(  2-C ,  3-H ) :   0.9489 B(  2-C ,  4-H ) :   0.9108 
B(  2-C ,  5-F ) :   0.7109 

-------
TIMINGS
-------

Total SCF time: 0 days 0 hours 0 min 5 sec 

Total time                  ....       5.413 sec
Sum of individual times     ....       5.202 sec  ( 96.1%)

Fock matrix formation       ....       4.613 sec  ( 85.2%)
  Split-RI-J                ....       0.327 sec  (  7.1% of F)
  Chain of spheres X        ....       2.896 sec  ( 62.8% of F)
  XC integration            ....       0.520 sec  ( 11.3% of F)
    Basis function eval.    ....       0.137 sec  ( 26.3% of XC)
    Density eval.           ....       0.089 sec  ( 17.0% of XC)
    XC-Functional eval.     ....       0.049 sec  (  9.4% of XC)
    XC-Potential eval.      ....       0.125 sec  ( 24.0% of XC)
Diagonalization             ....       0.036 sec  (  0.7%)
Density matrix formation    ....       0.005 sec  (  0.1%)
Population analysis         ....       0.006 sec  (  0.1%)
Initial guess               ....       0.032 sec  (  0.6%)
Orbital Transformation      ....       0.000 sec  (  0.0%)
Orbital Orthonormalization  ....       0.000 sec  (  0.0%)
DIIS solution               ....       0.029 sec  (  0.5%)
SOSCF solution              ....       0.023 sec  (  0.4%)
Grid generation             ....       0.459 sec  (  8.5%)

Maximum memory used throughout the entire SCF-calculation: 48.8 MB


-------------------------------------------------------------------------------
                          DFT DISPERSION CORRECTION                            
                                                                               
                              DFTD3 V3.1  Rev 1                                
                              USING zero damping                               
-------------------------------------------------------------------------------
The omegaB97X-D3 functional is recognized. Fit by Chai et al.
Active option DFTDOPT                   ...         3   

molecular C6(AA) [au] = 763.251434 


            DFT-D V3
 parameters
 s6 scaling factor         :     1.0000 
 rs6 scaling factor        :     1.2810 
 s8 scaling factor         :     1.0000 
 rs8 scaling factor        :     1.0940 
 Damping factor alpha6     :    14.0000 
 Damping factor alpha8     :    16.0000 
 ad hoc parameters k1-k3   :    16.0000     1.3333    -4.0000 

 Edisp/kcal,au: -1.203701218963  -0.001918219788 
 E6   /kcal   :  -0.411901278 
 E8   /kcal   :  -0.791799941 
 % E8         :  65.780438562 

-------------------------   ----------------
Dispersion correction           -0.001918220
-------------------------   ----------------


-------------------------   --------------------
FINAL SINGLE POINT ENERGY      -218.167166916744
-------------------------   --------------------


                            ***************************************
                            *     ORCA property calculations      *
                            ***************************************

                                    ---------------------
                                    Active property flags
                                    ---------------------
   (+) Dipole Moment


------------------------------------------------------------------------------
                       ORCA ELECTRIC PROPERTIES CALCULATION
------------------------------------------------------------------------------

Dipole Moment Calculation                       ... on
Quadrupole Moment Calculation                   ... off
Polarizability Calculation                      ... off
GBWName                                         ... C1_wt_dlpno_neg.gbw
Electron density file                           ... C1_wt_dlpno_neg.scfp
The origin for moment calculation is the CENTER OF MASS  = ( 6.385060, -2.818363 -11.132286)

-------------
DIPOLE MOMENT
-------------
                                X             Y             Z
Electronic contribution:     -4.39994       3.66069       1.38408
Nuclear contribution   :      4.50596      -4.50325      -1.58424
                        -----------------------------------------
Total Dipole Moment    :      0.10603      -0.84256      -0.20016
                        -----------------------------------------
Magnitude (a.u.)       :      0.87247
Magnitude (Debye)      :      2.21765



--------------------
Rotational spectrum 
--------------------
 
Rotational constants in cm-1:     0.464063     0.182606     0.146573 
Rotational constants in MHz : 13912.251583  5474.398056  4394.141907 

 Dipole components along the rotational axes: 
x,y,z [a.u.] :     0.456833    -0.723966    -0.168485 
x,y,z [Debye]:     1.161178    -1.840174    -0.428255 

 

Timings for individual modules:

Sum of individual times         ...        6.516 sec (=   0.109 min)
GTO integral calculation        ...        0.700 sec (=   0.012 min)  10.7 %
SCF iterations                  ...        5.816 sec (=   0.097 min)  89.3 %
                             ****ORCA TERMINATED NORMALLY****
TOTAL RUN TIME: 0 days 0 hours 0 minutes 7 seconds 90 msec
