
                                        *****************
                                        * O   R   C   A *
                                        *****************

                                            #,                                       
                                            ###                                      
                                            ####                                     
                                            #####                                    
                                            ######                                   
                                           ########,                                 
                                     ,,################,,,,,                         
                               ,,#################################,,                 
                          ,,##########################################,,             
                       ,#########################################, ''#####,          
                    ,#############################################,,   '####,        
                  ,##################################################,,,,####,       
                ,###########''''           ''''###############################       
              ,#####''   ,,,,##########,,,,          '''####'''          '####       
            ,##' ,,,,###########################,,,                        '##       
           ' ,,###''''                  '''############,,,                           
         ,,##''                                '''############,,,,        ,,,,,,###''
      ,#''                                            '''#######################'''  
     '                                                          ''''####''''         
             ,#######,   #######,   ,#######,      ##                                
            ,#'     '#,  ##    ##  ,#'     '#,    #''#        ######   ,####,        
            ##       ##  ##   ,#'  ##            #'  '#       #        #'  '#        
            ##       ##  #######   ##           ,######,      #####,   #    #        
            '#,     ,#'  ##    ##  '#,     ,#' ,#      #,         ##   #,  ,#        
             '#######'   ##     ##  '#######'  #'      '#     #####' # '####'        



                  #######################################################
                  #                        -***-                        #
                  #          Department of theory and spectroscopy      #
                  #    Directorship and core code : Frank Neese         #
                  #        Max Planck Institute fuer Kohlenforschung    #
                  #                Kaiser Wilhelm Platz 1               #
                  #                 D-45470 Muelheim/Ruhr               #
                  #                      Germany                        #
                  #                                                     #
                  #                  All rights reserved                #
                  #                        -***-                        #
                  #######################################################


                         Program Version 5.0.0 -  RELEASE  -
                                (SVN: $Rev: 19529$)
                ($Date: 2021-06-28 11:36:33 +0200 (Mo, 28 Jun 2021) $)


 With contributions from (in alphabetic order):
   Daniel Aravena         : Magnetic Suceptibility
   Michael Atanasov       : Ab Initio Ligand Field Theory (pilot matlab implementation)
   Alexander A. Auer      : GIAO ZORA, VPT2 properties, NMR spectrum
   Ute Becker             : Parallelization
   Giovanni Bistoni       : ED, misc. LED, open-shell LED, HFLD
   Martin Brehm           : Molecular dynamics
   Dmytro Bykov           : SCF Hessian
   Vijay G. Chilkuri      : MRCI spin determinant printing, contributions to CSF-ICE
   Dipayan Datta          : RHF DLPNO-CCSD density
   Achintya Kumar Dutta   : EOM-CC, STEOM-CC
   Dmitry Ganyushin       : Spin-Orbit,Spin-Spin,Magnetic field MRCI
   Miquel Garcia          : C-PCM Hessian, Gaussian charge scheme
   Yang Guo               : DLPNO-NEVPT2, F12-NEVPT2, CIM, IAO-localization
   Andreas Hansen         : Spin unrestricted coupled pair/coupled cluster methods
   Benjamin Helmich-Paris : MC-RPA, TRAH-SCF, COSX integrals
   Lee Huntington         : MR-EOM, pCC
   Robert Izsak           : Overlap fitted RIJCOSX, COSX-SCS-MP3, EOM
   Marcus Kettner         : VPT2
   Christian Kollmar      : KDIIS, OOCD, Brueckner-CCSD(T), CCSD density, CASPT2, CASPT2-K
   Simone Kossmann        : Meta GGA functionals, TD-DFT gradient, OOMP2, MP2 Hessian
   Martin Krupicka        : Initial AUTO-CI
   Lucas Lang             : DCDCAS
   Marvin Lechner         : AUTO-CI (C++ implementation), FIC-MRCC
   Dagmar Lenk            : GEPOL surface, SMD
   Dimitrios Liakos       : Extrapolation schemes; Compound Job, initial MDCI parallelization
   Dimitrios Manganas     : Further ROCIS development; embedding schemes
   Dimitrios Pantazis     : SARC Basis sets
   Anastasios Papadopoulos: AUTO-CI, single reference methods and gradients
   Taras Petrenko         : DFT Hessian,TD-DFT gradient, ASA, ECA, R-Raman, ABS, FL, XAS/XES, NRVS
   Peter Pinski           : DLPNO-MP2, DLPNO-MP2 Gradient
   Christoph Reimann      : Effective Core Potentials
   Marius Retegan         : Local ZFS, SOC
   Christoph Riplinger    : Optimizer, TS searches, QM/MM, DLPNO-CCSD(T), (RO)-DLPNO pert. Triples
   Tobias Risthaus        : Range-separated hybrids, TD-DFT gradient, RPA, STAB
   Michael Roemelt        : Original ROCIS implementation
   Masaaki Saitow         : Open-shell DLPNO-CCSD energy and density
   Barbara Sandhoefer     : DKH picture change effects
   Avijit Sen             : IP-ROCIS
   Kantharuban Sivalingam : CASSCF convergence, NEVPT2, FIC-MRCI
   Bernardo de Souza      : ESD, SOC TD-DFT
   Georgi Stoychev        : AutoAux, RI-MP2 NMR
   Willem Van den Heuvel  : Paramagnetic NMR
   Boris Wezisla          : Elementary symmetry handling
   Frank Wennmohs         : Technical directorship


 We gratefully acknowledge several colleagues who have allowed us to
 interface, adapt or use parts of their codes:
   Stefan Grimme, W. Hujo, H. Kruse, P. Pracht,  : VdW corrections, initial TS optimization,
                  C. Bannwarth, S. Ehlert          DFT functionals, gCP, sTDA/sTD-DF
   Ed Valeev, F. Pavosevic, A. Kumar             : LibInt (2-el integral package), F12 methods
   Garnet Chan, S. Sharma, J. Yang, R. Olivares  : DMRG
   Ulf Ekstrom                                   : XCFun DFT Library
   Mihaly Kallay                                 : mrcc  (arbitrary order and MRCC methods)
   Jiri Pittner, Ondrej Demel                    : Mk-CCSD
   Frank Weinhold                                : gennbo (NPA and NBO analysis)
   Christopher J. Cramer and Donald G. Truhlar   : smd solvation model
   Lars Goerigk                                  : TD-DFT with DH, B97 family of functionals
   V. Asgeirsson, H. Jonsson                     : NEB implementation
   FAccTs GmbH                                   : IRC, NEB, NEB-TS, DLPNO-Multilevel, CI-OPT
                                                   MM, QMMM, 2- and 3-layer-ONIOM, Crystal-QMMM,
                                                   LR-CPCM, SF, NACMEs, symmetry and pop. for TD-DFT,
                                                   nearIR, NL-DFT gradient (VV10), updates on ESD,
                                                   ML-optimized integration grids
   S Lehtola, MJT Oliveira, MAL Marques          : LibXC Library
   Liviu Ungur et al                             : ANISO software


 Your calculation uses the libint2 library for the computation of 2-el integrals
 For citations please refer to: http://libint.valeyev.net

 Your ORCA version has been built with support for libXC version: 5.1.0
 For citations please refer to: https://tddft.org/programs/libxc/

 This ORCA versions uses:
   CBLAS   interface :  Fast vector & matrix operations
   LAPACKE interface :  Fast linear algebra routines
   SCALAPACK package :  Parallel linear algebra routines
   Shared memory     :  Shared parallel matrices
   BLAS/LAPACK       :  OpenBLAS 0.3.15  USE64BITINT DYNAMIC_ARCH NO_AFFINITY Haswell SINGLE_THREADED
        Core in use  :  Haswell
   Copyright (c) 2011-2014, The OpenBLAS Project


Your calculation utilizes the atom-pairwise dispersion correction
with the zero-damping scheme (D30)
Cite in your paper:
S.Grimme, J.Antony, S.Ehrlich and H.Krieg, J.Chem.Phys., 132, (2010), 154104 
   

XCFun DFT library Copyright 2009-2010 Ulf Ekstrom and contributors.
See http://admol.org/xcfun for more information.
This is free software; see the source code for copying conditions.
There is ABSOLUTELY NO WARRANTY; not even for MERCHANTABILITY or FITNESS FOR A PARTICULAR PURPOSE.
For details see the documentation.
Scientific users of this library should cite U. Ekstrom, L. Visscher, R. Bast, A. J. Thorvaldsen and K. Ruud;
J.Chem.Theor.Comp. 2010, DOI: 10.1021/ct100117s
XCFun Version 0.99 

================================================================================

----- Orbital basis set information -----
Your calculation utilizes the basis: def2-SVPD
   F. Weigend and R. Ahlrichs, Phys. Chem. Chem. Phys. 7, 3297 (2005).
   D. Rappoport and F. Furche, J. Chem. Phys. 133 134105 (2010).

----- AuxJ basis set information -----
Your calculation utilizes the auxiliary basis: def2/J
   F. Weigend, Phys. Chem. Chem. Phys. 8, 1057 (2006).

================================================================================
                                        WARNINGS
                       Please study these warnings very carefully!
================================================================================


INFO   : the flag for use of the SHARK integral package has been found!

================================================================================
                                       INPUT FILE
================================================================================
NAME = C1_wt_wb97_typm1_pos.com
|  1> !wB97X-D3 RIJCOSX def2-SVPD def2/J TightSCF 
|  2> *xyz 0 1 
|  3> C          3.95643        0.50147       -0.37910
|  4> C          3.80389        1.96157       -0.15675
|  5> H          4.20643        2.24441        0.74536
|  6> H          2.80827        2.21132       -0.09610
|  7> H          4.28076        2.50155       -0.89104
|  8> H          3.52890        0.23799       -1.32393
|  9> H          3.45469       -0.03240        0.40073
| 10> H          4.99562        0.24661       -0.37434
| 11> *
| 12> 
| 13> %MaxCore 64000
| 14> %pal nprocs 8
| 15> end  
| 16> 
| 17> %scf
| 18>   MaxIter 150
| 19> end
| 20> 
| 21> 
| 22>                          ****END OF INPUT****
================================================================================

                       ****************************
                       * Single Point Calculation *
                       ****************************

---------------------------------
CARTESIAN COORDINATES (ANGSTROEM)
---------------------------------
  C      3.956430    0.501470   -0.379100
  C      3.803890    1.961570   -0.156750
  H      4.206430    2.244410    0.745360
  H      2.808270    2.211320   -0.096100
  H      4.280760    2.501550   -0.891040
  H      3.528900    0.237990   -1.323930
  H      3.454690   -0.032400    0.400730
  H      4.995620    0.246610   -0.374340

----------------------------
CARTESIAN COORDINATES (A.U.)
----------------------------
  NO LB      ZA    FRAG     MASS         X           Y           Z
   0 C     6.0000    0    12.011    7.476569    0.947641   -0.716395
   1 C     6.0000    0    12.011    7.188310    3.706830   -0.296215
   2 H     1.0000    0     1.008    7.949001    4.241320    1.408526
   3 H     1.0000    0     1.008    5.306861    4.178789   -0.181603
   4 H     1.0000    0     1.008    8.089464    4.727244   -1.683822
   5 H     1.0000    0     1.008    6.668655    0.449736   -2.501865
   6 H     1.0000    0     1.008    6.528418   -0.061227    0.757270
   7 H     1.0000    0     1.008    9.440354    0.466025   -0.707400

--------------------------------
INTERNAL COORDINATES (ANGSTROEM)
--------------------------------
 C      0   0   0     0.000000000000     0.00000000     0.00000000
 C      1   0   0     1.484789542023     0.00000000     0.00000000
 H      2   1   0     1.027540446552   111.21738370     0.00000000
 H      2   1   3     1.028257102771   110.31340383   243.77562827
 H      2   1   3     1.028671571202   111.20331859   119.76660025
 H      1   2   3     1.070003429995   109.47114559   180.00016619
 H      1   2   3     1.069997679156   109.47118923    60.00022617
 H      1   2   3     1.069996323966   109.47151232   300.00020349

---------------------------
INTERNAL COORDINATES (A.U.)
---------------------------
 C      0   0   0     0.000000000000     0.00000000     0.00000000
 C      1   0   0     2.805845600933     0.00000000     0.00000000
 H      2   1   0     1.941770035510   111.21738370     0.00000000
 H      2   1   3     1.943124319497   110.31340383   243.77562827
 H      2   1   3     1.943907551323   111.20331859   119.76660025
 H      1   2   3     2.022013445046   109.47114559   180.00016619
 H      1   2   3     2.022002577537   109.47118923    60.00022617
 H      1   2   3     2.022000016598   109.47151232   300.00020349

---------------------
BASIS SET INFORMATION
---------------------
There are 2 groups of distinct atoms

 Group   1 Type C   : 8s4p2d contracted to 4s2p2d pattern {5111/31/11}
 Group   2 Type H   : 4s2p contracted to 2s2p pattern {31/11}

Atom   0C    basis set group =>   1
Atom   1C    basis set group =>   1
Atom   2H    basis set group =>   2
Atom   3H    basis set group =>   2
Atom   4H    basis set group =>   2
Atom   5H    basis set group =>   2
Atom   6H    basis set group =>   2
Atom   7H    basis set group =>   2
---------------------------------
AUXILIARY/J BASIS SET INFORMATION
---------------------------------
There are 2 groups of distinct atoms

 Group   1 Type C   : 12s5p4d2f1g contracted to 6s4p3d1f1g pattern {711111/2111/211/2/1}
 Group   2 Type H   : 5s2p1d contracted to 3s1p1d pattern {311/2/1}

Atom   0C    basis set group =>   1
Atom   1C    basis set group =>   1
Atom   2H    basis set group =>   2
Atom   3H    basis set group =>   2
Atom   4H    basis set group =>   2
Atom   5H    basis set group =>   2
Atom   6H    basis set group =>   2
Atom   7H    basis set group =>   2


           ************************************************************
           *        Program running with 8 parallel MPI-processes     *
           *              working on a common directory               *
           ************************************************************
------------------------------------------------------------------------------
                           ORCA GTO INTEGRAL CALCULATION
                           -- RI-GTO INTEGRALS CHOSEN --
------------------------------------------------------------------------------
------------------------------------------------------------------------------
                   ___                                                        
                  /   \      - P O W E R E D   B Y -                         
                 /     \                                                     
                 |  |  |   _    _      __       _____    __    __             
                 |  |  |  | |  | |    /  \     |  _  \  |  |  /  |          
                  \  \/   | |  | |   /    \    | | | |  |  | /  /          
                 / \  \   | |__| |  /  /\  \   | |_| |  |  |/  /          
                |  |  |   |  __  | /  /__\  \  |    /   |      \           
                |  |  |   | |  | | |   __   |  |    \   |  |\   \          
                \     /   | |  | | |  |  |  |  | |\  \  |  | \   \       
                 \___/    |_|  |_| |__|  |__|  |_| \__\ |__|  \__/        
                                                                              
                      - O R C A' S   B I G   F R I E N D -                    
                                      &                                       
                       - I N T E G R A L  F E E D E R -                       
                                                                              
 v1 FN, 2020, v2 2021                                                         
------------------------------------------------------------------------------


Reading SHARK input file C1_wt_wb97_typm1_pos.SHARKINP.tmp ... ok
----------------------
SHARK INTEGRAL PACKAGE
----------------------

Number of atoms                             ...      8
Number of basis functions                   ...     88
Number of shells                            ...     40
Maximum angular momentum                    ...      2
Integral batch strategy                     ... SHARK/LIBINT Hybrid
RI-J (if used) integral strategy            ... SPLIT-RIJ (Revised 2003 algorithm where possible)
Printlevel                                  ...      1
Contraction scheme used                     ... SEGMENTED contraction
Coulomb Range Separation                    ... NOT USED
Exchange Range Separation                   ... Long Range
   Mu parameter                             ...  0.250000
   Scaling (regular/separated)              ...  0.195728  0.804272
Finite Nucleus Model                        ... NOT USED
Auxiliary Coulomb fitting basis             ... AVAILABLE
   # of basis functions in Aux-J            ...    164
   # of shells in Aux-J                     ...     60
   Maximum angular momentum in Aux-J        ...      4
Auxiliary J/K fitting basis                 ... NOT available
Auxiliary Correlation fitting basis         ... NOT available
Auxiliary 'external' fitting basis          ... NOT available
Integral threshold                          ...     2.500000e-11
Primitive cut-off                           ...     2.500000e-12
Primitive pair pre-selection threshold      ...     2.500000e-12

Calculating pre-screening integrals         ... done (  0.0 sec) Dimension = 40
Organizing shell pair data                  ... done (  0.0 sec)
Shell pair information
Total number of shell pairs                 ...       820
Shell pairs after pre-screening             ...       820
Total number of primitive shell pairs       ...      2124
Primitive shell pairs kept                  ...      1991
          la=0 lb=0:    210 shell pairs
          la=1 lb=0:    320 shell pairs
          la=1 lb=1:    136 shell pairs
          la=2 lb=0:     80 shell pairs
          la=2 lb=1:     64 shell pairs
          la=2 lb=2:     10 shell pairs

Calculating one electron integrals          ... done (  0.0 sec)
Calculating RI/J V-Matrix + Cholesky decomp.... done (  0.0 sec)
Calculating Nuclear repulsion               ... done (  0.0 sec) ENN=     43.812493980689 Eh

SHARK setup successfully completed in   0.1 seconds

Maximum memory used throughout the entire GTOINT-calculation: 8.7 MB


           ************************************************************
           *        Program running with 8 parallel MPI-processes     *
           *              working on a common directory               *
           ************************************************************
-------------------------------------------------------------------------------
                                 ORCA SCF
-------------------------------------------------------------------------------

------------
SCF SETTINGS
------------
Hamiltonian:
 Density Functional     Method          .... DFT(GTOs)
 Exchange Functional    Exchange        .... WB97X-D3
 Correlation Functional Correlation     .... WB97X-D3
 Gradients option       PostSCFGGA      .... off
 Hybrid DFT is turned on
   Fraction HF Exchange ScalHFX         ....  0.195728
   Scaling of DF-GGA-X  ScalDFX         ....  0.000000
   Scaling of DF-GGA-C  ScalDFC         ....  1.000000
   Scaling of DF-LDA-C  ScalLDAC        ....  1.000000
   Perturbative correction              ....  0.000000
   Density functional embedding theory  .... OFF
 Long-range corrected/Screened/Range-Separated Hybrid DFT is turned on
   Amount of maximum screened exact exchange              ....  0.804272
   Range separation parameter mu (erf(mu*r12)/r12)        ....  0.250000
 RI-approximation to the Coulomb term is turned on
   Number of AuxJ basis functions       .... 164
   RIJ-COSX (HFX calculated with COS-X)).... on


General Settings:
 Integral files         IntName         .... C1_wt_wb97_typm1_pos
 Hartree-Fock type      HFTyp           .... RHF
 Total Charge           Charge          ....    0
 Multiplicity           Mult            ....    1
 Number of Electrons    NEL             ....   18
 Basis Dimension        Dim             ....   88
 Nuclear Repulsion      ENuc            ....     43.8124939807 Eh

Convergence Acceleration:
 DIIS                   CNVDIIS         .... on
   Start iteration      DIISMaxIt       ....    12
   Startup error        DIISStart       ....  0.200000
   # of expansion vecs  DIISMaxEq       ....     5
   Bias factor          DIISBfac        ....   1.050
   Max. coefficient     DIISMaxC        ....  10.000
 Trust-Rad. Augm. Hess. CNVTRAH         .... auto
   Auto Start mean grad. ratio tolernc. ....  1.125000
   Auto Start start iteration           ....    20
   Auto Start num. interpolation iter.  ....    10
   Max. Number of Micro iterations      ....    16
   Max. Number of Macro iterations      .... Maxiter - #DIIS iter
   Number of Davidson start vectors     ....     2
   Converg. threshold I  (grad. norm)   ....   1.000e-05
   Converg. threshold II (energy diff.) ....   1.000e-08
   Grad. Scal. Fac. for Micro threshold ....   0.100
   Minimum threshold for Micro iter.    ....   0.010
   NR start threshold (gradient norm)   ....   0.001
   Initial trust radius                 ....   0.400
   Minimum AH scaling param. (alpha)    ....   1.000
   Maximum AH scaling param. (alpha)    .... 1000.000
   Orbital update algorithm             .... Taylor
   White noise on init. David. guess    .... on
   Maximum white noise                  ....   0.010
   Quad. conv. algorithm                .... NR
 SOSCF                  CNVSOSCF        .... on
   Start iteration      SOSCFMaxIt      ....   150
   Startup grad/error   SOSCFStart      ....  0.003300
 Level Shifting         CNVShift        .... on
   Level shift para.    LevelShift      ....    0.2500
   Turn off err/grad.   ShiftErr        ....    0.0010
 Zerner damping         CNVZerner       .... off
 Static damping         CNVDamp         .... on
   Fraction old density DampFac         ....    0.7000
   Max. Damping (<1)    DampMax         ....    0.9800
   Min. Damping (>=0)   DampMin         ....    0.0000
   Turn off err/grad.   DampErr         ....    0.1000
 Fernandez-Rico         CNVRico         .... off

SCF Procedure:
 Maximum # iterations   MaxIter         ....   150
 SCF integral mode      SCFMode         .... Direct
   Integral package                     .... SHARK and LIBINT hybrid scheme
 Reset frequency        DirectResetFreq ....    20
 Integral Threshold     Thresh          ....  2.500e-11 Eh
 Primitive CutOff       TCut            ....  2.500e-12 Eh

Convergence Tolerance:
 Convergence Check Mode ConvCheckMode   .... Total+1el-Energy
 Convergence forced     ConvForced      .... 0
 Energy Change          TolE            ....  1.000e-08 Eh
 1-El. energy change                    ....  1.000e-05 Eh
 Orbital Gradient       TolG            ....  1.000e-05
 Orbital Rotation angle TolX            ....  1.000e-05
 DIIS Error             TolErr          ....  5.000e-07


Diagonalization of the overlap matrix:
Smallest eigenvalue                        ... 2.895e-04
Time for diagonalization                   ...    0.002 sec
Threshold for overlap eigenvalues          ... 1.000e-08
Number of eigenvalues below threshold      ... 0
Time for construction of square roots      ...    0.003 sec
Total time needed                          ...    0.006 sec

Time for model grid setup =    0.025 sec

------------------------------
INITIAL GUESS: MODEL POTENTIAL
------------------------------
Loading Hartree-Fock densities                     ... done
Calculating cut-offs                               ... done
Initializing the effective Hamiltonian             ... done
Setting up the integral package (SHARK)            ... done
Starting the Coulomb interaction                   ... done (   0.0 sec)
Reading the grid                                   ... done
Mapping shells                                     ... done
Starting the XC term evaluation                    ... done (   0.0 sec)
  promolecular density results
     # of electrons  =     17.996294520
     EX              =    -12.030641342
     EC              =     -0.561840056
     EX+EC           =    -12.592481398
Transforming the Hamiltonian                       ... done (   0.0 sec)
Diagonalizing the Hamiltonian                      ... done (   0.0 sec)
Back transforming the eigenvectors                 ... done (   0.0 sec)
Now organizing SCF variables                       ... done
                      ------------------
                      INITIAL GUESS DONE (   0.0 sec)
                      ------------------
-------------------
DFT GRID GENERATION
-------------------

General Integration Accuracy     IntAcc      ... 4.388
Radial Grid Type                 RadialGrid  ... OptM3 with GC (2021)
Angular Grid (max. ang.)         AngularGrid ... 4 (Lebedev-302)
Angular grid pruning method      GridPruning ... 4 (adaptive)
Weight generation scheme         WeightScheme... Becke
Basis function cutoff            BFCut       ... 1.0000e-11
Integration weight cutoff        WCut        ... 1.0000e-14
Angular grids for H and He will be reduced by one unit
Partially contracted basis set               ... off
Rotationally invariant grid construction     ... off

Total number of grid points                  ...    32851
Total number of batches                      ...      516
Average number of points per batch           ...       63
Average number of grid points per atom       ...     4106
Time for grid setup =    0.164 sec

--------------------
COSX GRID GENERATION
--------------------

GRIDX 1
-------
General Integration Accuracy     IntAcc      ... 3.816
Radial Grid Type                 RadialGrid  ... OptM3 with GC (2021)
Angular Grid (max. ang.)         AngularGrid ... 1 (Lebedev-50)
Angular grid pruning method      GridPruning ... 4 (adaptive)
Weight generation scheme         WeightScheme... Becke
Basis function cutoff            BFCut       ... 1.0000e-11
Integration weight cutoff        WCut        ... 1.0000e-14
Angular grids for H and He will be reduced by one unit
Partially contracted basis set               ... on
Rotationally invariant grid construction     ... off

Total number of grid points                  ...     4122
Total number of batches                      ...       70
Average number of points per batch           ...       58
Average number of grid points per atom       ...      515
UseSFitting                                  ... on

GRIDX 2
-------
General Integration Accuracy     IntAcc      ... 4.020
Radial Grid Type                 RadialGrid  ... OptM3 with GC (2021)
Angular Grid (max. ang.)         AngularGrid ... 2 (Lebedev-110)
Angular grid pruning method      GridPruning ... 4 (adaptive)
Weight generation scheme         WeightScheme... Becke
Basis function cutoff            BFCut       ... 1.0000e-11
Integration weight cutoff        WCut        ... 1.0000e-14
Angular grids for H and He will be reduced by one unit
Partially contracted basis set               ... on
Rotationally invariant grid construction     ... off

Total number of grid points                  ...     8935
Total number of batches                      ...      143
Average number of points per batch           ...       62
Average number of grid points per atom       ...     1117
UseSFitting                                  ... on

GRIDX 3
-------
General Integration Accuracy     IntAcc      ... 4.338
Radial Grid Type                 RadialGrid  ... OptM3 with GC (2021)
Angular Grid (max. ang.)         AngularGrid ... 3 (Lebedev-194)
Angular grid pruning method      GridPruning ... 4 (adaptive)
Weight generation scheme         WeightScheme... Becke
Basis function cutoff            BFCut       ... 1.0000e-11
Integration weight cutoff        WCut        ... 1.0000e-14
Angular grids for H and He will be reduced by one unit
Partially contracted basis set               ... on
Rotationally invariant grid construction     ... off

Total number of grid points                  ...    20972
Total number of batches                      ...      332
Average number of points per batch           ...       63
Average number of grid points per atom       ...     2622
UseSFitting                                  ... on

Time for X-Grid setup             =    0.122 sec

--------------
SCF ITERATIONS
--------------
ITER       Energy         Delta-E        Max-DP      RMS-DP      [F,P]     Damp
               ***  Starting incremental Fock matrix formation  ***
  0    -79.6198418988   0.000000000000 0.17576655  0.00473987  0.1898732 0.7000
  1    -79.6667667455  -0.046924846697 0.11401271  0.00297638  0.1153836 0.7000
                               ***Turning on DIIS***
  2    -79.6913460657  -0.024579320216 0.21800743  0.00535180  0.0606242 0.0000
  3    -79.7301373714  -0.038791305659 0.06602337  0.00224452  0.0415785 0.0000
  4    -79.7361707183  -0.006033346952 0.01195688  0.00034664  0.0059588 0.0000
                      *** Initiating the SOSCF procedure ***
                           *** Shutting down DIIS ***
                      *** Re-Reading the Fockian *** 
                      *** Removing any level shift *** 
ITER      Energy       Delta-E        Grad      Rot      Max-DP    RMS-DP
  5    -79.73628724  -0.0001165260  0.000870  0.000870  0.002126  0.000077
               *** Restarting incremental Fock matrix formation ***
  6    -79.73625341   0.0000338377  0.000373  0.000530  0.000700  0.000048
  7    -79.73625411  -0.0000007025  0.000072  0.000167  0.000385  0.000022
  8    -79.73625425  -0.0000001398  0.000014  0.000021  0.000120  0.000006
                 **** Energy Check signals convergence ****
              ***Rediagonalizing the Fockian in SOSCF/NRSCF***

               *****************************************************
               *                     SUCCESS                       *
               *           SCF CONVERGED AFTER   9 CYCLES          *
               *****************************************************

Old exchange energy                            =     -4.381073261 Eh
New exchange energy                            =     -4.381073196 Eh
Exchange energy change after final integration =      0.000000065 Eh
Total energy after final integration           =    -79.736254188 Eh
Final COS-X integration done in                =     0.404 sec

----------------
TOTAL SCF ENERGY
----------------

Total Energy       :          -79.73625419 Eh           -2169.73378 eV

Components:
Nuclear Repulsion  :           43.81249398 Eh            1192.19857 eV
Electronic Energy  :         -123.54874817 Eh           -3361.93236 eV
One Electron Energy:         -192.15180874 Eh           -5228.71654 eV
Two Electron Energy:           68.60306057 Eh            1866.78418 eV
Max COSX asymmetry :            0.00000068 Eh               0.00002 eV

Virial components:
Potential Energy   :         -158.81906004 Eh           -4321.68633 eV
Kinetic Energy     :           79.08280585 Eh            2151.95255 eV
Virial Ratio       :            2.00826284


DFT components:
N(Alpha)           :        9.000004665165 electrons
N(Beta)            :        9.000004665165 electrons
N(Total)           :       18.000009330330 electrons
E(XC)              :       -8.782372966712 Eh       
DFET-embed. en.    :        0.000000000000 Eh       

---------------
SCF CONVERGENCE
---------------

  Last Energy change         ...   -4.4747e-09  Tolerance :   1.0000e-08
  Last MAX-Density change    ...    1.3323e-15  Tolerance :   1.0000e-07
  Last RMS-Density change    ...    3.1864e-17  Tolerance :   5.0000e-09
  Last Orbital Gradient      ...    1.6221e-06  Tolerance :   1.0000e-05
  Last Orbital Rotation      ...    3.1826e-06  Tolerance :   1.0000e-05

             **** THE GBW FILE WAS UPDATED (C1_wt_wb97_typm1_pos.gbw) ****
             **** DENSITY C1_wt_wb97_typm1_pos.scfp WAS UPDATED ****
             **** ENERGY FILE WAS UPDATED (C1_wt_wb97_typm1_pos.en.tmp) ****
             **** THE GBW FILE WAS UPDATED (C1_wt_wb97_typm1_pos.gbw) ****
             **** DENSITY C1_wt_wb97_typm1_pos.scfp WAS UPDATED ****
----------------
ORBITAL ENERGIES
----------------

  NO   OCC          E(Eh)            E(eV) 
   0   2.0000     -10.265766      -279.3457 
   1   2.0000     -10.252077      -278.9732 
   2   2.0000      -0.879463       -23.9314 
   3   2.0000      -0.726897       -19.7799 
   4   2.0000      -0.552724       -15.0404 
   5   2.0000      -0.545995       -14.8573 
   6   2.0000      -0.465091       -12.6558 
   7   2.0000      -0.443193       -12.0599 
   8   2.0000      -0.436651       -11.8819 
   9   0.0000       0.099030         2.6947 
  10   0.0000       0.128935         3.5085 
  11   0.0000       0.180885         4.9221 
  12   0.0000       0.182631         4.9696 
  13   0.0000       0.202163         5.5011 
  14   0.0000       0.203508         5.5377 
  15   0.0000       0.239074         6.5055 
  16   0.0000       0.244322         6.6483 
  17   0.0000       0.247507         6.7350 
  18   0.0000       0.282248         7.6804 
  19   0.0000       0.284936         7.7535 
  20   0.0000       0.288421         7.8483 
  21   0.0000       0.327711         8.9175 
  22   0.0000       0.330735         8.9998 
  23   0.0000       0.377968        10.2850 
  24   0.0000       0.390548        10.6274 
  25   0.0000       0.409337        11.1386 
  26   0.0000       0.444003        12.0819 
  27   0.0000       0.445648        12.1267 
  28   0.0000       0.446458        12.1487 
  29   0.0000       0.457629        12.4527 
  30   0.0000       0.463162        12.6033 
  31   0.0000       0.464636        12.6434 
  32   0.0000       0.492405        13.3990 
  33   0.0000       0.493080        13.4174 
  34   0.0000       0.503937        13.7128 
  35   0.0000       0.510242        13.8844 
  36   0.0000       0.562799        15.3145 
  37   0.0000       0.563137        15.3237 
  38   0.0000       0.563362        15.3299 
  39   0.0000       0.574042        15.6205 
  40   0.0000       0.576932        15.6991 
  41   0.0000       0.587206        15.9787 
  42   0.0000       0.587328        15.9820 
  43   0.0000       0.624362        16.9897 
  44   0.0000       0.629997        17.1431 
  45   0.0000       0.632077        17.1997 
  46   0.0000       0.892876        24.2964 
  47   0.0000       0.981800        26.7161 
  48   0.0000       1.027770        27.9670 
  49   0.0000       1.038363        28.2553 
  50   0.0000       1.040194        28.3051 
  51   0.0000       1.114381        30.3238 
  52   0.0000       1.119611        30.4662 
  53   0.0000       1.123566        30.5738 
  54   0.0000       1.144053        31.1313 
  55   0.0000       1.158490        31.5241 
  56   0.0000       1.188846        32.3502 
  57   0.0000       1.306122        35.5414 
  58   0.0000       1.324267        36.0351 
  59   0.0000       1.399856        38.0920 
  60   0.0000       1.656556        45.0772 
  61   0.0000       1.666496        45.3477 
  62   0.0000       1.702374        46.3240 
  63   0.0000       1.705436        46.4073 
  64   0.0000       1.787721        48.6464 
  65   0.0000       1.823309        49.6148 
  66   0.0000       2.005136        54.5625 
  67   0.0000       2.007642        54.6307 
  68   0.0000       2.035408        55.3863 
  69   0.0000       2.127156        57.8828 
  70   0.0000       2.134340        58.0784 
  71   0.0000       2.202046        59.9207 
  72   0.0000       2.218915        60.3798 
  73   0.0000       2.239637        60.9436 
  74   0.0000       2.359358        64.2014 
  75   0.0000       2.369649        64.4814 
  76   0.0000       2.473587        67.3097 
  77   0.0000       2.682954        73.0069 
  78   0.0000       2.697544        73.4039 
  79   0.0000       2.709026        73.7163 
  80   0.0000       2.830448        77.0204 
  81   0.0000       2.839437        77.2650 
  82   0.0000       2.996844        81.5483 
  83   0.0000       3.166398        86.1621 
  84   0.0000       3.214846        87.4804 
  85   0.0000       3.229509        87.8794 
  86   0.0000       3.351370        91.1954 
  87   0.0000       3.382238        92.0354 

                    ********************************
                    * MULLIKEN POPULATION ANALYSIS *
                    ********************************

-----------------------
MULLIKEN ATOMIC CHARGES
-----------------------
   0 C :    0.149095
   1 C :    0.444969
   2 H :   -0.155771
   3 H :   -0.150248
   4 H :   -0.152248
   5 H :   -0.047662
   6 H :   -0.042105
   7 H :   -0.046030
Sum of atomic charges:    0.0000000

--------------------------------
MULLIKEN REDUCED ORBITAL CHARGES
--------------------------------
  0 C s       :     2.618460  s :     2.618460
      pz      :     0.956299  p :     2.967089
      px      :     0.953781
      py      :     1.057009
      dz2     :     0.007736  d :     0.265356
      dxz     :    -0.012053
      dyz     :     0.119591
      dx2y2   :     0.031857
      dxy     :     0.118225
  1 C s       :     2.381721  s :     2.381721
      pz      :     0.935106  p :     2.908078
      px      :     0.929284
      py      :     1.043688
      dz2     :     0.007788  d :     0.265232
      dxz     :    -0.013386
      dyz     :     0.120956
      dx2y2   :     0.028792
      dxy     :     0.121082
  2 H s       :     1.105413  s :     1.105413
      pz      :     0.052064  p :     0.050357
      px      :     0.005813
      py      :    -0.007520
  3 H s       :     1.107572  s :     1.107572
      pz      :    -0.015958  p :     0.042676
      px      :     0.067341
      py      :    -0.008707
  4 H s       :     1.115694  s :     1.115694
      pz      :     0.037887  p :     0.036554
      px      :    -0.003305
      py      :     0.001971
  5 H s       :     1.008734  s :     1.008734
      pz      :     0.047982  p :     0.038928
      px      :    -0.001739
      py      :    -0.007316
  6 H s       :     1.004057  s :     1.004057
      pz      :     0.034319  p :     0.038048
      px      :     0.006326
      py      :    -0.002597
  7 H s       :     1.007751  s :     1.007751
      pz      :    -0.015157  p :     0.038280
      px      :     0.062004
      py      :    -0.008568


                     *******************************
                     * LOEWDIN POPULATION ANALYSIS *
                     *******************************

----------------------
LOEWDIN ATOMIC CHARGES
----------------------
   0 C :    0.070350
   1 C :    0.072360
   2 H :   -0.034358
   3 H :   -0.032150
   4 H :   -0.030338
   5 H :   -0.015409
   6 H :   -0.014914
   7 H :   -0.015541

-------------------------------
LOEWDIN REDUCED ORBITAL CHARGES
-------------------------------
  0 C s       :     2.701111  s :     2.701111
      pz      :     0.938166  p :     2.800725
      px      :     0.938536
      py      :     0.924023
      dz2     :     0.061250  d :     0.427814
      dxz     :     0.029894
      dyz     :     0.126110
      dx2y2   :     0.096754
      dxy     :     0.113806
  1 C s       :     2.677116  s :     2.677116
      pz      :     0.946645  p :     2.812093
      px      :     0.946526
      py      :     0.918922
      dz2     :     0.060077  d :     0.438431
      dxz     :     0.028480
      dyz     :     0.132862
      dx2y2   :     0.098983
      dxy     :     0.118028
  2 H s       :     0.748858  s :     0.748858
      pz      :     0.123017  p :     0.285500
      px      :     0.090372
      py      :     0.072110
  3 H s       :     0.748976  s :     0.748976
      pz      :     0.079475  p :     0.283175
      px      :     0.131779
      py      :     0.071920
  4 H s       :     0.750479  s :     0.750479
      pz      :     0.108717  p :     0.279859
      px      :     0.089024
      py      :     0.082118
  5 H s       :     0.746956  s :     0.746956
      pz      :     0.118278  p :     0.268453
      px      :     0.082940
      py      :     0.067235
  6 H s       :     0.746342  s :     0.746342
      pz      :     0.105059  p :     0.268572
      px      :     0.086636
      py      :     0.076877
  7 H s       :     0.746924  s :     0.746924
      pz      :     0.073333  p :     0.268617
      px      :     0.128235
      py      :     0.067048


                      *****************************
                      * MAYER POPULATION ANALYSIS *
                      *****************************

  NA   - Mulliken gross atomic population
  ZA   - Total nuclear charge
  QA   - Mulliken gross atomic charge
  VA   - Mayer's total valence
  BVA  - Mayer's bonded valence
  FA   - Mayer's free valence

  ATOM       NA         ZA         QA         VA         BVA        FA
  0 C      5.8509     6.0000     0.1491     4.5343     4.5343     0.0000
  1 C      5.5550     6.0000     0.4450     4.2741     4.2741     0.0000
  2 H      1.1558     1.0000    -0.1558     1.1092     1.1092     0.0000
  3 H      1.1502     1.0000    -0.1502     1.0848     1.0848     0.0000
  4 H      1.1522     1.0000    -0.1522     1.0642     1.0642     0.0000
  5 H      1.0477     1.0000    -0.0477     1.0816     1.0816     0.0000
  6 H      1.0421     1.0000    -0.0421     1.0696     1.0696     0.0000
  7 H      1.0460     1.0000    -0.0460     1.0744     1.0744    -0.0000

  Mayer bond orders larger than 0.100000
B(  0-C ,  1-C ) :   1.4264 B(  0-C ,  2-H ) :   0.1469 B(  0-C ,  3-H ) :   0.1537 
B(  0-C ,  4-H ) :   0.1518 B(  0-C ,  5-H ) :   0.8839 B(  0-C ,  6-H ) :   0.8840 
B(  0-C ,  7-H ) :   0.8876 B(  1-C ,  2-H ) :   0.8083 B(  1-C ,  3-H ) :   0.8141 
B(  1-C ,  4-H ) :   0.8239 B(  1-C ,  5-H ) :   0.1338 B(  1-C ,  6-H ) :   0.1349 
B(  1-C ,  7-H ) :   0.1325 B(  2-H ,  3-H ) :   0.1091 

-------
TIMINGS
-------

Total SCF time: 0 days 0 hours 0 min 3 sec 

Total time                  ....       3.089 sec
Sum of individual times     ....       2.972 sec  ( 96.2%)

Fock matrix formation       ....       2.594 sec  ( 84.0%)
  Split-RI-J                ....       0.218 sec  (  8.4% of F)
  Chain of spheres X        ....       1.922 sec  ( 74.1% of F)
  XC integration            ....       0.438 sec  ( 16.9% of F)
    Basis function eval.    ....       0.144 sec  ( 32.9% of XC)
    Density eval.           ....       0.077 sec  ( 17.7% of XC)
    XC-Functional eval.     ....       0.074 sec  ( 16.8% of XC)
    XC-Potential eval.      ....       0.105 sec  ( 23.9% of XC)
Diagonalization             ....       0.018 sec  (  0.6%)
Density matrix formation    ....       0.001 sec  (  0.0%)
Population analysis         ....       0.003 sec  (  0.1%)
Initial guess               ....       0.023 sec  (  0.7%)
Orbital Transformation      ....       0.000 sec  (  0.0%)
Orbital Orthonormalization  ....       0.000 sec  (  0.0%)
DIIS solution               ....       0.014 sec  (  0.5%)
SOSCF solution              ....       0.008 sec  (  0.3%)
Grid generation             ....       0.311 sec  ( 10.1%)

Maximum memory used throughout the entire SCF-calculation: 45.5 MB


-------------------------------------------------------------------------------
                          DFT DISPERSION CORRECTION                            
                                                                               
                              DFTD3 V3.1  Rev 1                                
                              USING zero damping                               
-------------------------------------------------------------------------------
The omegaB97X-D3 functional is recognized. Fit by Chai et al.
Active option DFTDOPT                   ...         3   

molecular C6(AA) [au] = 363.611020 


            DFT-D V3
 parameters
 s6 scaling factor         :     1.0000 
 rs6 scaling factor        :     1.2810 
 s8 scaling factor         :     1.0000 
 rs8 scaling factor        :     1.0940 
 Damping factor alpha6     :    14.0000 
 Damping factor alpha8     :    16.0000 
 ad hoc parameters k1-k3   :    16.0000     1.3333    -4.0000 

 Edisp/kcal,au: -0.309538244505  -0.000493280539 
 E6   /kcal   :  -0.084678659 
 E8   /kcal   :  -0.224859585 
 % E8         :  72.643555088 

-------------------------   ----------------
Dispersion correction           -0.000493281
-------------------------   ----------------


-------------------------   --------------------
FINAL SINGLE POINT ENERGY       -79.736747468922
-------------------------   --------------------


                            ***************************************
                            *     ORCA property calculations      *
                            ***************************************

                                    ---------------------
                                    Active property flags
                                    ---------------------
   (+) Dipole Moment


------------------------------------------------------------------------------
                       ORCA ELECTRIC PROPERTIES CALCULATION
------------------------------------------------------------------------------

Dipole Moment Calculation                       ... on
Quadrupole Moment Calculation                   ... off
Polarizability Calculation                      ... off
GBWName                                         ... C1_wt_wb97_typm1_pos.gbw
Electron density file                           ... C1_wt_wb97_typm1_pos.scfp
The origin for moment calculation is the CENTER OF MASS  = ( 7.332041,  2.328525 -0.501983)

-------------
DIPOLE MOMENT
-------------
                                X             Y             Z
Electronic contribution:      0.00216       0.01066      -0.03639
Nuclear contribution   :     -0.00471       0.01526       0.05114
                        -----------------------------------------
Total Dipole Moment    :     -0.00255       0.02592       0.01475
                        -----------------------------------------
Magnitude (a.u.)       :      0.02993
Magnitude (Debye)      :      0.07609



--------------------
Rotational spectrum 
--------------------
 
Rotational constants in cm-1:     2.873610     0.717865     0.713933 
Rotational constants in MHz : 86148.646881 21521.066032 21403.176468 

 Dipole components along the rotational axes: 
x,y,z [a.u.] :     0.028007     0.006601     0.008251 
x,y,z [Debye]:     0.071187     0.016778     0.020973 

 

Timings for individual modules:

Sum of individual times         ...        3.729 sec (=   0.062 min)
GTO integral calculation        ...        0.392 sec (=   0.007 min)  10.5 %
SCF iterations                  ...        3.337 sec (=   0.056 min)  89.5 %
                             ****ORCA TERMINATED NORMALLY****
TOTAL RUN TIME: 0 days 0 hours 0 minutes 4 seconds 122 msec
