
                                        *****************
                                        * O   R   C   A *
                                        *****************

                                            #,                                       
                                            ###                                      
                                            ####                                     
                                            #####                                    
                                            ######                                   
                                           ########,                                 
                                     ,,################,,,,,                         
                               ,,#################################,,                 
                          ,,##########################################,,             
                       ,#########################################, ''#####,          
                    ,#############################################,,   '####,        
                  ,##################################################,,,,####,       
                ,###########''''           ''''###############################       
              ,#####''   ,,,,##########,,,,          '''####'''          '####       
            ,##' ,,,,###########################,,,                        '##       
           ' ,,###''''                  '''############,,,                           
         ,,##''                                '''############,,,,        ,,,,,,###''
      ,#''                                            '''#######################'''  
     '                                                          ''''####''''         
             ,#######,   #######,   ,#######,      ##                                
            ,#'     '#,  ##    ##  ,#'     '#,    #''#        ######   ,####,        
            ##       ##  ##   ,#'  ##            #'  '#       #        #'  '#        
            ##       ##  #######   ##           ,######,      #####,   #    #        
            '#,     ,#'  ##    ##  '#,     ,#' ,#      #,         ##   #,  ,#        
             '#######'   ##     ##  '#######'  #'      '#     #####' # '####'        



                  #######################################################
                  #                        -***-                        #
                  #          Department of theory and spectroscopy      #
                  #    Directorship and core code : Frank Neese         #
                  #        Max Planck Institute fuer Kohlenforschung    #
                  #                Kaiser Wilhelm Platz 1               #
                  #                 D-45470 Muelheim/Ruhr               #
                  #                      Germany                        #
                  #                                                     #
                  #                  All rights reserved                #
                  #                        -***-                        #
                  #######################################################


                         Program Version 5.0.0 -  RELEASE  -
                                (SVN: $Rev: 19529$)
                ($Date: 2021-06-28 11:36:33 +0200 (Mo, 28 Jun 2021) $)


 With contributions from (in alphabetic order):
   Daniel Aravena         : Magnetic Suceptibility
   Michael Atanasov       : Ab Initio Ligand Field Theory (pilot matlab implementation)
   Alexander A. Auer      : GIAO ZORA, VPT2 properties, NMR spectrum
   Ute Becker             : Parallelization
   Giovanni Bistoni       : ED, misc. LED, open-shell LED, HFLD
   Martin Brehm           : Molecular dynamics
   Dmytro Bykov           : SCF Hessian
   Vijay G. Chilkuri      : MRCI spin determinant printing, contributions to CSF-ICE
   Dipayan Datta          : RHF DLPNO-CCSD density
   Achintya Kumar Dutta   : EOM-CC, STEOM-CC
   Dmitry Ganyushin       : Spin-Orbit,Spin-Spin,Magnetic field MRCI
   Miquel Garcia          : C-PCM Hessian, Gaussian charge scheme
   Yang Guo               : DLPNO-NEVPT2, F12-NEVPT2, CIM, IAO-localization
   Andreas Hansen         : Spin unrestricted coupled pair/coupled cluster methods
   Benjamin Helmich-Paris : MC-RPA, TRAH-SCF, COSX integrals
   Lee Huntington         : MR-EOM, pCC
   Robert Izsak           : Overlap fitted RIJCOSX, COSX-SCS-MP3, EOM
   Marcus Kettner         : VPT2
   Christian Kollmar      : KDIIS, OOCD, Brueckner-CCSD(T), CCSD density, CASPT2, CASPT2-K
   Simone Kossmann        : Meta GGA functionals, TD-DFT gradient, OOMP2, MP2 Hessian
   Martin Krupicka        : Initial AUTO-CI
   Lucas Lang             : DCDCAS
   Marvin Lechner         : AUTO-CI (C++ implementation), FIC-MRCC
   Dagmar Lenk            : GEPOL surface, SMD
   Dimitrios Liakos       : Extrapolation schemes; Compound Job, initial MDCI parallelization
   Dimitrios Manganas     : Further ROCIS development; embedding schemes
   Dimitrios Pantazis     : SARC Basis sets
   Anastasios Papadopoulos: AUTO-CI, single reference methods and gradients
   Taras Petrenko         : DFT Hessian,TD-DFT gradient, ASA, ECA, R-Raman, ABS, FL, XAS/XES, NRVS
   Peter Pinski           : DLPNO-MP2, DLPNO-MP2 Gradient
   Christoph Reimann      : Effective Core Potentials
   Marius Retegan         : Local ZFS, SOC
   Christoph Riplinger    : Optimizer, TS searches, QM/MM, DLPNO-CCSD(T), (RO)-DLPNO pert. Triples
   Tobias Risthaus        : Range-separated hybrids, TD-DFT gradient, RPA, STAB
   Michael Roemelt        : Original ROCIS implementation
   Masaaki Saitow         : Open-shell DLPNO-CCSD energy and density
   Barbara Sandhoefer     : DKH picture change effects
   Avijit Sen             : IP-ROCIS
   Kantharuban Sivalingam : CASSCF convergence, NEVPT2, FIC-MRCI
   Bernardo de Souza      : ESD, SOC TD-DFT
   Georgi Stoychev        : AutoAux, RI-MP2 NMR
   Willem Van den Heuvel  : Paramagnetic NMR
   Boris Wezisla          : Elementary symmetry handling
   Frank Wennmohs         : Technical directorship


 We gratefully acknowledge several colleagues who have allowed us to
 interface, adapt or use parts of their codes:
   Stefan Grimme, W. Hujo, H. Kruse, P. Pracht,  : VdW corrections, initial TS optimization,
                  C. Bannwarth, S. Ehlert          DFT functionals, gCP, sTDA/sTD-DF
   Ed Valeev, F. Pavosevic, A. Kumar             : LibInt (2-el integral package), F12 methods
   Garnet Chan, S. Sharma, J. Yang, R. Olivares  : DMRG
   Ulf Ekstrom                                   : XCFun DFT Library
   Mihaly Kallay                                 : mrcc  (arbitrary order and MRCC methods)
   Jiri Pittner, Ondrej Demel                    : Mk-CCSD
   Frank Weinhold                                : gennbo (NPA and NBO analysis)
   Christopher J. Cramer and Donald G. Truhlar   : smd solvation model
   Lars Goerigk                                  : TD-DFT with DH, B97 family of functionals
   V. Asgeirsson, H. Jonsson                     : NEB implementation
   FAccTs GmbH                                   : IRC, NEB, NEB-TS, DLPNO-Multilevel, CI-OPT
                                                   MM, QMMM, 2- and 3-layer-ONIOM, Crystal-QMMM,
                                                   LR-CPCM, SF, NACMEs, symmetry and pop. for TD-DFT,
                                                   nearIR, NL-DFT gradient (VV10), updates on ESD,
                                                   ML-optimized integration grids
   S Lehtola, MJT Oliveira, MAL Marques          : LibXC Library
   Liviu Ungur et al                             : ANISO software


 Your calculation uses the libint2 library for the computation of 2-el integrals
 For citations please refer to: http://libint.valeyev.net

 Your ORCA version has been built with support for libXC version: 5.1.0
 For citations please refer to: https://tddft.org/programs/libxc/

 This ORCA versions uses:
   CBLAS   interface :  Fast vector & matrix operations
   LAPACKE interface :  Fast linear algebra routines
   SCALAPACK package :  Parallel linear algebra routines
   Shared memory     :  Shared parallel matrices
   BLAS/LAPACK       :  OpenBLAS 0.3.15  USE64BITINT DYNAMIC_ARCH NO_AFFINITY Haswell SINGLE_THREADED
        Core in use  :  Haswell
   Copyright (c) 2011-2014, The OpenBLAS Project


Your calculation utilizes the atom-pairwise dispersion correction
with the Becke-Johnson damping scheme (D3BJ)
Cite in your paper:
S.Grimme, S.Ehrlich, L.Goerigk, J Comput Chem, (2011), 32, 1456–1465 
S.Grimme, J.Antony, S.Ehrlich and H.Krieg, J.Chem.Phys., 132, (2010), 154104 
   

================================================================================

----- Orbital basis set information -----
Your calculation utilizes the basis: def2-SVP
   F. Weigend and R. Ahlrichs, Phys. Chem. Chem. Phys. 7, 3297 (2005).

----- AuxJ basis set information -----
Your calculation utilizes the auxiliary basis: def2/J
   F. Weigend, Phys. Chem. Chem. Phys. 8, 1057 (2006).

================================================================================
                                        WARNINGS
                       Please study these warnings very carefully!
================================================================================


INFO   : the flag for use of the SHARK integral package has been found!

================================================================================
                                       INPUT FILE
================================================================================
NAME = SVP_B3LYP_C2_wt_dlpno_pos.com
|  1> !B3LYP D3BJ RIJCOSX def2-SVP def2/J TightSCF
|  2> *xyz 0 1 
|  3> C          1.63556       -1.67040       -5.29211
|  4> C          0.33848       -1.50091       -4.50540
|  5> N          2.48451       -0.50741       -5.14039
|  6> H          1.39834       -1.82924       -6.35259
|  7> H          2.15586       -2.56540       -4.93209
|  8> C          3.45115       -0.14953       -5.95259
|  9> C          3.92267        1.08956       -5.85071
| 10> N          3.96616       -1.00618       -6.86788
| 11> H          3.52139       -1.90647       -6.99527
| 12> H          4.44482       -0.62347       -7.67035
| 13> H          2.25200        0.24080       -4.49879
| 14> H          3.46428        1.64078       -5.13639
| 15> H          4.83447        1.31375       -6.22465
| 16> H         -0.17658       -0.62881       -4.85045
| 17> H          0.56384       -1.39374       -3.46490
| 18> H         -0.28102       -2.36136       -4.64938
| 19> *
| 20> 
| 21> %MaxCore 64000
| 22> 
| 23> %pal nprocs 4
| 24> end  
| 25> 
| 26> %scf
| 27>   MaxIter 150
| 28> end
| 29> 
| 30> 
| 31>                          ****END OF INPUT****
================================================================================

                       ****************************
                       * Single Point Calculation *
                       ****************************

---------------------------------
CARTESIAN COORDINATES (ANGSTROEM)
---------------------------------
  C      1.635560   -1.670400   -5.292110
  C      0.338480   -1.500910   -4.505400
  N      2.484510   -0.507410   -5.140390
  H      1.398340   -1.829240   -6.352590
  H      2.155860   -2.565400   -4.932090
  C      3.451150   -0.149530   -5.952590
  C      3.922670    1.089560   -5.850710
  N      3.966160   -1.006180   -6.867880
  H      3.521390   -1.906470   -6.995270
  H      4.444820   -0.623470   -7.670350
  H      2.252000    0.240800   -4.498790
  H      3.464280    1.640780   -5.136390
  H      4.834470    1.313750   -6.224650
  H     -0.176580   -0.628810   -4.850450
  H      0.563840   -1.393740   -3.464900
  H     -0.281020   -2.361360   -4.649380

----------------------------
CARTESIAN COORDINATES (A.U.)
----------------------------
  NO LB      ZA    FRAG     MASS         X           Y           Z
   0 C     6.0000    0    12.011    3.090760   -3.156599  -10.000639
   1 C     6.0000    0    12.011    0.639635   -2.836309   -8.513972
   2 N     7.0000    0    14.007    4.695043   -0.958866   -9.713929
   3 H     1.0000    0     1.008    2.642480   -3.456763  -12.004655
   4 H     1.0000    0     1.008    4.073985   -4.847903   -9.320299
   5 C     6.0000    0    12.011    6.521728   -0.282571  -11.248765
   6 C     6.0000    0    12.011    7.412772    2.058970  -11.056240
   7 N     7.0000    0    14.007    7.494956   -1.901405  -12.978412
   8 H     1.0000    0     1.008    6.654463   -3.602706  -13.219145
   9 H     1.0000    0     1.008    8.399493   -1.178188  -14.494861
  10 H     1.0000    0     1.008    4.255663    0.455046   -8.501481
  11 H     1.0000    0     1.008    6.546540    3.100625   -9.706370
  12 H     1.0000    0     1.008    9.135824    2.482628  -11.762884
  13 H     1.0000    0     1.008   -0.333688   -1.188279   -9.166022
  14 H     1.0000    0     1.008    1.065503   -2.633787   -6.547712
  15 H     1.0000    0     1.008   -0.531051   -4.462324   -8.786055

--------------------------------
INTERNAL COORDINATES (ANGSTROEM)
--------------------------------
 C      0   0   0     0.000000000000     0.00000000     0.00000000
 C      1   0   0     1.526452099019     0.00000000     0.00000000
 N      1   2   0     1.447853860374   110.79630082     0.00000000
 H      1   2   3     1.098235541403   109.27983290   238.48612086
 H      1   2   3     1.096061809571   108.95036832   121.23137438
 C      3   1   2     1.312303251539   125.88108164   201.13093006
 C      6   3   1     1.329682169881   117.89912014   164.56341170
 N      6   3   1     1.355300817789   121.70242568   344.31618449
 H      8   6   3     1.012210773061   118.69888469     7.01850578
 H      8   6   3     1.009722952398   118.50845680   158.08561097
 H      3   1   2     1.012684385285   121.68431269     6.65893231
 H      7   6   3     1.012036532394   113.64189798   359.66429587
 H      7   6   3     1.010678742084   119.88613512   160.18204289
 H      2   1   3     1.070002203783   109.47108166    58.76861412
 H      2   1   3     1.070005975918   109.47079003   298.76901239
 H      2   1   3     1.069992847126   109.47129286   178.76902232

---------------------------
INTERNAL COORDINATES (A.U.)
---------------------------
 C      0   0   0     0.000000000000     0.00000000     0.00000000
 C      1   0   0     2.884576423695     0.00000000     0.00000000
 N      1   2   0     2.736047278048   110.79630082     0.00000000
 H      1   2   3     2.075364403790   109.27983290   238.48612086
 H      1   2   3     2.071256645939   108.95036832   121.23137438
 C      3   1   2     2.479893750063   125.88108164   201.13093006
 C      6   3   1     2.512735146234   117.89912014   164.56341170
 N      6   3   1     2.561147374701   121.70242568   344.31618449
 H      8   6   3     1.912801150889   118.69888469     7.01850578
 H      8   6   3     1.908099851167   118.50845680   158.08561097
 H      3   1   2     1.913696148287   121.68431269     6.65893231
 H      7   6   3     1.912471883748   113.64189798   359.66429587
 H      7   6   3     1.909906031914   119.88613512   160.18204289
 H      2   1   3     2.022011127842   109.47108166    58.76861412
 H      2   1   3     2.022018256144   109.47079003   298.76901239
 H      2   1   3     2.021993446322   109.47129286   178.76902232

---------------------
BASIS SET INFORMATION
---------------------
There are 3 groups of distinct atoms

 Group   1 Type C   : 7s4p1d contracted to 3s2p1d pattern {511/31/1}
 Group   2 Type N   : 7s4p1d contracted to 3s2p1d pattern {511/31/1}
 Group   3 Type H   : 4s1p contracted to 2s1p pattern {31/1}

Atom   0C    basis set group =>   1
Atom   1C    basis set group =>   1
Atom   2N    basis set group =>   2
Atom   3H    basis set group =>   3
Atom   4H    basis set group =>   3
Atom   5C    basis set group =>   1
Atom   6C    basis set group =>   1
Atom   7N    basis set group =>   2
Atom   8H    basis set group =>   3
Atom   9H    basis set group =>   3
Atom  10H    basis set group =>   3
Atom  11H    basis set group =>   3
Atom  12H    basis set group =>   3
Atom  13H    basis set group =>   3
Atom  14H    basis set group =>   3
Atom  15H    basis set group =>   3
---------------------------------
AUXILIARY/J BASIS SET INFORMATION
---------------------------------
There are 3 groups of distinct atoms

 Group   1 Type C   : 12s5p4d2f1g contracted to 6s4p3d1f1g pattern {711111/2111/211/2/1}
 Group   2 Type N   : 12s5p4d2f1g contracted to 6s4p3d1f1g pattern {711111/2111/211/2/1}
 Group   3 Type H   : 5s2p1d contracted to 3s1p1d pattern {311/2/1}

Atom   0C    basis set group =>   1
Atom   1C    basis set group =>   1
Atom   2N    basis set group =>   2
Atom   3H    basis set group =>   3
Atom   4H    basis set group =>   3
Atom   5C    basis set group =>   1
Atom   6C    basis set group =>   1
Atom   7N    basis set group =>   2
Atom   8H    basis set group =>   3
Atom   9H    basis set group =>   3
Atom  10H    basis set group =>   3
Atom  11H    basis set group =>   3
Atom  12H    basis set group =>   3
Atom  13H    basis set group =>   3
Atom  14H    basis set group =>   3
Atom  15H    basis set group =>   3


           ************************************************************
           *        Program running with 4 parallel MPI-processes     *
           *              working on a common directory               *
           ************************************************************
------------------------------------------------------------------------------
                           ORCA GTO INTEGRAL CALCULATION
                           -- RI-GTO INTEGRALS CHOSEN --
------------------------------------------------------------------------------
------------------------------------------------------------------------------
                   ___                                                        
                  /   \      - P O W E R E D   B Y -                         
                 /     \                                                     
                 |  |  |   _    _      __       _____    __    __             
                 |  |  |  | |  | |    /  \     |  _  \  |  |  /  |          
                  \  \/   | |  | |   /    \    | | | |  |  | /  /          
                 / \  \   | |__| |  /  /\  \   | |_| |  |  |/  /          
                |  |  |   |  __  | /  /__\  \  |    /   |      \           
                |  |  |   | |  | | |   __   |  |    \   |  |\   \          
                \     /   | |  | | |  |  |  |  | |\  \  |  | \   \       
                 \___/    |_|  |_| |__|  |__|  |_| \__\ |__|  \__/        
                                                                              
                      - O R C A' S   B I G   F R I E N D -                    
                                      &                                       
                       - I N T E G R A L  F E E D E R -                       
                                                                              
 v1 FN, 2020, v2 2021                                                         
------------------------------------------------------------------------------


Reading SHARK input file SVP_B3LYP_C2_wt_dlpno_pos.SHARKINP.tmp ... ok
----------------------
SHARK INTEGRAL PACKAGE
----------------------

Number of atoms                             ...     16
Number of basis functions                   ...    134
Number of shells                            ...     66
Maximum angular momentum                    ...      2
Integral batch strategy                     ... SHARK/LIBINT Hybrid
RI-J (if used) integral strategy            ... SPLIT-RIJ (Revised 2003 algorithm where possible)
Printlevel                                  ...      1
Contraction scheme used                     ... SEGMENTED contraction
Coulomb Range Separation                    ... NOT USED
Exchange Range Separation                   ... NOT USED
Finite Nucleus Model                        ... NOT USED
Auxiliary Coulomb fitting basis             ... AVAILABLE
   # of basis functions in Aux-J            ...    404
   # of shells in Aux-J                     ...    140
   Maximum angular momentum in Aux-J        ...      4
Auxiliary J/K fitting basis                 ... NOT available
Auxiliary Correlation fitting basis         ... NOT available
Auxiliary 'external' fitting basis          ... NOT available
Integral threshold                          ...     2.500000e-11
Primitive cut-off                           ...     2.500000e-12
Primitive pair pre-selection threshold      ...     2.500000e-12

Calculating pre-screening integrals         ... done (  0.0 sec) Dimension = 66
Organizing shell pair data                  ... done (  0.0 sec)
Shell pair information
Total number of shell pairs                 ...      2211
Shell pairs after pre-screening             ...      2110
Total number of primitive shell pairs       ...      7611
Primitive shell pairs kept                  ...      5606
          la=0 lb=0:    713 shell pairs
          la=1 lb=0:    796 shell pairs
          la=1 lb=1:    237 shell pairs
          la=2 lb=0:    218 shell pairs
          la=2 lb=1:    125 shell pairs
          la=2 lb=2:     21 shell pairs

Calculating one electron integrals          ... done (  0.0 sec)
Calculating RI/J V-Matrix + Cholesky decomp.... done (  0.0 sec)
Calculating Nuclear repulsion               ... done (  0.0 sec) ENN=    247.224941561195 Eh

SHARK setup successfully completed in   0.2 seconds

Maximum memory used throughout the entire GTOINT-calculation: 8.9 MB


           ************************************************************
           *        Program running with 4 parallel MPI-processes     *
           *              working on a common directory               *
           ************************************************************
-------------------------------------------------------------------------------
                                 ORCA SCF
-------------------------------------------------------------------------------

------------
SCF SETTINGS
------------
Hamiltonian:
 Density Functional     Method          .... DFT(GTOs)
 Exchange Functional    Exchange        .... B88
   X-Alpha parameter    XAlpha          ....  0.666667
   Becke's b parameter  XBeta           ....  0.004200
 Correlation Functional Correlation     .... LYP
 LDA part of GGA corr.  LDAOpt          .... VWN-5
 Gradients option       PostSCFGGA      .... off
 Hybrid DFT is turned on
   Fraction HF Exchange ScalHFX         ....  0.200000
   Scaling of DF-GGA-X  ScalDFX         ....  0.720000
   Scaling of DF-GGA-C  ScalDFC         ....  0.810000
   Scaling of DF-LDA-C  ScalLDAC        ....  1.000000
   Perturbative correction              ....  0.000000
   Density functional embedding theory  .... OFF
   NL short-range parameter             ....  4.800000
 RI-approximation to the Coulomb term is turned on
   Number of AuxJ basis functions       .... 404
   RIJ-COSX (HFX calculated with COS-X)).... on


General Settings:
 Integral files         IntName         .... SVP_B3LYP_C2_wt_dlpno_pos
 Hartree-Fock type      HFTyp           .... RHF
 Total Charge           Charge          ....    0
 Multiplicity           Mult            ....    1
 Number of Electrons    NEL             ....   48
 Basis Dimension        Dim             ....  134
 Nuclear Repulsion      ENuc            ....    247.2249415612 Eh

Convergence Acceleration:
 DIIS                   CNVDIIS         .... on
   Start iteration      DIISMaxIt       ....    12
   Startup error        DIISStart       ....  0.200000
   # of expansion vecs  DIISMaxEq       ....     5
   Bias factor          DIISBfac        ....   1.050
   Max. coefficient     DIISMaxC        ....  10.000
 Trust-Rad. Augm. Hess. CNVTRAH         .... auto
   Auto Start mean grad. ratio tolernc. ....  1.125000
   Auto Start start iteration           ....    20
   Auto Start num. interpolation iter.  ....    10
   Max. Number of Micro iterations      ....    16
   Max. Number of Macro iterations      .... Maxiter - #DIIS iter
   Number of Davidson start vectors     ....     2
   Converg. threshold I  (grad. norm)   ....   1.000e-05
   Converg. threshold II (energy diff.) ....   1.000e-08
   Grad. Scal. Fac. for Micro threshold ....   0.100
   Minimum threshold for Micro iter.    ....   0.010
   NR start threshold (gradient norm)   ....   0.001
   Initial trust radius                 ....   0.400
   Minimum AH scaling param. (alpha)    ....   1.000
   Maximum AH scaling param. (alpha)    .... 1000.000
   Orbital update algorithm             .... Taylor
   White noise on init. David. guess    .... on
   Maximum white noise                  ....   0.010
   Quad. conv. algorithm                .... NR
 SOSCF                  CNVSOSCF        .... on
   Start iteration      SOSCFMaxIt      ....   150
   Startup grad/error   SOSCFStart      ....  0.003300
 Level Shifting         CNVShift        .... on
   Level shift para.    LevelShift      ....    0.2500
   Turn off err/grad.   ShiftErr        ....    0.0010
 Zerner damping         CNVZerner       .... off
 Static damping         CNVDamp         .... on
   Fraction old density DampFac         ....    0.7000
   Max. Damping (<1)    DampMax         ....    0.9800
   Min. Damping (>=0)   DampMin         ....    0.0000
   Turn off err/grad.   DampErr         ....    0.1000
 Fernandez-Rico         CNVRico         .... off

SCF Procedure:
 Maximum # iterations   MaxIter         ....   150
 SCF integral mode      SCFMode         .... Direct
   Integral package                     .... SHARK and LIBINT hybrid scheme
 Reset frequency        DirectResetFreq ....    20
 Integral Threshold     Thresh          ....  2.500e-11 Eh
 Primitive CutOff       TCut            ....  2.500e-12 Eh

Convergence Tolerance:
 Convergence Check Mode ConvCheckMode   .... Total+1el-Energy
 Convergence forced     ConvForced      .... 0
 Energy Change          TolE            ....  1.000e-08 Eh
 1-El. energy change                    ....  1.000e-05 Eh
 Orbital Gradient       TolG            ....  1.000e-05
 Orbital Rotation angle TolX            ....  1.000e-05
 DIIS Error             TolErr          ....  5.000e-07


Diagonalization of the overlap matrix:
Smallest eigenvalue                        ... 1.568e-03
Time for diagonalization                   ...    0.005 sec
Threshold for overlap eigenvalues          ... 1.000e-08
Number of eigenvalues below threshold      ... 0
Time for construction of square roots      ...    0.004 sec
Total time needed                          ...    0.009 sec

Time for model grid setup =    0.102 sec

------------------------------
INITIAL GUESS: MODEL POTENTIAL
------------------------------
Loading Hartree-Fock densities                     ... done
Calculating cut-offs                               ... done
Initializing the effective Hamiltonian             ... done
Setting up the integral package (SHARK)            ... done
Starting the Coulomb interaction                   ... done (   0.0 sec)
Reading the grid                                   ... done
Mapping shells                                     ... done
Starting the XC term evaluation                    ... done (   0.1 sec)
  promolecular density results
     # of electrons  =     47.994521623
     EX              =    -36.787243246
     EC              =     -1.577080021
     EX+EC           =    -38.364323266
Transforming the Hamiltonian                       ... done (   0.0 sec)
Diagonalizing the Hamiltonian                      ... done (   0.0 sec)
Back transforming the eigenvectors                 ... done (   0.0 sec)
Now organizing SCF variables                       ... done
                      ------------------
                      INITIAL GUESS DONE (   0.2 sec)
                      ------------------
-------------------
DFT GRID GENERATION
-------------------

General Integration Accuracy     IntAcc      ... 4.388
Radial Grid Type                 RadialGrid  ... OptM3 with GC (2021)
Angular Grid (max. ang.)         AngularGrid ... 4 (Lebedev-302)
Angular grid pruning method      GridPruning ... 4 (adaptive)
Weight generation scheme         WeightScheme... Becke
Basis function cutoff            BFCut       ... 1.0000e-11
Integration weight cutoff        WCut        ... 1.0000e-14
Angular grids for H and He will be reduced by one unit
Partially contracted basis set               ... off
Rotationally invariant grid construction     ... off

Total number of grid points                  ...    68459
Total number of batches                      ...     1077
Average number of points per batch           ...       63
Average number of grid points per atom       ...     4279
Time for grid setup =    0.518 sec

--------------------
COSX GRID GENERATION
--------------------

GRIDX 1
-------
General Integration Accuracy     IntAcc      ... 3.816
Radial Grid Type                 RadialGrid  ... OptM3 with GC (2021)
Angular Grid (max. ang.)         AngularGrid ... 1 (Lebedev-50)
Angular grid pruning method      GridPruning ... 4 (adaptive)
Weight generation scheme         WeightScheme... Becke
Basis function cutoff            BFCut       ... 1.0000e-11
Integration weight cutoff        WCut        ... 1.0000e-14
Angular grids for H and He will be reduced by one unit
Partially contracted basis set               ... on
Rotationally invariant grid construction     ... off

Total number of grid points                  ...     8797
Total number of batches                      ...      148
Average number of points per batch           ...       59
Average number of grid points per atom       ...      550
UseSFitting                                  ... on

GRIDX 2
-------
General Integration Accuracy     IntAcc      ... 4.020
Radial Grid Type                 RadialGrid  ... OptM3 with GC (2021)
Angular Grid (max. ang.)         AngularGrid ... 2 (Lebedev-110)
Angular grid pruning method      GridPruning ... 4 (adaptive)
Weight generation scheme         WeightScheme... Becke
Basis function cutoff            BFCut       ... 1.0000e-11
Integration weight cutoff        WCut        ... 1.0000e-14
Angular grids for H and He will be reduced by one unit
Partially contracted basis set               ... on
Rotationally invariant grid construction     ... off

Total number of grid points                  ...    18507
Total number of batches                      ...      299
Average number of points per batch           ...       61
Average number of grid points per atom       ...     1157
UseSFitting                                  ... on

GRIDX 3
-------
General Integration Accuracy     IntAcc      ... 4.338
Radial Grid Type                 RadialGrid  ... OptM3 with GC (2021)
Angular Grid (max. ang.)         AngularGrid ... 3 (Lebedev-194)
Angular grid pruning method      GridPruning ... 4 (adaptive)
Weight generation scheme         WeightScheme... Becke
Basis function cutoff            BFCut       ... 1.0000e-11
Integration weight cutoff        WCut        ... 1.0000e-14
Angular grids for H and He will be reduced by one unit
Partially contracted basis set               ... on
Rotationally invariant grid construction     ... off

Total number of grid points                  ...    40491
Total number of batches                      ...      640
Average number of points per batch           ...       63
Average number of grid points per atom       ...     2531
UseSFitting                                  ... on

Time for X-Grid setup             =    0.468 sec

--------------
SCF ITERATIONS
--------------
ITER       Energy         Delta-E        Max-DP      RMS-DP      [F,P]     Damp
               ***  Starting incremental Fock matrix formation  ***
  0   -267.2389686667   0.000000000000 0.09944751  0.00303561  0.2426005 0.7000
  1   -267.3721339109  -0.133165244216 0.06776259  0.00214584  0.1286472 0.7000
                               ***Turning on DIIS***
  2   -267.4277520266  -0.055618115673 0.11366349  0.00361994  0.0494890 0.0000
  3   -267.5038929736  -0.076140947042 0.04643518  0.00142297  0.0724655 0.0000
  4   -267.5262503070  -0.022357333395 0.01179103  0.00043757  0.0164771 0.0000
  5   -267.5274522972  -0.001201990149 0.00371912  0.00015892  0.0047660 0.0000
                      *** Initiating the SOSCF procedure ***
                           *** Shutting down DIIS ***
                      *** Re-Reading the Fockian *** 
                      *** Removing any level shift *** 
ITER      Energy       Delta-E        Grad      Rot      Max-DP    RMS-DP
  6   -267.52754473  -0.0000924349  0.000447  0.000447  0.001365  0.000058
               *** Restarting incremental Fock matrix formation ***
  7   -267.52749970   0.0000450301  0.000133  0.000425  0.000781  0.000039
  8   -267.52750046  -0.0000007582  0.000115  0.000241  0.000220  0.000010
  9   -267.52750064  -0.0000001783  0.000069  0.000211  0.000132  0.000007
 10   -267.52750069  -0.0000000477  0.000037  0.000050  0.000100  0.000002
 11   -267.52750070  -0.0000000134  0.000015  0.000014  0.000051  0.000002
                  ***Gradient check signals convergence***
              ***Rediagonalizing the Fockian in SOSCF/NRSCF***

               *****************************************************
               *                     SUCCESS                       *
               *           SCF CONVERGED AFTER  12 CYCLES          *
               *****************************************************

Old exchange energy                            =     -7.530461176 Eh
New exchange energy                            =     -7.530434102 Eh
Exchange energy change after final integration =      0.000027074 Eh
Total energy after final integration           =   -267.527473629 Eh
Final COS-X integration done in                =     1.325 sec

----------------
TOTAL SCF ENERGY
----------------

Total Energy       :         -267.52747363 Eh           -7279.79265 eV

Components:
Nuclear Repulsion  :          247.22494156 Eh            6727.33267 eV
Electronic Energy  :         -514.75241519 Eh          -14007.12533 eV
One Electron Energy:         -849.89941279 Eh          -23126.93877 eV
Two Electron Energy:          335.14699760 Eh            9119.81345 eV
Max COSX asymmetry :            0.00000216 Eh               0.00006 eV

Virial components:
Potential Energy   :         -532.87328758 Eh          -14500.21933 eV
Kinetic Energy     :          265.34581395 Eh            7220.42668 eV
Virial Ratio       :            2.00822195


DFT components:
N(Alpha)           :       24.000043125399 electrons
N(Beta)            :       24.000043125399 electrons
N(Total)           :       48.000086250798 electrons
E(X)               :      -29.863694132323 Eh       
E(C)               :       -1.868895205155 Eh       
E(XC)              :      -31.732589337478 Eh       
DFET-embed. en.    :        0.000000000000 Eh       

---------------
SCF CONVERGENCE
---------------

  Last Energy change         ...   -3.9233e-09  Tolerance :   1.0000e-08
  Last MAX-Density change    ...    3.5527e-15  Tolerance :   1.0000e-07
  Last RMS-Density change    ...    5.4031e-17  Tolerance :   5.0000e-09
  Last Orbital Gradient      ...    2.1054e-06  Tolerance :   1.0000e-05
  Last Orbital Rotation      ...    5.8498e-06  Tolerance :   1.0000e-05

             **** THE GBW FILE WAS UPDATED (SVP_B3LYP_C2_wt_dlpno_pos.gbw) ****
             **** DENSITY SVP_B3LYP_C2_wt_dlpno_pos.scfp WAS UPDATED ****
             **** ENERGY FILE WAS UPDATED (SVP_B3LYP_C2_wt_dlpno_pos.en.tmp) ****
             **** THE GBW FILE WAS UPDATED (SVP_B3LYP_C2_wt_dlpno_pos.gbw) ****
             **** DENSITY SVP_B3LYP_C2_wt_dlpno_pos.scfp WAS UPDATED ****
----------------
ORBITAL ENERGIES
----------------

  NO   OCC          E(Eh)            E(eV) 
   0   2.0000     -14.319204      -389.6453 
   1   2.0000     -14.317930      -389.6107 
   2   2.0000     -10.221980      -278.1542 
   3   2.0000     -10.215814      -277.9864 
   4   2.0000     -10.183273      -277.1010 
   5   2.0000     -10.085076      -274.4289 
   6   2.0000      -0.951876       -25.9018 
   7   2.0000      -0.865023       -23.5385 
   8   2.0000      -0.766326       -20.8528 
   9   2.0000      -0.688361       -18.7312 
  10   2.0000      -0.617941       -16.8150 
  11   2.0000      -0.585895       -15.9430 
  12   2.0000      -0.525987       -14.3128 
  13   2.0000      -0.489144       -13.3103 
  14   2.0000      -0.475411       -12.9366 
  15   2.0000      -0.457124       -12.4390 
  16   2.0000      -0.413312       -11.2468 
  17   2.0000      -0.390436       -10.6243 
  18   2.0000      -0.374465       -10.1897 
  19   2.0000      -0.371811       -10.1175 
  20   2.0000      -0.369454       -10.0534 
  21   2.0000      -0.341880        -9.3030 
  22   2.0000      -0.247338        -6.7304 
  23   2.0000      -0.149425        -4.0660 
  24   0.0000       0.050319         1.3692 
  25   0.0000       0.070815         1.9270 
  26   0.0000       0.078077         2.1246 
  27   0.0000       0.094008         2.5581 
  28   0.0000       0.112199         3.0531 
  29   0.0000       0.121687         3.3113 
  30   0.0000       0.133409         3.6302 
  31   0.0000       0.149785         4.0759 
  32   0.0000       0.162942         4.4339 
  33   0.0000       0.170174         4.6307 
  34   0.0000       0.189227         5.1491 
  35   0.0000       0.211081         5.7438 
  36   0.0000       0.239474         6.5164 
  37   0.0000       0.297158         8.0861 
  38   0.0000       0.352773         9.5994 
  39   0.0000       0.391226        10.6458 
  40   0.0000       0.415791        11.3142 
  41   0.0000       0.437350        11.9009 
  42   0.0000       0.452215        12.3054 
  43   0.0000       0.458791        12.4843 
  44   0.0000       0.477751        13.0003 
  45   0.0000       0.517953        14.0942 
  46   0.0000       0.527219        14.3463 
  47   0.0000       0.563629        15.3371 
  48   0.0000       0.574690        15.6381 
  49   0.0000       0.591329        16.0909 
  50   0.0000       0.637023        17.3343 
  51   0.0000       0.641349        17.4520 
  52   0.0000       0.657215        17.8837 
  53   0.0000       0.665663        18.1136 
  54   0.0000       0.673050        18.3146 
  55   0.0000       0.691950        18.8289 
  56   0.0000       0.695040        18.9130 
  57   0.0000       0.695243        18.9185 
  58   0.0000       0.730712        19.8837 
  59   0.0000       0.735007        20.0006 
  60   0.0000       0.756528        20.5862 
  61   0.0000       0.775478        21.1018 
  62   0.0000       0.801736        21.8164 
  63   0.0000       0.823672        22.4133 
  64   0.0000       0.864300        23.5188 
  65   0.0000       0.884153        24.0590 
  66   0.0000       0.898354        24.4454 
  67   0.0000       0.956055        26.0156 
  68   0.0000       0.985003        26.8033 
  69   0.0000       1.006728        27.3945 
  70   0.0000       1.091744        29.7079 
  71   0.0000       1.115841        30.3636 
  72   0.0000       1.144178        31.1347 
  73   0.0000       1.185481        32.2586 
  74   0.0000       1.279619        34.8202 
  75   0.0000       1.319584        35.9077 
  76   0.0000       1.349202        36.7137 
  77   0.0000       1.368125        37.2286 
  78   0.0000       1.384253        37.6674 
  79   0.0000       1.482160        40.3316 
  80   0.0000       1.520376        41.3715 
  81   0.0000       1.534309        41.7507 
  82   0.0000       1.580880        43.0179 
  83   0.0000       1.645790        44.7842 
  84   0.0000       1.664017        45.2802 
  85   0.0000       1.706599        46.4389 
  86   0.0000       1.742194        47.4075 
  87   0.0000       1.769038        48.1380 
  88   0.0000       1.784354        48.5547 
  89   0.0000       1.790476        48.7213 
  90   0.0000       1.813814        49.3564 
  91   0.0000       1.824124        49.6369 
  92   0.0000       1.830024        49.7975 
  93   0.0000       1.841221        50.1022 
  94   0.0000       1.853986        50.4495 
  95   0.0000       1.906332        51.8739 
  96   0.0000       1.915881        52.1338 
  97   0.0000       1.959748        53.3275 
  98   0.0000       1.974867        53.7389 
  99   0.0000       1.983110        53.9632 
 100   0.0000       2.023039        55.0497 
 101   0.0000       2.049116        55.7593 
 102   0.0000       2.101737        57.1912 
 103   0.0000       2.162356        58.8407 
 104   0.0000       2.174463        59.1702 
 105   0.0000       2.193460        59.6871 
 106   0.0000       2.271717        61.8166 
 107   0.0000       2.309022        62.8317 
 108   0.0000       2.340144        63.6785 
 109   0.0000       2.380950        64.7890 
 110   0.0000       2.401416        65.3459 
 111   0.0000       2.420985        65.8784 
 112   0.0000       2.451557        66.7102 
 113   0.0000       2.492860        67.8342 
 114   0.0000       2.515554        68.4517 
 115   0.0000       2.571531        69.9749 
 116   0.0000       2.651116        72.1405 
 117   0.0000       2.693998        73.3074 
 118   0.0000       2.716441        73.9181 
 119   0.0000       2.768098        75.3238 
 120   0.0000       2.841730        77.3274 
 121   0.0000       2.871187        78.1290 
 122   0.0000       2.891891        78.6924 
 123   0.0000       2.933988        79.8379 
 124   0.0000       2.952707        80.3472 
 125   0.0000       2.999160        81.6113 
 126   0.0000       3.029112        82.4263 
 127   0.0000       3.075716        83.6945 
 128   0.0000       3.088729        84.0486 
 129   0.0000       3.183735        86.6338 
 130   0.0000       3.234571        88.0171 
 131   0.0000       3.318095        90.2900 
 132   0.0000       3.582545        97.4860 
 133   0.0000       3.663740        99.6954 

                    ********************************
                    * MULLIKEN POPULATION ANALYSIS *
                    ********************************

-----------------------
MULLIKEN ATOMIC CHARGES
-----------------------
   0 C :    0.110558
   1 C :    0.007513
   2 N :   -0.111456
   3 H :   -0.001205
   4 H :    0.002990
   5 C :   -0.078583
   6 C :   -0.054445
   7 N :   -0.084593
   8 H :    0.092292
   9 H :    0.117069
  10 H :    0.114045
  11 H :   -0.087871
  12 H :   -0.066102
  13 H :    0.015205
  14 H :    0.013910
  15 H :    0.010674
Sum of atomic charges:   -0.0000000

--------------------------------
MULLIKEN REDUCED ORBITAL CHARGES
--------------------------------
  0 C s       :     2.975610  s :     2.975610
      pz      :     1.006677  p :     2.861489
      px      :     0.950847
      py      :     0.903965
      dz2     :     0.011951  d :     0.052343
      dxz     :     0.007112
      dyz     :     0.006527
      dx2y2   :     0.011225
      dxy     :     0.015528
  1 C s       :     2.962757  s :     2.962757
      pz      :     1.004989  p :     3.000100
      px      :     0.984884
      py      :     1.010227
      dz2     :     0.009681  d :     0.029630
      dxz     :     0.005167
      dyz     :     0.002194
      dx2y2   :     0.003964
      dxy     :     0.008625
  2 N s       :     3.292625  s :     3.292625
      pz      :     1.337398  p :     3.795908
      px      :     1.308458
      py      :     1.150051
      dz2     :     0.003343  d :     0.022923
      dxz     :     0.004152
      dyz     :     0.005284
      dx2y2   :     0.005159
      dxy     :     0.004986
  3 H s       :     0.979653  s :     0.979653
      pz      :     0.013273  p :     0.021553
      px      :     0.004688
      py      :     0.003592
  4 H s       :     0.975829  s :     0.975829
      pz      :     0.005765  p :     0.021181
      px      :     0.005798
      py      :     0.009618
  5 C s       :     3.014177  s :     3.014177
      pz      :     0.985701  p :     2.970808
      px      :     0.967861
      py      :     1.017245
      dz2     :     0.017277  d :     0.093599
      dxz     :     0.014542
      dyz     :     0.024735
      dx2y2   :     0.019144
      dxy     :     0.017900
  6 C s       :     2.983753  s :     2.983753
      pz      :     1.111137  p :     3.044838
      px      :     0.948014
      py      :     0.985686
      dz2     :     0.003172  d :     0.025854
      dxz     :     0.002906
      dyz     :     0.005073
      dx2y2   :     0.008732
      dxy     :     0.005971
  7 N s       :     3.271216  s :     3.271216
      pz      :     1.225561  p :     3.797028
      px      :     1.490444
      py      :     1.081023
      dz2     :     0.003706  d :     0.016349
      dxz     :     0.002623
      dyz     :     0.003960
      dx2y2   :     0.001784
      dxy     :     0.004277
  8 H s       :     0.861665  s :     0.861665
      pz      :     0.009996  p :     0.046044
      px      :     0.014422
      py      :     0.021626
  9 H s       :     0.837817  s :     0.837817
      pz      :     0.018896  p :     0.045114
      px      :     0.015775
      py      :     0.010443
 10 H s       :     0.840245  s :     0.840245
      pz      :     0.017619  p :     0.045710
      px      :     0.009967
      py      :     0.018123
 11 H s       :     1.057469  s :     1.057469
      pz      :     0.012050  p :     0.030402
      px      :     0.008366
      py      :     0.009986
 12 H s       :     1.036247  s :     1.036247
      pz      :     0.009209  p :     0.029855
      px      :     0.014342
      py      :     0.006304
 13 H s       :     0.960146  s :     0.960146
      pz      :     0.006068  p :     0.024650
      px      :     0.007043
      py      :     0.011539
 14 H s       :     0.961258  s :     0.961258
      pz      :     0.014158  p :     0.024833
      px      :     0.005141
      py      :     0.005534
 15 H s       :     0.964744  s :     0.964744
      pz      :     0.005291  p :     0.024581
      px      :     0.007976
      py      :     0.011314


                     *******************************
                     * LOEWDIN POPULATION ANALYSIS *
                     *******************************

----------------------
LOEWDIN ATOMIC CHARGES
----------------------
   0 C :    0.035369
   1 C :   -0.044839
   2 N :   -0.024981
   3 H :    0.008845
   4 H :    0.008863
   5 C :    0.036055
   6 C :   -0.255665
   7 N :   -0.026982
   8 H :    0.060387
   9 H :    0.079194
  10 H :    0.082112
  11 H :   -0.015726
  12 H :   -0.011898
  13 H :    0.021455
  14 H :    0.021323
  15 H :    0.026488

-------------------------------
LOEWDIN REDUCED ORBITAL CHARGES
-------------------------------
  0 C s       :     2.825727  s :     2.825727
      pz      :     1.058168  p :     3.016933
      px      :     0.995863
      py      :     0.962901
      dz2     :     0.028826  d :     0.121971
      dxz     :     0.017327
      dyz     :     0.014667
      dx2y2   :     0.026023
      dxy     :     0.035128
  1 C s       :     2.819254  s :     2.819254
      pz      :     1.055375  p :     3.150633
      px      :     1.026860
      py      :     1.068399
      dz2     :     0.023434  d :     0.074951
      dxz     :     0.014050
      dyz     :     0.005313
      dx2y2   :     0.010693
      dxy     :     0.021461
  2 N s       :     3.021121  s :     3.021121
      pz      :     1.371243  p :     3.945317
      px      :     1.338702
      py      :     1.235372
      dz2     :     0.008200  d :     0.058543
      dxz     :     0.010737
      dyz     :     0.013630
      dx2y2   :     0.012011
      dxy     :     0.013965
  3 H s       :     0.925936  s :     0.925936
      pz      :     0.039661  p :     0.065219
      px      :     0.014487
      py      :     0.011072
  4 H s       :     0.926248  s :     0.926248
      pz      :     0.016177  p :     0.064889
      px      :     0.018232
      py      :     0.030481
  5 C s       :     2.795848  s :     2.795848
      pz      :     0.942817  p :     2.950026
      px      :     0.951681
      py      :     1.055528
      dz2     :     0.038337  d :     0.218071
      dxz     :     0.034246
      dyz     :     0.058148
      dx2y2   :     0.044798
      dxy     :     0.042542
  6 C s       :     2.821104  s :     2.821104
      pz      :     1.190795  p :     3.360422
      px      :     1.107272
      py      :     1.062354
      dz2     :     0.008760  d :     0.074139
      dxz     :     0.009382
      dyz     :     0.014021
      dx2y2   :     0.023994
      dxy     :     0.017983
  7 N s       :     3.023158  s :     3.023158
      pz      :     1.283755  p :     3.960318
      px      :     1.487607
      py      :     1.188957
      dz2     :     0.009581  d :     0.043506
      dxz     :     0.006863
      dyz     :     0.011553
      dx2y2   :     0.005163
      dxy     :     0.010345
  8 H s       :     0.814197  s :     0.814197
      pz      :     0.024410  p :     0.125416
      px      :     0.042687
      py      :     0.058319
  9 H s       :     0.798443  s :     0.798443
      pz      :     0.051680  p :     0.122364
      px      :     0.045648
      py      :     0.025036
 10 H s       :     0.793580  s :     0.793580
      pz      :     0.047378  p :     0.124308
      px      :     0.026301
      py      :     0.050629
 11 H s       :     0.926409  s :     0.926409
      pz      :     0.037726  p :     0.089316
      px      :     0.024557
      py      :     0.027033
 12 H s       :     0.922471  s :     0.922471
      pz      :     0.029490  p :     0.089427
      px      :     0.040333
      py      :     0.019604
 13 H s       :     0.908979  s :     0.908979
      pz      :     0.016620  p :     0.069566
      px      :     0.020668
      py      :     0.032278
 14 H s       :     0.909234  s :     0.909234
      pz      :     0.040105  p :     0.069443
      px      :     0.015361
      py      :     0.013977
 15 H s       :     0.904533  s :     0.904533
      pz      :     0.014437  p :     0.068980
      px      :     0.023300
      py      :     0.031243


                      *****************************
                      * MAYER POPULATION ANALYSIS *
                      *****************************

  NA   - Mulliken gross atomic population
  ZA   - Total nuclear charge
  QA   - Mulliken gross atomic charge
  VA   - Mayer's total valence
  BVA  - Mayer's bonded valence
  FA   - Mayer's free valence

  ATOM       NA         ZA         QA         VA         BVA        FA
  0 C      5.8894     6.0000     0.1106     4.0680     4.0680    -0.0000
  1 C      5.9925     6.0000     0.0075     4.0518     4.0518    -0.0000
  2 N      7.1115     7.0000    -0.1115     3.2177     3.2177    -0.0000
  3 H      1.0012     1.0000    -0.0012     0.9777     0.9777    -0.0000
  4 H      0.9970     1.0000     0.0030     0.9646     0.9646    -0.0000
  5 C      6.0786     6.0000    -0.0786     4.4798     4.4798    -0.0000
  6 C      6.0544     6.0000    -0.0544     3.6902     3.6902     0.0000
  7 N      7.0846     7.0000    -0.0846     3.1913     3.1913     0.0000
  8 H      0.9077     1.0000     0.0923     1.0196     1.0196     0.0000
  9 H      0.8829     1.0000     0.1171     1.0036     1.0036    -0.0000
 10 H      0.8860     1.0000     0.1140     1.0063     1.0063    -0.0000
 11 H      1.0879     1.0000    -0.0879     0.9882     0.9882     0.0000
 12 H      1.0661     1.0000    -0.0661     0.9913     0.9913     0.0000
 13 H      0.9848     1.0000     0.0152     0.9945     0.9945    -0.0000
 14 H      0.9861     1.0000     0.0139     0.9896     0.9896    -0.0000
 15 H      0.9893     1.0000     0.0107     0.9902     0.9902    -0.0000

  Mayer bond orders larger than 0.100000
B(  0-C ,  1-C ) :   1.1166 B(  0-C ,  2-N ) :   1.0015 B(  0-C ,  3-H ) :   0.9382 
B(  0-C ,  4-H ) :   0.9419 B(  1-C , 13-H ) :   0.9714 B(  1-C , 14-H ) :   0.9689 
B(  1-C , 15-H ) :   0.9626 B(  2-N ,  5-C ) :   1.2351 B(  2-N , 10-H ) :   0.9186 
B(  5-C ,  6-C ) :   1.7365 B(  5-C ,  7-N ) :   1.2182 B(  6-C , 11-H ) :   0.9119 
B(  6-C , 12-H ) :   0.9427 B(  7-N ,  8-H ) :   0.9527 B(  7-N ,  9-H ) :   0.9490 


-------
TIMINGS
-------

Total SCF time: 0 days 0 hours 0 min 11 sec 

Total time                  ....      11.727 sec
Sum of individual times     ....      11.587 sec  ( 98.8%)

Fock matrix formation       ....      10.279 sec  ( 87.7%)
  Split-RI-J                ....       0.955 sec  (  9.3% of F)
  Chain of spheres X        ....       7.184 sec  ( 69.9% of F)
  XC integration            ....       2.113 sec  ( 20.6% of F)
    Basis function eval.    ....       0.872 sec  ( 41.2% of XC)
    Density eval.           ....       0.430 sec  ( 20.4% of XC)
    XC-Functional eval.     ....       0.221 sec  ( 10.5% of XC)
    XC-Potential eval.      ....       0.407 sec  ( 19.3% of XC)
Diagonalization             ....       0.033 sec  (  0.3%)
Density matrix formation    ....       0.003 sec  (  0.0%)
Population analysis         ....       0.006 sec  (  0.1%)
Initial guess               ....       0.135 sec  (  1.2%)
Orbital Transformation      ....       0.000 sec  (  0.0%)
Orbital Orthonormalization  ....       0.000 sec  (  0.0%)
DIIS solution               ....       0.022 sec  (  0.2%)
SOSCF solution              ....       0.020 sec  (  0.2%)
Grid generation             ....       1.088 sec  (  9.3%)

Maximum memory used throughout the entire SCF-calculation: 50.5 MB


-------------------------------------------------------------------------------
                          DFT DISPERSION CORRECTION                            
                                                                               
                              DFTD3 V3.1  Rev 1                                
                          USING Becke-Johnson damping                          
-------------------------------------------------------------------------------
The B3LYP functional is recognized
Active option DFTDOPT                   ...         4   

molecular C6(AA) [au] = 1934.978361 


            DFT-D V3
 parameters
 s6 scaling factor         :     1.0000 
 a1 scaling factor         :     0.3981 
 s8 scaling factor         :     1.9889 
 a2 scaling factor         :     4.4211 
 ad hoc parameters k1-k3   :    16.0000     1.3333    -4.0000 

 Edisp/kcal,au: -12.817719044986  -0.020426333318 
 E6   /kcal   :  -6.367264413 
 E8   /kcal   :  -6.450454632 
 % E8         :  50.324512572 

-------------------------   ----------------
Dispersion correction           -0.020426333
-------------------------   ----------------


-------------------------   --------------------
FINAL SINGLE POINT ENERGY      -267.547899962811
-------------------------   --------------------


                            ***************************************
                            *     ORCA property calculations      *
                            ***************************************

                                    ---------------------
                                    Active property flags
                                    ---------------------
   (+) Dipole Moment


------------------------------------------------------------------------------
                       ORCA ELECTRIC PROPERTIES CALCULATION
------------------------------------------------------------------------------

Dipole Moment Calculation                       ... on
Quadrupole Moment Calculation                   ... off
Polarizability Calculation                      ... off
GBWName                                         ... SVP_B3LYP_C2_wt_dlpno_pos.gbw
Electron density file                           ... SVP_B3LYP_C2_wt_dlpno_pos.scfp
The origin for moment calculation is the CENTER OF MASS  = ( 4.935834, -1.232471 -10.593160)

-------------
DIPOLE MOMENT
-------------
                                X             Y             Z
Electronic contribution:      2.98327       0.53301      -1.33042
Nuclear contribution   :     -3.69145      -1.49398       1.19810
                        -----------------------------------------
Total Dipole Moment    :     -0.70818      -0.96097      -0.13233
                        -----------------------------------------
Magnitude (a.u.)       :      1.20104
Magnitude (Debye)      :      3.05281



--------------------
Rotational spectrum 
--------------------
 
Rotational constants in cm-1:     0.270790     0.068966     0.056679 
Rotational constants in MHz :  8118.084803  2067.559423  1699.196934 

 Dipole components along the rotational axes: 
x,y,z [a.u.] :     0.930559    -0.748714     0.126441 
x,y,z [Debye]:     2.365294    -1.903080     0.321387 

 

Timings for individual modules:

Sum of individual times         ...       15.539 sec (=   0.259 min)
GTO integral calculation        ...        2.022 sec (=   0.034 min)  13.0 %
SCF iterations                  ...       13.517 sec (=   0.225 min)  87.0 %
                             ****ORCA TERMINATED NORMALLY****
TOTAL RUN TIME: 0 days 0 hours 0 minutes 16 seconds 21 msec
