
                                        *****************
                                        * O   R   C   A *
                                        *****************

                                            #,                                       
                                            ###                                      
                                            ####                                     
                                            #####                                    
                                            ######                                   
                                           ########,                                 
                                     ,,################,,,,,                         
                               ,,#################################,,                 
                          ,,##########################################,,             
                       ,#########################################, ''#####,          
                    ,#############################################,,   '####,        
                  ,##################################################,,,,####,       
                ,###########''''           ''''###############################       
              ,#####''   ,,,,##########,,,,          '''####'''          '####       
            ,##' ,,,,###########################,,,                        '##       
           ' ,,###''''                  '''############,,,                           
         ,,##''                                '''############,,,,        ,,,,,,###''
      ,#''                                            '''#######################'''  
     '                                                          ''''####''''         
             ,#######,   #######,   ,#######,      ##                                
            ,#'     '#,  ##    ##  ,#'     '#,    #''#        ######   ,####,        
            ##       ##  ##   ,#'  ##            #'  '#       #        #'  '#        
            ##       ##  #######   ##           ,######,      #####,   #    #        
            '#,     ,#'  ##    ##  '#,     ,#' ,#      #,         ##   #,  ,#        
             '#######'   ##     ##  '#######'  #'      '#     #####' # '####'        



                  #######################################################
                  #                        -***-                        #
                  #          Department of theory and spectroscopy      #
                  #    Directorship and core code : Frank Neese         #
                  #        Max Planck Institute fuer Kohlenforschung    #
                  #                Kaiser Wilhelm Platz 1               #
                  #                 D-45470 Muelheim/Ruhr               #
                  #                      Germany                        #
                  #                                                     #
                  #                  All rights reserved                #
                  #                        -***-                        #
                  #######################################################


                         Program Version 5.0.0 -  RELEASE  -
                                (SVN: $Rev: 19529$)
                ($Date: 2021-06-28 11:36:33 +0200 (Mo, 28 Jun 2021) $)


 With contributions from (in alphabetic order):
   Daniel Aravena         : Magnetic Suceptibility
   Michael Atanasov       : Ab Initio Ligand Field Theory (pilot matlab implementation)
   Alexander A. Auer      : GIAO ZORA, VPT2 properties, NMR spectrum
   Ute Becker             : Parallelization
   Giovanni Bistoni       : ED, misc. LED, open-shell LED, HFLD
   Martin Brehm           : Molecular dynamics
   Dmytro Bykov           : SCF Hessian
   Vijay G. Chilkuri      : MRCI spin determinant printing, contributions to CSF-ICE
   Dipayan Datta          : RHF DLPNO-CCSD density
   Achintya Kumar Dutta   : EOM-CC, STEOM-CC
   Dmitry Ganyushin       : Spin-Orbit,Spin-Spin,Magnetic field MRCI
   Miquel Garcia          : C-PCM Hessian, Gaussian charge scheme
   Yang Guo               : DLPNO-NEVPT2, F12-NEVPT2, CIM, IAO-localization
   Andreas Hansen         : Spin unrestricted coupled pair/coupled cluster methods
   Benjamin Helmich-Paris : MC-RPA, TRAH-SCF, COSX integrals
   Lee Huntington         : MR-EOM, pCC
   Robert Izsak           : Overlap fitted RIJCOSX, COSX-SCS-MP3, EOM
   Marcus Kettner         : VPT2
   Christian Kollmar      : KDIIS, OOCD, Brueckner-CCSD(T), CCSD density, CASPT2, CASPT2-K
   Simone Kossmann        : Meta GGA functionals, TD-DFT gradient, OOMP2, MP2 Hessian
   Martin Krupicka        : Initial AUTO-CI
   Lucas Lang             : DCDCAS
   Marvin Lechner         : AUTO-CI (C++ implementation), FIC-MRCC
   Dagmar Lenk            : GEPOL surface, SMD
   Dimitrios Liakos       : Extrapolation schemes; Compound Job, initial MDCI parallelization
   Dimitrios Manganas     : Further ROCIS development; embedding schemes
   Dimitrios Pantazis     : SARC Basis sets
   Anastasios Papadopoulos: AUTO-CI, single reference methods and gradients
   Taras Petrenko         : DFT Hessian,TD-DFT gradient, ASA, ECA, R-Raman, ABS, FL, XAS/XES, NRVS
   Peter Pinski           : DLPNO-MP2, DLPNO-MP2 Gradient
   Christoph Reimann      : Effective Core Potentials
   Marius Retegan         : Local ZFS, SOC
   Christoph Riplinger    : Optimizer, TS searches, QM/MM, DLPNO-CCSD(T), (RO)-DLPNO pert. Triples
   Tobias Risthaus        : Range-separated hybrids, TD-DFT gradient, RPA, STAB
   Michael Roemelt        : Original ROCIS implementation
   Masaaki Saitow         : Open-shell DLPNO-CCSD energy and density
   Barbara Sandhoefer     : DKH picture change effects
   Avijit Sen             : IP-ROCIS
   Kantharuban Sivalingam : CASSCF convergence, NEVPT2, FIC-MRCI
   Bernardo de Souza      : ESD, SOC TD-DFT
   Georgi Stoychev        : AutoAux, RI-MP2 NMR
   Willem Van den Heuvel  : Paramagnetic NMR
   Boris Wezisla          : Elementary symmetry handling
   Frank Wennmohs         : Technical directorship


 We gratefully acknowledge several colleagues who have allowed us to
 interface, adapt or use parts of their codes:
   Stefan Grimme, W. Hujo, H. Kruse, P. Pracht,  : VdW corrections, initial TS optimization,
                  C. Bannwarth, S. Ehlert          DFT functionals, gCP, sTDA/sTD-DF
   Ed Valeev, F. Pavosevic, A. Kumar             : LibInt (2-el integral package), F12 methods
   Garnet Chan, S. Sharma, J. Yang, R. Olivares  : DMRG
   Ulf Ekstrom                                   : XCFun DFT Library
   Mihaly Kallay                                 : mrcc  (arbitrary order and MRCC methods)
   Jiri Pittner, Ondrej Demel                    : Mk-CCSD
   Frank Weinhold                                : gennbo (NPA and NBO analysis)
   Christopher J. Cramer and Donald G. Truhlar   : smd solvation model
   Lars Goerigk                                  : TD-DFT with DH, B97 family of functionals
   V. Asgeirsson, H. Jonsson                     : NEB implementation
   FAccTs GmbH                                   : IRC, NEB, NEB-TS, DLPNO-Multilevel, CI-OPT
                                                   MM, QMMM, 2- and 3-layer-ONIOM, Crystal-QMMM,
                                                   LR-CPCM, SF, NACMEs, symmetry and pop. for TD-DFT,
                                                   nearIR, NL-DFT gradient (VV10), updates on ESD,
                                                   ML-optimized integration grids
   S Lehtola, MJT Oliveira, MAL Marques          : LibXC Library
   Liviu Ungur et al                             : ANISO software


 Your calculation uses the libint2 library for the computation of 2-el integrals
 For citations please refer to: http://libint.valeyev.net

 Your ORCA version has been built with support for libXC version: 5.1.0
 For citations please refer to: https://tddft.org/programs/libxc/

 This ORCA versions uses:
   CBLAS   interface :  Fast vector & matrix operations
   LAPACKE interface :  Fast linear algebra routines
   SCALAPACK package :  Parallel linear algebra routines
   Shared memory     :  Shared parallel matrices
   BLAS/LAPACK       :  OpenBLAS 0.3.15  USE64BITINT DYNAMIC_ARCH NO_AFFINITY Haswell SINGLE_THREADED
        Core in use  :  Haswell
   Copyright (c) 2011-2014, The OpenBLAS Project




***************************************
The coordinates will be read from file: D5.xyz
***************************************


Your calculation utilizes the atom-pairwise dispersion correction
with the zero-damping scheme (D30)
Cite in your paper:
S.Grimme, J.Antony, S.Ehrlich and H.Krieg, J.Chem.Phys., 132, (2010), 154104 
   

XCFun DFT library Copyright 2009-2010 Ulf Ekstrom and contributors.
See http://admol.org/xcfun for more information.
This is free software; see the source code for copying conditions.
There is ABSOLUTELY NO WARRANTY; not even for MERCHANTABILITY or FITNESS FOR A PARTICULAR PURPOSE.
For details see the documentation.
Scientific users of this library should cite U. Ekstrom, L. Visscher, R. Bast, A. J. Thorvaldsen and K. Ruud;
J.Chem.Theor.Comp. 2010, DOI: 10.1021/ct100117s
XCFun Version 0.99 

================================================================================

----- Orbital basis set information -----
Your calculation utilizes the basis: def2-SVPD
   F. Weigend and R. Ahlrichs, Phys. Chem. Chem. Phys. 7, 3297 (2005).
   D. Rappoport and F. Furche, J. Chem. Phys. 133 134105 (2010).

----- AuxJ basis set information -----
Your calculation utilizes the auxiliary basis: def2/J
   F. Weigend, Phys. Chem. Chem. Phys. 8, 1057 (2006).

================================================================================
                                        WARNINGS
                       Please study these warnings very carefully!
================================================================================


INFO   : the flag for use of the SHARK integral package has been found!

================================================================================
                                       INPUT FILE
================================================================================
NAME = D5_wb97.com
|  1> !wB97X-D3 RIJCOSX def2-SVPD def2/J TightSCF CPCM(Water) xyzfile        
|  2> 
|  3> *xyzfile 0 1 D5.xyz
|  4> 
|  5> %MaxCore 64000
|  6> 
|  7> %pal nprocs 18                                                                                                                                                  
|  8> end  
|  9> 
| 10> %scf
| 11>   MaxIter 150
| 12> end
| 13> 
| 14> 
| 15>                          ****END OF INPUT****
================================================================================

                       ****************************
                       * Single Point Calculation *
                       ****************************

---------------------------------
CARTESIAN COORDINATES (ANGSTROEM)
---------------------------------
  C     -0.461293    2.234686   -4.989619
  C      0.848883    2.667967   -4.302351
  C      2.093434    1.861037   -4.656845
  H      2.444814    2.041567   -5.674990
  H      2.901748    2.137864   -3.980338
  S      1.879644    0.078594   -4.462965
  C     -0.423841    2.398772   -6.474317
  C     -0.959467    3.492647   -7.007401
  N      0.145585    1.486891   -7.203987
  H      0.565371    0.696807   -6.723858
  H      0.220682    1.581768   -8.207520
  H     -1.406243    4.181507   -6.403261
  H     -0.934215    3.681601   -7.999468
  O      3.207574   -0.466111   -4.420259
  O      1.075064   -0.056160   -3.268758
  F      1.131661   -0.319960   -5.679031
  H      0.668432    2.559427   -3.232850
  H      1.034074    3.729426   -4.497081
  H     -1.288884    2.826737   -4.594997
  H     -0.651696    1.186343   -4.756552

----------------------------
CARTESIAN COORDINATES (A.U.)
----------------------------
  NO LB      ZA    FRAG     MASS         X           Y           Z
   0 C     6.0000    0    12.011   -0.871717    4.222944   -9.429013
   1 C     6.0000    0    12.011    1.604156    5.041727   -8.130266
   2 C     6.0000    0    12.011    3.956017    3.516850   -8.800161
   3 H     1.0000    0     1.008    4.620028    3.858002  -10.724178
   4 H     1.0000    0     1.008    5.483509    4.039977   -7.521748
   5 S    16.0000    0    32.060    3.552012    0.148521   -8.433782
   6 C     6.0000    0    12.011   -0.800943    4.533022  -12.234685
   7 C     6.0000    0    12.011   -1.813129    6.600147  -13.242068
   8 N     7.0000    0    14.007    0.275115    2.809816  -13.613563
   9 H     1.0000    0     1.008    1.068396    1.316775  -12.706251
  10 H     1.0000    0     1.008    0.417028    2.989109  -15.509964
  11 H     1.0000    0     1.008   -2.657413    7.901902  -12.100409
  12 H     1.0000    0     1.008   -1.765410    6.957218  -15.116805
  13 O     8.0000    0    15.999    6.061437   -0.880823   -8.353079
  14 O     8.0000    0    15.999    2.031576   -0.106127   -6.177057
  15 F     9.0000    0    18.998    2.138530   -0.604636  -10.731813
  16 H     1.0000    0     1.008    1.263154    4.836616   -6.109201
  17 H     1.0000    0     1.008    1.954117    7.047595   -8.498252
  18 H     1.0000    0     1.008   -2.435638    5.341759   -8.683286
  19 H     1.0000    0     1.008   -1.231526    2.241864   -8.988580

--------------------------------
INTERNAL COORDINATES (ANGSTROEM)
--------------------------------
 C      0   0   0     0.000000000000     0.00000000     0.00000000
 C      1   0   0     1.541631965111     0.00000000     0.00000000
 C      2   1   0     1.525027590294   116.18172614     0.00000000
 H      3   2   1     1.092098690696   113.06752036    71.01548842
 H      3   2   1     1.089800875004   109.06216866   190.35286741
 S      3   2   1     1.805657593026   113.62435890   308.07249457
 C      1   2   3     1.494206744861   113.00444366   296.28133312
 C      7   1   2     1.329525396380   118.59788130   262.68978212
 N      7   1   2     1.299304241243   119.46724797    81.59831966
 H      9   7   1     1.015370050484   117.49951858   358.73951065
 H      9   7   1     1.010801007465   121.61653338   182.37307597
 H      8   7   1     1.019372588134   119.66533631   358.25279225
 H      8   7   1     1.010217642510   122.51868751   177.49247968
 O      6   3   2     1.435941290310   105.55473738   197.66009361
 O      6   3   2     1.446249762107   104.27088318   321.55561304
 F      6   3   2     1.482274821591   103.71425996    78.73693654
 H      2   1   3     1.090034998608   105.58874260   240.24018957
 H      2   1   3     1.094948251900   109.68893549   124.80108786
 H      1   2   3     1.091402020806   109.31625547   175.23624021
 H      1   2   3     1.090685786809   108.85901801    57.27750679

---------------------------
INTERNAL COORDINATES (A.U.)
---------------------------
 C      0   0   0     0.000000000000     0.00000000     0.00000000
 C      1   0   0     2.913262213359     0.00000000     0.00000000
 C      2   1   0     2.881884492329   116.18172614     0.00000000
 H      3   2   1     2.063767436629   113.06752036    71.01548842
 H      3   2   1     2.059425194266   109.06216866   190.35286741
 S      3   2   1     3.412198342455   113.62435890   308.07249457
 C      1   2   3     2.823641535245   113.00444366   296.28133312
 C      7   1   2     2.512438887251   118.59788130   262.68978212
 N      7   1   2     2.455329180592   119.46724797    81.59831966
 H      9   7   1     1.918771320000   117.49951858   358.73951065
 H      9   7   1     1.910137080000   121.61653338   182.37307597
 H      8   7   1     1.926335020000   119.66533631   358.25279225
 H      8   7   1     1.909034680000   122.51868751   177.49247968
 O      6   3   2     2.713535783076   105.55473738   197.66009361
 O      6   3   2     2.733015971631   104.27088318   321.55561304
 F      6   3   2     2.801093468014   103.71425996    78.73693654
 H      2   1   3     2.059867623758   105.58874260   240.24018957
 H      2   1   3     2.069152326907   109.68893549   124.80108786
 H      1   2   3     2.062450921331   109.31625547   175.23624021
 H      1   2   3     2.061097435229   108.85901801    57.27750679

---------------------
BASIS SET INFORMATION
---------------------
There are 6 groups of distinct atoms

 Group   1 Type C   : 8s4p2d contracted to 4s2p2d pattern {5111/31/11}
 Group   2 Type H   : 4s2p contracted to 2s2p pattern {31/11}
 Group   3 Type S   : 11s8p2d contracted to 5s4p2d pattern {53111/5111/11}
 Group   4 Type N   : 8s4p2d contracted to 4s2p2d pattern {5111/31/11}
 Group   5 Type O   : 8s5p2d contracted to 4s3p2d pattern {5111/311/11}
 Group   6 Type F   : 8s5p2d contracted to 4s3p2d pattern {5111/311/11}

Atom   0C    basis set group =>   1
Atom   1C    basis set group =>   1
Atom   2C    basis set group =>   1
Atom   3H    basis set group =>   2
Atom   4H    basis set group =>   2
Atom   5S    basis set group =>   3
Atom   6C    basis set group =>   1
Atom   7C    basis set group =>   1
Atom   8N    basis set group =>   4
Atom   9H    basis set group =>   2
Atom  10H    basis set group =>   2
Atom  11H    basis set group =>   2
Atom  12H    basis set group =>   2
Atom  13O    basis set group =>   5
Atom  14O    basis set group =>   5
Atom  15F    basis set group =>   6
Atom  16H    basis set group =>   2
Atom  17H    basis set group =>   2
Atom  18H    basis set group =>   2
Atom  19H    basis set group =>   2
---------------------------------
AUXILIARY/J BASIS SET INFORMATION
---------------------------------
There are 6 groups of distinct atoms

 Group   1 Type C   : 12s5p4d2f1g contracted to 6s4p3d1f1g pattern {711111/2111/211/2/1}
 Group   2 Type H   : 5s2p1d contracted to 3s1p1d pattern {311/2/1}
 Group   3 Type S   : 14s5p5d2f1g contracted to 8s4p3d1f1g pattern {71111111/2111/311/2/1}
 Group   4 Type N   : 12s5p4d2f1g contracted to 6s4p3d1f1g pattern {711111/2111/211/2/1}
 Group   5 Type O   : 12s5p4d2f1g contracted to 6s4p3d1f1g pattern {711111/2111/211/2/1}
 Group   6 Type F   : 12s5p4d2f1g contracted to 6s4p3d1f1g pattern {711111/2111/211/2/1}

Atom   0C    basis set group =>   1
Atom   1C    basis set group =>   1
Atom   2C    basis set group =>   1
Atom   3H    basis set group =>   2
Atom   4H    basis set group =>   2
Atom   5S    basis set group =>   3
Atom   6C    basis set group =>   1
Atom   7C    basis set group =>   1
Atom   8N    basis set group =>   4
Atom   9H    basis set group =>   2
Atom  10H    basis set group =>   2
Atom  11H    basis set group =>   2
Atom  12H    basis set group =>   2
Atom  13O    basis set group =>   5
Atom  14O    basis set group =>   5
Atom  15F    basis set group =>   6
Atom  16H    basis set group =>   2
Atom  17H    basis set group =>   2
Atom  18H    basis set group =>   2
Atom  19H    basis set group =>   2


           ************************************************************
           *        Program running with 18 parallel MPI-processes    *
           *              working on a common directory               *
           ************************************************************
------------------------------------------------------------------------------
                           ORCA GTO INTEGRAL CALCULATION
                           -- RI-GTO INTEGRALS CHOSEN --
------------------------------------------------------------------------------
------------------------------------------------------------------------------
                   ___                                                        
                  /   \      - P O W E R E D   B Y -                         
                 /     \                                                     
                 |  |  |   _    _      __       _____    __    __             
                 |  |  |  | |  | |    /  \     |  _  \  |  |  /  |          
                  \  \/   | |  | |   /    \    | | | |  |  | /  /          
                 / \  \   | |__| |  /  /\  \   | |_| |  |  |/  /          
                |  |  |   |  __  | /  /__\  \  |    /   |      \           
                |  |  |   | |  | | |   __   |  |    \   |  |\   \          
                \     /   | |  | | |  |  |  |  | |\  \  |  | \   \       
                 \___/    |_|  |_| |__|  |__|  |_| \__\ |__|  \__/        
                                                                              
                      - O R C A' S   B I G   F R I E N D -                    
                                      &                                       
                       - I N T E G R A L  F E E D E R -                       
                                                                              
 v1 FN, 2020, v2 2021                                                         
------------------------------------------------------------------------------


Reading SHARK input file D5_wb97.SHARKINP.tmp ... ok
----------------------
SHARK INTEGRAL PACKAGE
----------------------

Number of atoms                             ...     20
Number of basis functions                   ...    296
Number of shells                            ...    126
Maximum angular momentum                    ...      2
Integral batch strategy                     ... SHARK/LIBINT Hybrid
RI-J (if used) integral strategy            ... SPLIT-RIJ (Revised 2003 algorithm where possible)
Printlevel                                  ...      1
Contraction scheme used                     ... SEGMENTED contraction
Coulomb Range Separation                    ... NOT USED
Exchange Range Separation                   ... Long Range
   Mu parameter                             ...  0.250000
   Scaling (regular/separated)              ...  0.195728  0.804272
Finite Nucleus Model                        ... NOT USED
Auxiliary Coulomb fitting basis             ... AVAILABLE
   # of basis functions in Aux-J            ...    602
   # of shells in Aux-J                     ...    202
   Maximum angular momentum in Aux-J        ...      4
Auxiliary J/K fitting basis                 ... NOT available
Auxiliary Correlation fitting basis         ... NOT available
Auxiliary 'external' fitting basis          ... NOT available
Integral threshold                          ...     2.500000e-11
Primitive cut-off                           ...     2.500000e-12
Primitive pair pre-selection threshold      ...     2.500000e-12

Calculating pre-screening integrals         ... done (  0.1 sec) Dimension = 126
Organizing shell pair data                  ... done (  0.1 sec)
Shell pair information
Total number of shell pairs                 ...      8001
Shell pairs after pre-screening             ...      7647
Total number of primitive shell pairs       ...     22325
Primitive shell pairs kept                  ...     16853
          la=0 lb=0:   1783 shell pairs
          la=1 lb=0:   2620 shell pairs
          la=1 lb=1:   1002 shell pairs
          la=2 lb=0:   1170 shell pairs
          la=2 lb=1:    869 shell pairs
          la=2 lb=2:    203 shell pairs

Calculating one electron integrals          ... done (  0.0 sec)
Calculating RI/J V-Matrix + Cholesky decomp.... done (  0.1 sec)
Calculating Nuclear repulsion               ... done (  0.0 sec) ENN=    728.628721717713 Eh

SHARK setup successfully completed in   0.3 seconds

Maximum memory used throughout the entire GTOINT-calculation: 13.8 MB


           ************************************************************
           *        Program running with 18 parallel MPI-processes    *
           *              working on a common directory               *
           ************************************************************
-------------------------------------------------------------------------------
                                 ORCA SCF
-------------------------------------------------------------------------------

------------
SCF SETTINGS
------------
Hamiltonian:
 Density Functional     Method          .... DFT(GTOs)
 Exchange Functional    Exchange        .... WB97X-D3
 Correlation Functional Correlation     .... WB97X-D3
 Gradients option       PostSCFGGA      .... off
 Hybrid DFT is turned on
   Fraction HF Exchange ScalHFX         ....  0.195728
   Scaling of DF-GGA-X  ScalDFX         ....  0.000000
   Scaling of DF-GGA-C  ScalDFC         ....  1.000000
   Scaling of DF-LDA-C  ScalLDAC        ....  1.000000
   Perturbative correction              ....  0.000000
   Density functional embedding theory  .... OFF
 Long-range corrected/Screened/Range-Separated Hybrid DFT is turned on
   Amount of maximum screened exact exchange              ....  0.804272
   Range separation parameter mu (erf(mu*r12)/r12)        ....  0.250000
 RI-approximation to the Coulomb term is turned on
   Number of AuxJ basis functions       .... 602
   RIJ-COSX (HFX calculated with COS-X)).... on


General Settings:
 Integral files         IntName         .... D5_wb97
 Hartree-Fock type      HFTyp           .... RHF
 Total Charge           Charge          ....    0
 Multiplicity           Mult            ....    1
 Number of Electrons    NEL             ....   88
 Basis Dimension        Dim             ....  296
 Nuclear Repulsion      ENuc            ....    728.6287217177 Eh

Convergence Acceleration:
 DIIS                   CNVDIIS         .... on
   Start iteration      DIISMaxIt       ....    12
   Startup error        DIISStart       ....  0.200000
   # of expansion vecs  DIISMaxEq       ....     5
   Bias factor          DIISBfac        ....   1.050
   Max. coefficient     DIISMaxC        ....  10.000
 Trust-Rad. Augm. Hess. CNVTRAH         .... auto
   Auto Start mean grad. ratio tolernc. ....  1.125000
   Auto Start start iteration           ....    20
   Auto Start num. interpolation iter.  ....    10
   Max. Number of Micro iterations      ....    16
   Max. Number of Macro iterations      .... Maxiter - #DIIS iter
   Number of Davidson start vectors     ....     2
   Converg. threshold I  (grad. norm)   ....   1.000e-05
   Converg. threshold II (energy diff.) ....   1.000e-08
   Grad. Scal. Fac. for Micro threshold ....   0.100
   Minimum threshold for Micro iter.    ....   0.010
   NR start threshold (gradient norm)   ....   0.001
   Initial trust radius                 ....   0.400
   Minimum AH scaling param. (alpha)    ....   1.000
   Maximum AH scaling param. (alpha)    .... 1000.000
   Orbital update algorithm             .... Taylor
   White noise on init. David. guess    .... on
   Maximum white noise                  ....   0.010
   Quad. conv. algorithm                .... NR
 SOSCF                  CNVSOSCF        .... on
   Start iteration      SOSCFMaxIt      ....   150
   Startup grad/error   SOSCFStart      ....  0.003300
 Level Shifting         CNVShift        .... on
   Level shift para.    LevelShift      ....    0.2500
   Turn off err/grad.   ShiftErr        ....    0.0010
 Zerner damping         CNVZerner       .... off
 Static damping         CNVDamp         .... on
   Fraction old density DampFac         ....    0.7000
   Max. Damping (<1)    DampMax         ....    0.9800
   Min. Damping (>=0)   DampMin         ....    0.0000
   Turn off err/grad.   DampErr         ....    0.1000
 Fernandez-Rico         CNVRico         .... off

SCF Procedure:
 Maximum # iterations   MaxIter         ....   150
 SCF integral mode      SCFMode         .... Direct
   Integral package                     .... SHARK and LIBINT hybrid scheme
 Reset frequency        DirectResetFreq ....    20
 Integral Threshold     Thresh          ....  2.500e-11 Eh
 Primitive CutOff       TCut            ....  2.500e-12 Eh

Convergence Tolerance:
 Convergence Check Mode ConvCheckMode   .... Total+1el-Energy
 Convergence forced     ConvForced      .... 0
 Energy Change          TolE            ....  1.000e-08 Eh
 1-El. energy change                    ....  1.000e-05 Eh
 Orbital Gradient       TolG            ....  1.000e-05
 Orbital Rotation angle TolX            ....  1.000e-05
 DIIS Error             TolErr          ....  5.000e-07


Diagonalization of the overlap matrix:
Smallest eigenvalue                        ... 3.381e-05
Time for diagonalization                   ...    0.023 sec
Threshold for overlap eigenvalues          ... 1.000e-08
Number of eigenvalues below threshold      ... 0
Time for construction of square roots      ...    0.042 sec
Total time needed                          ...    0.067 sec

Time for model grid setup =    0.106 sec

------------------------------
INITIAL GUESS: MODEL POTENTIAL
------------------------------
Loading Hartree-Fock densities                     ... done
Calculating cut-offs                               ... done
Initializing the effective Hamiltonian             ... done
Setting up the integral package (SHARK)            ... done
Starting the Coulomb interaction                   ... done (   0.0 sec)
Reading the grid                                   ... done
Mapping shells                                     ... done
Starting the XC term evaluation                    ... done (   0.1 sec)
  promolecular density results
     # of electrons  =     87.997177581
     EX              =    -86.506617269
     EC              =     -3.081222425
     EX+EC           =    -89.587839694
Transforming the Hamiltonian                       ... done (   0.0 sec)
Diagonalizing the Hamiltonian                      ... done (   0.0 sec)
Back transforming the eigenvectors                 ... done (   0.0 sec)
Now organizing SCF variables                       ... done
                      ------------------
                      INITIAL GUESS DONE (   0.2 sec)
                      ------------------
-------------------
DFT GRID GENERATION
-------------------

General Integration Accuracy     IntAcc      ... 4.388
Radial Grid Type                 RadialGrid  ... OptM3 with GC (2021)
Angular Grid (max. ang.)         AngularGrid ... 4 (Lebedev-302)
Angular grid pruning method      GridPruning ... 4 (adaptive)
Weight generation scheme         WeightScheme... Becke
Basis function cutoff            BFCut       ... 1.0000e-11
Integration weight cutoff        WCut        ... 1.0000e-14
Angular grids for H and He will be reduced by one unit
Partially contracted basis set               ... off
Rotationally invariant grid construction     ... off

Total number of grid points                  ...    96248
Total number of batches                      ...     1516
Average number of points per batch           ...       63
Average number of grid points per atom       ...     4812
Time for grid setup =    0.516 sec

--------------------
COSX GRID GENERATION
--------------------

GRIDX 1
-------
General Integration Accuracy     IntAcc      ... 3.816
Radial Grid Type                 RadialGrid  ... OptM3 with GC (2021)
Angular Grid (max. ang.)         AngularGrid ... 1 (Lebedev-50)
Angular grid pruning method      GridPruning ... 4 (adaptive)
Weight generation scheme         WeightScheme... Becke
Basis function cutoff            BFCut       ... 1.0000e-11
Integration weight cutoff        WCut        ... 1.0000e-14
Angular grids for H and He will be reduced by one unit
Partially contracted basis set               ... on
Rotationally invariant grid construction     ... off

Total number of grid points                  ...    11975
Total number of batches                      ...      199
Average number of points per batch           ...       60
Average number of grid points per atom       ...      599
UseSFitting                                  ... on

GRIDX 2
-------
General Integration Accuracy     IntAcc      ... 4.020
Radial Grid Type                 RadialGrid  ... OptM3 with GC (2021)
Angular Grid (max. ang.)         AngularGrid ... 2 (Lebedev-110)
Angular grid pruning method      GridPruning ... 4 (adaptive)
Weight generation scheme         WeightScheme... Becke
Basis function cutoff            BFCut       ... 1.0000e-11
Integration weight cutoff        WCut        ... 1.0000e-14
Angular grids for H and He will be reduced by one unit
Partially contracted basis set               ... on
Rotationally invariant grid construction     ... off

Total number of grid points                  ...    27457
Total number of batches                      ...      440
Average number of points per batch           ...       62
Average number of grid points per atom       ...     1373
UseSFitting                                  ... on

GRIDX 3
-------
General Integration Accuracy     IntAcc      ... 4.338
Radial Grid Type                 RadialGrid  ... OptM3 with GC (2021)
Angular Grid (max. ang.)         AngularGrid ... 3 (Lebedev-194)
Angular grid pruning method      GridPruning ... 4 (adaptive)
Weight generation scheme         WeightScheme... Becke
Basis function cutoff            BFCut       ... 1.0000e-11
Integration weight cutoff        WCut        ... 1.0000e-14
Angular grids for H and He will be reduced by one unit
Partially contracted basis set               ... on
Rotationally invariant grid construction     ... off

Total number of grid points                  ...    62130
Total number of batches                      ...      981
Average number of points per batch           ...       63
Average number of grid points per atom       ...     3106
UseSFitting                                  ... on

Time for X-Grid setup             =    0.438 sec


--------------------
CPCM SOLVATION MODEL
--------------------
CPCM parameters:
  Epsilon                                         ...      80.4000
  Refrac                                          ...       1.3300
  Rsolv                                           ...       1.3000
  Surface type                                    ... GAUSSIAN VDW
  Epsilon function type                           ...         CPCM
Radii:
 Radius for C  used is    3.8550 Bohr (=   2.0400 Ang.)
 Radius for H  used is    2.4944 Bohr (=   1.3200 Ang.)
 Radius for S  used is    4.0818 Bohr (=   2.1600 Ang.)
 Radius for N  used is    3.5149 Bohr (=   1.8600 Ang.)
 Radius for O  used is    3.4469 Bohr (=   1.8240 Ang.)
 Radius for F  used is    3.3335 Bohr (=   1.7640 Ang.)
Calculating surface                               ...        done! (  0.0s)
GEPOL surface points                              ...         1079
GEPOL Volume                                      ...    1198.1946
GEPOL Surface-area                                ...     665.2861
Calculating surface distance matrix               ...        done! (  0.0s)
Performing Cholesky decomposition & store         ...        done! (  0.1s)
Overall time for CPCM initialization              ...                 0.1s
--------------
SCF ITERATIONS
--------------
ITER       Energy         Delta-E        Max-DP      RMS-DP      [F,P]     Damp
               ***  Starting incremental Fock matrix formation  ***
  0   -898.6315171592   0.000000000000 0.18161222  0.00302777  0.2650468 0.7000
  1   -898.8271270630  -0.195609903747 0.10690715  0.00202587  0.1208698 0.7000
                               ***Turning on DIIS***
  2   -898.9142891311  -0.087162068133 0.26938366  0.00399943  0.0656000 0.0000
  3   -899.0563731668  -0.142084035646 0.09498925  0.00129348  0.0596170 0.0000
  4   -899.0801542334  -0.023781066664 0.01226888  0.00030151  0.0117769 0.0000
  5   -899.0809741098  -0.000819876377 0.00536128  0.00012710  0.0034048 0.0000
                      *** Initiating the SOSCF procedure ***
                           *** Shutting down DIIS ***
                      *** Re-Reading the Fockian *** 
                      *** Removing any level shift *** 
ITER      Energy       Delta-E        Grad      Rot      Max-DP    RMS-DP
  6   -899.08104850  -0.0000743918  0.000478  0.000478  0.003379  0.000080
               *** Restarting incremental Fock matrix formation ***
  7   -899.08116931  -0.0001208132  0.000140  0.000137  0.004224  0.000069
  8   -899.08117061  -0.0000012946  0.000176  0.000291  0.001859  0.000022
  9   -899.08117203  -0.0000014196  0.000050  0.000152  0.000755  0.000008
 10   -899.08117208  -0.0000000533  0.000012  0.000071  0.000233  0.000004
 11   -899.08117210  -0.0000000135  0.000006  0.000006  0.000096  0.000002
                  ***Gradient check signals convergence***
              ***Rediagonalizing the Fockian in SOSCF/NRSCF***

               *****************************************************
               *                     SUCCESS                       *
               *           SCF CONVERGED AFTER  12 CYCLES          *
               *****************************************************

Old exchange energy                            =    -26.683953670 Eh
New exchange energy                            =    -26.683893342 Eh
Exchange energy change after final integration =      0.000060328 Eh
Total energy after final integration           =   -899.081111772 Eh
Final COS-X integration done in                =     4.036 sec

----------------
TOTAL SCF ENERGY
----------------

Total Energy       :         -899.08111177 Eh          -24465.24084 eV

Components:
Nuclear Repulsion  :          728.62872172 Eh           19826.99550 eV
Electronic Energy  :        -1627.70983349 Eh          -44292.23634 eV
One Electron Energy:        -2678.78156116 Eh          -72893.35211 eV
Two Electron Energy:         1051.07172767 Eh           28601.11576 eV
Max COSX asymmetry :            0.00000684 Eh               0.00019 eV
CPCM Dielectric    :           -0.01974303 Eh              -0.53724 eV

Virial components:
Potential Energy   :        -1792.84834270 Eh          -48785.88363 eV
Kinetic Energy     :          893.76723093 Eh           24320.64279 eV
Virial Ratio       :            2.00594549


DFT components:
N(Alpha)           :       44.000163802380 electrons
N(Beta)            :       44.000163802380 electrons
N(Total)           :       88.000327604760 electrons
E(XC)              :      -64.511866852402 Eh       
DFET-embed. en.    :        0.000000000000 Eh       
CPCM Solvation Model Properties:
Surface-charge          :           -0.02408310
Charge-correction       :            0.00014233 Eh               0.00387 eV
Free-energy (cav+disp)  :  This term is not implemented in the current solvation scheme

---------------
SCF CONVERGENCE
---------------

  Last Energy change         ...   -4.5757e-09  Tolerance :   1.0000e-08
  Last MAX-Density change    ...    4.8850e-15  Tolerance :   1.0000e-07
  Last RMS-Density change    ...    4.8584e-17  Tolerance :   5.0000e-09
  Last Orbital Gradient      ...    1.8691e-06  Tolerance :   1.0000e-05
  Last Orbital Rotation      ...    2.3737e-06  Tolerance :   1.0000e-05

             **** THE GBW FILE WAS UPDATED (D5_wb97.gbw) ****
             **** DENSITY D5_wb97.scfp WAS UPDATED ****
             **** ENERGY FILE WAS UPDATED (D5_wb97.en.tmp) ****
             **** THE GBW FILE WAS UPDATED (D5_wb97.gbw) ****
             **** DENSITY D5_wb97.scfp WAS UPDATED ****
----------------
ORBITAL ENERGIES
----------------

  NO   OCC          E(Eh)            E(eV) 
   0   2.0000     -89.246196     -2428.5125 
   1   2.0000     -24.919116      -678.0836 
   2   2.0000     -19.277747      -524.5742 
   3   2.0000     -19.273735      -524.4650 
   4   2.0000     -14.429899      -392.6575 
   5   2.0000     -10.340408      -281.3768 
   6   2.0000     -10.317669      -280.7580 
   7   2.0000     -10.307217      -280.4736 
   8   2.0000     -10.295108      -280.1441 
   9   2.0000     -10.225267      -278.2437 
  10   2.0000      -8.320190      -226.4039 
  11   2.0000      -6.284052      -170.9977 
  12   2.0000      -6.277802      -170.8277 
  13   2.0000      -6.275725      -170.7712 
  14   2.0000      -1.481490       -40.3134 
  15   2.0000      -1.252088       -34.0711 
  16   2.0000      -1.155282       -31.4368 
  17   2.0000      -1.046368       -28.4731 
  18   2.0000      -0.939698       -25.5705 
  19   2.0000      -0.874813       -23.8049 
  20   2.0000      -0.851166       -23.1614 
  21   2.0000      -0.802773       -21.8446 
  22   2.0000      -0.757720       -20.6186 
  23   2.0000      -0.702804       -19.1243 
  24   2.0000      -0.692173       -18.8350 
  25   2.0000      -0.674453       -18.3528 
  26   2.0000      -0.655486       -17.8367 
  27   2.0000      -0.634924       -17.2772 
  28   2.0000      -0.599454       -16.3120 
  29   2.0000      -0.579534       -15.7699 
  30   2.0000      -0.578715       -15.7476 
  31   2.0000      -0.570201       -15.5160 
  32   2.0000      -0.543897       -14.8002 
  33   2.0000      -0.522963       -14.2305 
  34   2.0000      -0.498639       -13.5686 
  35   2.0000      -0.489205       -13.3120 
  36   2.0000      -0.482381       -13.1262 
  37   2.0000      -0.468570       -12.7504 
  38   2.0000      -0.450745       -12.2654 
  39   2.0000      -0.444243       -12.0885 
  40   2.0000      -0.433715       -11.8020 
  41   2.0000      -0.428486       -11.6597 
  42   2.0000      -0.421423       -11.4675 
  43   2.0000      -0.281723        -7.6661 
  44   0.0000       0.067846         1.8462 
  45   0.0000       0.092665         2.5215 
  46   0.0000       0.093958         2.5567 
  47   0.0000       0.100205         2.7267 
  48   0.0000       0.111056         3.0220 
  49   0.0000       0.120792         3.2869 
  50   0.0000       0.126852         3.4518 
  51   0.0000       0.134026         3.6470 
  52   0.0000       0.138749         3.7756 
  53   0.0000       0.150688         4.1004 
  54   0.0000       0.153555         4.1784 
  55   0.0000       0.161345         4.3904 
  56   0.0000       0.168693         4.5904 
  57   0.0000       0.176383         4.7996 
  58   0.0000       0.184170         5.0115 
  59   0.0000       0.192229         5.2308 
  60   0.0000       0.196261         5.3405 
  61   0.0000       0.207527         5.6471 
  62   0.0000       0.217757         5.9255 
  63   0.0000       0.220397         5.9973 
  64   0.0000       0.233885         6.3643 
  65   0.0000       0.239145         6.5075 
  66   0.0000       0.240131         6.5343 
  67   0.0000       0.251147         6.8341 
  68   0.0000       0.253484         6.8977 
  69   0.0000       0.265958         7.2371 
  70   0.0000       0.271000         7.3743 
  71   0.0000       0.276160         7.5147 
  72   0.0000       0.285075         7.7573 
  73   0.0000       0.290714         7.9107 
  74   0.0000       0.298965         8.1352 
  75   0.0000       0.305770         8.3204 
  76   0.0000       0.309794         8.4299 
  77   0.0000       0.315335         8.5807 
  78   0.0000       0.317884         8.6501 
  79   0.0000       0.323558         8.8044 
  80   0.0000       0.332041         9.0353 
  81   0.0000       0.336274         9.1505 
  82   0.0000       0.349237         9.5032 
  83   0.0000       0.352424         9.5899 
  84   0.0000       0.356562         9.7025 
  85   0.0000       0.365011         9.9325 
  86   0.0000       0.371922        10.1205 
  87   0.0000       0.382305        10.4031 
  88   0.0000       0.388098        10.5607 
  89   0.0000       0.393594        10.7102 
  90   0.0000       0.405741        11.0408 
  91   0.0000       0.408944        11.1279 
  92   0.0000       0.415167        11.2973 
  93   0.0000       0.424084        11.5399 
  94   0.0000       0.428568        11.6619 
  95   0.0000       0.431451        11.7404 
  96   0.0000       0.437199        11.8968 
  97   0.0000       0.446199        12.1417 
  98   0.0000       0.448681        12.2092 
  99   0.0000       0.455306        12.3895 
 100   0.0000       0.462179        12.5765 
 101   0.0000       0.465491        12.6667 
 102   0.0000       0.472563        12.8591 
 103   0.0000       0.476631        12.9698 
 104   0.0000       0.480478        13.0745 
 105   0.0000       0.489978        13.3330 
 106   0.0000       0.496623        13.5138 
 107   0.0000       0.509088        13.8530 
 108   0.0000       0.512612        13.9489 
 109   0.0000       0.519445        14.1348 
 110   0.0000       0.525944        14.3117 
 111   0.0000       0.528300        14.3758 
 112   0.0000       0.537984        14.6393 
 113   0.0000       0.539630        14.6841 
 114   0.0000       0.547694        14.9035 
 115   0.0000       0.555195        15.1076 
 116   0.0000       0.557315        15.1653 
 117   0.0000       0.563867        15.3436 
 118   0.0000       0.568491        15.4694 
 119   0.0000       0.576983        15.7005 
 120   0.0000       0.585726        15.9384 
 121   0.0000       0.589908        16.0522 
 122   0.0000       0.596737        16.2380 
 123   0.0000       0.605647        16.4805 
 124   0.0000       0.607776        16.5384 
 125   0.0000       0.616234        16.7686 
 126   0.0000       0.622166        16.9300 
 127   0.0000       0.629702        17.1351 
 128   0.0000       0.635609        17.2958 
 129   0.0000       0.646799        17.6003 
 130   0.0000       0.650696        17.7063 
 131   0.0000       0.651929        17.7399 
 132   0.0000       0.661271        17.9941 
 133   0.0000       0.675232        18.3740 
 134   0.0000       0.676336        18.4040 
 135   0.0000       0.681640        18.5484 
 136   0.0000       0.692356        18.8400 
 137   0.0000       0.694648        18.9023 
 138   0.0000       0.700539        19.0626 
 139   0.0000       0.715478        19.4691 
 140   0.0000       0.724433        19.7128 
 141   0.0000       0.728692        19.8287 
 142   0.0000       0.735543        20.0151 
 143   0.0000       0.747649        20.3446 
 144   0.0000       0.753937        20.5157 
 145   0.0000       0.759473        20.6663 
 146   0.0000       0.781212        21.2579 
 147   0.0000       0.788647        21.4602 
 148   0.0000       0.791060        21.5258 
 149   0.0000       0.798494        21.7281 
 150   0.0000       0.808846        22.0098 
 151   0.0000       0.814105        22.1529 
 152   0.0000       0.824783        22.4435 
 153   0.0000       0.838812        22.8252 
 154   0.0000       0.847753        23.0685 
 155   0.0000       0.853171        23.2160 
 156   0.0000       0.874005        23.7829 
 157   0.0000       0.883914        24.0525 
 158   0.0000       0.900190        24.4954 
 159   0.0000       0.915715        24.9179 
 160   0.0000       0.923806        25.1380 
 161   0.0000       0.929419        25.2908 
 162   0.0000       0.959174        26.1005 
 163   0.0000       0.960283        26.1306 
 164   0.0000       0.973233        26.4830 
 165   0.0000       0.989653        26.9298 
 166   0.0000       1.032155        28.0864 
 167   0.0000       1.041216        28.3329 
 168   0.0000       1.044428        28.4203 
 169   0.0000       1.068164        29.0662 
 170   0.0000       1.075482        29.2654 
 171   0.0000       1.095914        29.8213 
 172   0.0000       1.103719        30.0337 
 173   0.0000       1.107772        30.1440 
 174   0.0000       1.111751        30.2523 
 175   0.0000       1.128487        30.7077 
 176   0.0000       1.137487        30.9526 
 177   0.0000       1.142142        31.0793 
 178   0.0000       1.149909        31.2906 
 179   0.0000       1.166815        31.7507 
 180   0.0000       1.176943        32.0262 
 181   0.0000       1.182327        32.1727 
 182   0.0000       1.188850        32.3503 
 183   0.0000       1.208843        32.8943 
 184   0.0000       1.227035        33.3893 
 185   0.0000       1.246012        33.9057 
 186   0.0000       1.253690        34.1146 
 187   0.0000       1.266526        34.4639 
 188   0.0000       1.293617        35.2011 
 189   0.0000       1.297362        35.3030 
 190   0.0000       1.310706        35.6661 
 191   0.0000       1.317277        35.8449 
 192   0.0000       1.320250        35.9258 
 193   0.0000       1.349541        36.7229 
 194   0.0000       1.383168        37.6379 
 195   0.0000       1.391534        37.8656 
 196   0.0000       1.408781        38.3349 
 197   0.0000       1.429323        38.8939 
 198   0.0000       1.441800        39.2334 
 199   0.0000       1.473352        40.0919 
 200   0.0000       1.490849        40.5681 
 201   0.0000       1.515190        41.2304 
 202   0.0000       1.524195        41.4755 
 203   0.0000       1.555888        42.3379 
 204   0.0000       1.597321        43.4653 
 205   0.0000       1.609151        43.7872 
 206   0.0000       1.635344        44.5000 
 207   0.0000       1.656927        45.0873 
 208   0.0000       1.669049        45.4171 
 209   0.0000       1.680949        45.7409 
 210   0.0000       1.703803        46.3628 
 211   0.0000       1.723112        46.8883 
 212   0.0000       1.741219        47.3810 
 213   0.0000       1.762778        47.9676 
 214   0.0000       1.785675        48.5907 
 215   0.0000       1.798835        48.9488 
 216   0.0000       1.819234        49.5039 
 217   0.0000       1.826534        49.7025 
 218   0.0000       1.840948        50.0947 
 219   0.0000       1.851252        50.3751 
 220   0.0000       1.880786        51.1788 
 221   0.0000       1.897604        51.6364 
 222   0.0000       1.912250        52.0350 
 223   0.0000       1.923072        52.3294 
 224   0.0000       1.942682        52.8631 
 225   0.0000       1.982541        53.9477 
 226   0.0000       1.991209        54.1835 
 227   0.0000       2.008829        54.6630 
 228   0.0000       2.016225        54.8643 
 229   0.0000       2.034629        55.3651 
 230   0.0000       2.063061        56.1388 
 231   0.0000       2.078891        56.5695 
 232   0.0000       2.088521        56.8315 
 233   0.0000       2.099177        57.1215 
 234   0.0000       2.109747        57.4091 
 235   0.0000       2.118699        57.6527 
 236   0.0000       2.135634        58.1136 
 237   0.0000       2.150951        58.5304 
 238   0.0000       2.175482        59.1979 
 239   0.0000       2.199550        59.8528 
 240   0.0000       2.205682        60.0196 
 241   0.0000       2.221639        60.4539 
 242   0.0000       2.239136        60.9300 
 243   0.0000       2.266522        61.6752 
 244   0.0000       2.307383        62.7871 
 245   0.0000       2.313556        62.9550 
 246   0.0000       2.335419        63.5500 
 247   0.0000       2.362538        64.2879 
 248   0.0000       2.408060        65.5266 
 249   0.0000       2.436514        66.3009 
 250   0.0000       2.438403        66.3523 
 251   0.0000       2.501780        68.0769 
 252   0.0000       2.524138        68.6853 
 253   0.0000       2.540034        69.1178 
 254   0.0000       2.567429        69.8633 
 255   0.0000       2.585520        70.3556 
 256   0.0000       2.590264        70.4847 
 257   0.0000       2.612096        71.0788 
 258   0.0000       2.637356        71.7661 
 259   0.0000       2.682827        73.0034 
 260   0.0000       2.698553        73.4314 
 261   0.0000       2.711283        73.7778 
 262   0.0000       2.772072        75.4319 
 263   0.0000       2.802271        76.2537 
 264   0.0000       2.820162        76.7405 
 265   0.0000       2.854196        77.6666 
 266   0.0000       2.887303        78.5675 
 267   0.0000       2.931763        79.7773 
 268   0.0000       2.941819        80.0510 
 269   0.0000       2.949701        80.2654 
 270   0.0000       2.959647        80.5361 
 271   0.0000       2.965979        80.7084 
 272   0.0000       2.999102        81.6097 
 273   0.0000       3.017288        82.1046 
 274   0.0000       3.024419        82.2986 
 275   0.0000       3.044197        82.8368 
 276   0.0000       3.096326        84.2553 
 277   0.0000       3.112504        84.6955 
 278   0.0000       3.132517        85.2401 
 279   0.0000       3.192720        86.8783 
 280   0.0000       3.213741        87.4503 
 281   0.0000       3.232827        87.9697 
 282   0.0000       3.297587        89.7319 
 283   0.0000       3.314450        90.1908 
 284   0.0000       3.347128        91.0800 
 285   0.0000       3.393131        92.3318 
 286   0.0000       3.423491        93.1579 
 287   0.0000       3.428194        93.2859 
 288   0.0000       3.446393        93.7811 
 289   0.0000       3.493716        95.0689 
 290   0.0000       3.504708        95.3679 
 291   0.0000       3.628511        98.7368 
 292   0.0000       3.672155        99.9244 
 293   0.0000       3.696756       100.5938 
 294   0.0000       3.819090       103.9227 
 295   0.0000       3.937414       107.1425 

                    ********************************
                    * MULLIKEN POPULATION ANALYSIS *
                    ********************************

-----------------------
MULLIKEN ATOMIC CHARGES
-----------------------
   0 C :    0.338427
   1 C :    0.092726
   2 C :   -0.004190
   3 H :    0.222754
   4 H :   -0.019079
   5 S :    1.525570
   6 C :   -0.143411
   7 C :    0.301489
   8 N :    0.567620
   9 H :   -0.342485
  10 H :   -0.136190
  11 H :   -0.072704
  12 H :   -0.375709
  13 O :   -0.715121
  14 O :   -0.734545
  15 F :   -0.543391
  16 H :    0.188387
  17 H :   -0.136920
  18 H :    0.051229
  19 H :   -0.064457
Sum of atomic charges:    0.0000000

--------------------------------
MULLIKEN REDUCED ORBITAL CHARGES
--------------------------------
  0 C s       :     2.537204  s :     2.537204
      pz      :     0.986429  p :     2.819139
      px      :     0.963570
      py      :     0.869140
      dz2     :     0.053494  d :     0.305230
      dxz     :     0.108884
      dyz     :     0.039042
      dx2y2   :     0.012635
      dxy     :     0.091175
  1 C s       :     2.757879  s :     2.757879
      pz      :     0.930094  p :     2.782469
      px      :     0.954782
      py      :     0.897593
      dz2     :     0.075666  d :     0.366927
      dxz     :     0.095983
      dyz     :    -0.010639
      dx2y2   :     0.139023
      dxy     :     0.066893
  2 C s       :     2.819590  s :     2.819590
      pz      :     1.033353  p :     2.956702
      px      :     1.073471
      py      :     0.849877
      dz2     :     0.038276  d :     0.227898
      dxz     :     0.100936
      dyz     :     0.000446
      dx2y2   :     0.068209
      dxy     :     0.020031
  3 H s       :     0.735372  s :     0.735372
      pz      :     0.028708  p :     0.041874
      px      :     0.014706
      py      :    -0.001540
  4 H s       :     0.973773  s :     0.973773
      pz      :     0.011817  p :     0.045306
      px      :     0.027060
      py      :     0.006429
  5 S s       :     4.970375  s :     4.970375
      pz      :     2.756844  p :     8.687029
      px      :     2.837270
      py      :     3.092914
      dz2     :     0.166568  d :     0.817027
      dxz     :     0.203959
      dyz     :     0.102202
      dx2y2   :     0.191029
      dxy     :     0.153270
  6 C s       :     2.834734  s :     2.834734
      pz      :     0.798479  p :     2.480376
      px      :     0.861542
      py      :     0.820356
      dz2     :     0.181960  d :     0.828300
      dxz     :     0.134719
      dyz     :     0.285970
      dx2y2   :     0.056347
      dxy     :     0.169304
  7 C s       :     3.112076  s :     3.112076
      pz      :     0.573141  p :     2.527613
      px      :     1.032010
      py      :     0.922462
      dz2     :     0.003945  d :     0.058822
      dxz     :    -0.003529
      dyz     :     0.028822
      dx2y2   :     0.019292
      dxy     :     0.010292
  8 N s       :     2.752587  s :     2.752587
      pz      :     0.989246  p :     3.671349
      px      :     1.497535
      py      :     1.184567
      dz2     :    -0.021182  d :     0.008444
      dxz     :     0.009574
      dyz     :     0.003891
      dx2y2   :     0.010331
      dxy     :     0.005830
  9 H s       :     1.258715  s :     1.258715
      pz      :    -0.091383  p :     0.083770
      px      :     0.058501
      py      :     0.116651
 10 H s       :     1.122605  s :     1.122605
      pz      :    -0.017078  p :     0.013585
      px      :     0.042739
      py      :    -0.012076
 11 H s       :     1.049979  s :     1.049979
      pz      :    -0.041825  p :     0.022725
      px      :     0.047995
      py      :     0.016554
 12 H s       :     1.345461  s :     1.345461
      pz      :     0.004279  p :     0.030249
      px      :     0.033580
      py      :    -0.007610
 13 O s       :     3.937151  s :     3.937151
      pz      :     1.765506  p :     4.754456
      px      :     1.275462
      py      :     1.713488
      dz2     :     0.000198  d :     0.023515
      dxz     :     0.007092
      dyz     :     0.003386
      dx2y2   :     0.009423
      dxy     :     0.003416
 14 O s       :     3.953183  s :     3.953183
      pz      :     1.355687  p :     4.763331
      px      :     1.633948
      py      :     1.773696
      dz2     :     0.009594  d :     0.018030
      dxz     :     0.003252
      dyz     :     0.003811
      dx2y2   :     0.003558
      dxy     :    -0.002186
 15 F s       :     4.037742  s :     4.037742
      pz      :     1.689598  p :     5.498177
      px      :     1.849941
      py      :     1.958638
      dz2     :     0.001714  d :     0.007472
      dxz     :     0.004382
      dyz     :    -0.001560
      dx2y2   :     0.000924
      dxy     :     0.002012
 16 H s       :     0.820403  s :     0.820403
      pz      :     0.051942  p :    -0.008790
      px      :    -0.026434
      py      :    -0.034299
 17 H s       :     1.088251  s :     1.088251
      pz      :    -0.012980  p :     0.048669
      px      :    -0.006594
      py      :     0.068243
 18 H s       :     0.930733  s :     0.930733
      pz      :     0.009720  p :     0.018038
      px      :     0.020292
      py      :    -0.011975
 19 H s       :     0.995208  s :     0.995208
      pz      :     0.003528  p :     0.069248
      px      :     0.009249
      py      :     0.056471


                     *******************************
                     * LOEWDIN POPULATION ANALYSIS *
                     *******************************

----------------------
LOEWDIN ATOMIC CHARGES
----------------------
   0 C :    0.023664
   1 C :   -0.008562
   2 C :   -0.020309
   3 H :    0.033464
   4 H :    0.041267
   5 S :    1.145385
   6 C :   -0.255126
   7 C :    0.152914
   8 N :    0.204391
   9 H :   -0.084395
  10 H :    0.037440
  11 H :   -0.086768
  12 H :   -0.091260
  13 O :   -0.474434
  14 O :   -0.477349
  15 F :   -0.259685
  16 H :    0.029425
  17 H :    0.042607
  18 H :    0.036457
  19 H :    0.010873

-------------------------------
LOEWDIN REDUCED ORBITAL CHARGES
-------------------------------
  0 C s       :     2.666949  s :     2.666949
      pz      :     0.878288  p :     2.678011
      px      :     0.894579
      py      :     0.905145
      dz2     :     0.158187  d :     0.631376
      dxz     :     0.155740
      dyz     :     0.107155
      dx2y2   :     0.100819
      dxy     :     0.109476
  1 C s       :     2.674525  s :     2.674525
      pz      :     0.912489  p :     2.690258
      px      :     0.873564
      py      :     0.904206
      dz2     :     0.147582  d :     0.643779
      dxz     :     0.125736
      dyz     :     0.048853
      dx2y2   :     0.183926
      dxy     :     0.137681
  2 C s       :     2.710523  s :     2.710523
      pz      :     0.967687  p :     2.717624
      px      :     0.948804
      py      :     0.801132
      dz2     :     0.102033  d :     0.592163
      dxz     :     0.123871
      dyz     :     0.076331
      dx2y2   :     0.159735
      dxy     :     0.130192
  3 H s       :     0.707214  s :     0.707214
      pz      :     0.127435  p :     0.259322
      px      :     0.072129
      py      :     0.059758
  4 H s       :     0.702852  s :     0.702852
      pz      :     0.094133  p :     0.255881
      px      :     0.096804
      py      :     0.064944
  5 S s       :     4.658646  s :     4.658646
      pz      :     2.741159  p :     8.367863
      px      :     2.794334
      py      :     2.832370
      dz2     :     0.385448  d :     1.828106
      dxz     :     0.448378
      dyz     :     0.268112
      dx2y2   :     0.403571
      dxy     :     0.322598
  6 C s       :     2.655136  s :     2.655136
      pz      :     0.903992  p :     2.557631
      px      :     0.758957
      py      :     0.894681
      dz2     :     0.218409  d :     1.042360
      dxz     :     0.166637
      dyz     :     0.253074
      dx2y2   :     0.230063
      dxy     :     0.174177
  7 C s       :     2.732473  s :     2.732473
      pz      :     0.932606  p :     2.789348
      px      :     0.922377
      py      :     0.934364
      dz2     :     0.085092  d :     0.325265
      dxz     :     0.030648
      dyz     :     0.096515
      dx2y2   :     0.051680
      dxy     :     0.061329
  8 N s       :     2.899847  s :     2.899847
      pz      :     1.065422  p :     3.519320
      px      :     1.302873
      py      :     1.151025
      dz2     :     0.110551  d :     0.376441
      dxz     :     0.043835
      dyz     :     0.078880
      dx2y2   :     0.070825
      dxy     :     0.072350
  9 H s       :     0.602665  s :     0.602665
      pz      :     0.147627  p :     0.481729
      px      :     0.144419
      py      :     0.189683
 10 H s       :     0.645428  s :     0.645428
      pz      :     0.140566  p :     0.317131
      px      :     0.098018
      py      :     0.078547
 11 H s       :     0.762968  s :     0.762968
      pz      :     0.107612  p :     0.323800
      px      :     0.113553
      py      :     0.102635
 12 H s       :     0.775799  s :     0.775799
      pz      :     0.131823  p :     0.315461
      px      :     0.103005
      py      :     0.080633
 13 O s       :     3.555589  s :     3.555589
      pz      :     1.633254  p :     4.682907
      px      :     1.422316
      py      :     1.627336
      dz2     :     0.027559  d :     0.235939
      dxz     :     0.058694
      dyz     :     0.010025
      dx2y2   :     0.071674
      dxy     :     0.067987
 14 O s       :     3.553881  s :     3.553881
      pz      :     1.446231  p :     4.680634
      px      :     1.591279
      py      :     1.643125
      dz2     :     0.064330  d :     0.242834
      dxz     :     0.070466
      dyz     :     0.048041
      dx2y2   :     0.032894
      dxy     :     0.027103
 15 F s       :     3.665287  s :     3.665287
      pz      :     1.681469  p :     5.313929
      px      :     1.793622
      py      :     1.838837
      dz2     :     0.071138  d :     0.280469
      dxz     :     0.070539
      dyz     :     0.072117
      dx2y2   :     0.031946
      dxy     :     0.034729
 16 H s       :     0.709031  s :     0.709031
      pz      :     0.122017  p :     0.261544
      px      :     0.061500
      py      :     0.078026
 17 H s       :     0.715951  s :     0.715951
      pz      :     0.069588  p :     0.241441
      px      :     0.056979
      py      :     0.114874
 18 H s       :     0.711803  s :     0.711803
      pz      :     0.071851  p :     0.251740
      px      :     0.092073
      py      :     0.087815
 19 H s       :     0.706285  s :     0.706285
      pz      :     0.071379  p :     0.282842
      px      :     0.079016
      py      :     0.132446


                      *****************************
                      * MAYER POPULATION ANALYSIS *
                      *****************************

  NA   - Mulliken gross atomic population
  ZA   - Total nuclear charge
  QA   - Mulliken gross atomic charge
  VA   - Mayer's total valence
  BVA  - Mayer's bonded valence
  FA   - Mayer's free valence

  ATOM       NA         ZA         QA         VA         BVA        FA
  0 C      5.6616     6.0000     0.3384     4.3362     4.3362    -0.0000
  1 C      5.9073     6.0000     0.0927     4.7865     4.7865     0.0000
  2 C      6.0042     6.0000    -0.0042     4.4932     4.4932     0.0000
  3 H      0.7772     1.0000     0.2228     0.9997     0.9997     0.0000
  4 H      1.0191     1.0000    -0.0191     1.1764     1.1764     0.0000
  5 S     14.4744    16.0000     1.5256     4.8099     4.8099     0.0000
  6 C      6.1434     6.0000    -0.1434     4.6399     4.6399     0.0000
  7 C      5.6985     6.0000     0.3015     3.6524     3.6524     0.0000
  8 N      6.4324     7.0000     0.5676     3.6310     3.6310     0.0000
  9 H      1.3425     1.0000    -0.3425     0.9659     0.9659     0.0000
 10 H      1.1362     1.0000    -0.1362     0.8667     0.8667     0.0000
 11 H      1.0727     1.0000    -0.0727     1.0713     1.0713    -0.0000
 12 H      1.3757     1.0000    -0.3757     1.0166     1.0166     0.0000
 13 O      8.7151     8.0000    -0.7151     1.6555     1.6555     0.0000
 14 O      8.7345     8.0000    -0.7345     1.6790     1.6790     0.0000
 15 F      9.5434     9.0000    -0.5434     0.9113     0.9113     0.0000
 16 H      0.8116     1.0000     0.1884     0.9524     0.9524    -0.0000
 17 H      1.1369     1.0000    -0.1369     1.1319     1.1319     0.0000
 18 H      0.9488     1.0000     0.0512     0.9669     0.9669    -0.0000
 19 H      1.0645     1.0000    -0.0645     1.2067     1.2067     0.0000

  Mayer bond orders larger than 0.100000
B(  0-C ,  1-C ) :   1.1799 B(  0-C ,  6-C ) :   1.1565 B(  0-C ,  8-N ) :   0.1060 
B(  0-C , 16-H ) :   0.1339 B(  0-C , 17-H ) :   0.1117 B(  0-C , 18-H ) :   0.7617 
B(  0-C , 19-H ) :   0.7639 B(  1-C ,  2-C ) :   1.3685 B(  1-C ,  3-H ) :   0.1119 
B(  1-C ,  4-H ) :   0.1699 B(  1-C , 16-H ) :   0.7832 B(  1-C , 17-H ) :   0.9220 
B(  1-C , 18-H ) :   0.1424 B(  1-C , 19-H ) :   0.1412 B(  2-C ,  3-H ) :   0.8665 
B(  2-C ,  4-H ) :   0.8742 B(  2-C ,  5-S ) :   0.9970 B(  2-C , 16-H ) :   0.1281 
B(  2-C , 17-H ) :   0.1000 B(  5-S , 13-O ) :   1.5453 B(  5-S , 14-O ) :   1.5153 
B(  5-S , 15-F ) :   0.6609 B(  6-C ,  7-C ) :   1.7609 B(  6-C ,  8-N ) :   1.1525 
B(  6-C , 10-H ) :  -0.1256 B(  6-C , 12-H ) :   0.1518 B(  6-C , 18-H ) :   0.1495 
B(  6-C , 19-H ) :   0.1645 B(  7-C ,  8-N ) :   0.1729 B(  7-C , 11-H ) :   0.9136 
B(  7-C , 12-H ) :   0.7120 B(  8-N ,  9-H ) :   0.9523 B(  8-N , 10-H ) :   1.2506 
B(  9-H , 10-H ) :  -0.2009 B(  9-H , 15-F ) :   0.1263 

-------
TIMINGS
-------

Total SCF time: 0 days 0 hours 0 min 29 sec 

Total time                  ....      29.921 sec
Sum of individual times     ....      29.422 sec  ( 98.3%)

Fock matrix formation       ....      27.810 sec  ( 92.9%)
  Split-RI-J                ....       2.648 sec  (  9.5% of F)
  Chain of spheres X        ....      20.538 sec  ( 73.9% of F)
  XC integration            ....       2.294 sec  (  8.2% of F)
    Basis function eval.    ....       0.596 sec  ( 26.0% of XC)
    Density eval.           ....       0.573 sec  ( 25.0% of XC)
    XC-Functional eval.     ....       0.112 sec  (  4.9% of XC)
    XC-Potential eval.      ....       0.718 sec  ( 31.3% of XC)
Diagonalization             ....       0.171 sec  (  0.6%)
Density matrix formation    ....       0.018 sec  (  0.1%)
Population analysis         ....       0.020 sec  (  0.1%)
Initial guess               ....       0.137 sec  (  0.5%)
Orbital Transformation      ....       0.000 sec  (  0.0%)
Orbital Orthonormalization  ....       0.000 sec  (  0.0%)
DIIS solution               ....       0.099 sec  (  0.3%)
SOSCF solution              ....       0.107 sec  (  0.4%)
Grid generation             ....       1.059 sec  (  3.5%)

Maximum memory used throughout the entire SCF-calculation: 65.1 MB


-------------------------------------------------------------------------------
                          DFT DISPERSION CORRECTION                            
                                                                               
                              DFTD3 V3.1  Rev 1                                
                              USING zero damping                               
-------------------------------------------------------------------------------
The omegaB97X-D3 functional is recognized. Fit by Chai et al.
Active option DFTDOPT                   ...         3   

molecular C6(AA) [au] = 4229.235254 


            DFT-D V3
 parameters
 s6 scaling factor         :     1.0000 
 rs6 scaling factor        :     1.2810 
 s8 scaling factor         :     1.0000 
 rs8 scaling factor        :     1.0940 
 Damping factor alpha6     :    14.0000 
 Damping factor alpha8     :    16.0000 
 ad hoc parameters k1-k3   :    16.0000     1.3333    -4.0000 

 Edisp/kcal,au: -5.428965691417  -0.008651606608 
 E6   /kcal   :  -2.101729419 
 E8   /kcal   :  -3.327236272 
 % E8         :  61.286743389 

-------------------------   ----------------
Dispersion correction           -0.008651607
-------------------------   ----------------


-------------------------   --------------------
FINAL SINGLE POINT ENERGY      -899.089763379096
-------------------------   --------------------


                            ***************************************
                            *     ORCA property calculations      *
                            ***************************************

                                    ---------------------
                                    Active property flags
                                    ---------------------
   (+) Dipole Moment


------------------------------------------------------------------------------
                       ORCA ELECTRIC PROPERTIES CALCULATION
------------------------------------------------------------------------------

Dipole Moment Calculation                       ... on
Quadrupole Moment Calculation                   ... off
Polarizability Calculation                      ... off
GBWName                                         ... D5_wb97.gbw
Electron density file                           ... D5_wb97.scfp
The origin for moment calculation is the CENTER OF MASS  = ( 1.911054,  2.099212 -9.729983)

-------------
DIPOLE MOMENT
-------------
                                X             Y             Z
Electronic contribution:      6.59850     -13.30601       2.95379
Nuclear contribution   :     -6.26130      13.99605      -3.80018
                        -----------------------------------------
Total Dipole Moment    :      0.33719       0.69005      -0.84639
                        -----------------------------------------
Magnitude (a.u.)       :      1.14291
Magnitude (Debye)      :      2.90504



--------------------
Rotational spectrum 
--------------------
 
Rotational constants in cm-1:     0.079895     0.025630     0.022948 
Rotational constants in MHz :  2395.188639   768.373696   687.955250 

 Dipole components along the rotational axes: 
x,y,z [a.u.] :    -0.662545    -0.302428     0.880802 
x,y,z [Debye]:    -1.684055    -0.768711     2.238820 

 

Timings for individual modules:

Sum of individual times         ...       31.038 sec (=   0.517 min)
GTO integral calculation        ...        0.708 sec (=   0.012 min)   2.3 %
SCF iterations                  ...       30.331 sec (=   0.506 min)  97.7 %
                             ****ORCA TERMINATED NORMALLY****
TOTAL RUN TIME: 0 days 0 hours 0 minutes 31 seconds 658 msec
