
                                        *****************
                                        * O   R   C   A *
                                        *****************

                                            #,                                       
                                            ###                                      
                                            ####                                     
                                            #####                                    
                                            ######                                   
                                           ########,                                 
                                     ,,################,,,,,                         
                               ,,#################################,,                 
                          ,,##########################################,,             
                       ,#########################################, ''#####,          
                    ,#############################################,,   '####,        
                  ,##################################################,,,,####,       
                ,###########''''           ''''###############################       
              ,#####''   ,,,,##########,,,,          '''####'''          '####       
            ,##' ,,,,###########################,,,                        '##       
           ' ,,###''''                  '''############,,,                           
         ,,##''                                '''############,,,,        ,,,,,,###''
      ,#''                                            '''#######################'''  
     '                                                          ''''####''''         
             ,#######,   #######,   ,#######,      ##                                
            ,#'     '#,  ##    ##  ,#'     '#,    #''#        ######   ,####,        
            ##       ##  ##   ,#'  ##            #'  '#       #        #'  '#        
            ##       ##  #######   ##           ,######,      #####,   #    #        
            '#,     ,#'  ##    ##  '#,     ,#' ,#      #,         ##   #,  ,#        
             '#######'   ##     ##  '#######'  #'      '#     #####' # '####'        



                  #######################################################
                  #                        -***-                        #
                  #          Department of theory and spectroscopy      #
                  #    Directorship and core code : Frank Neese         #
                  #        Max Planck Institute fuer Kohlenforschung    #
                  #                Kaiser Wilhelm Platz 1               #
                  #                 D-45470 Muelheim/Ruhr               #
                  #                      Germany                        #
                  #                                                     #
                  #                  All rights reserved                #
                  #                        -***-                        #
                  #######################################################


                         Program Version 5.0.0 -  RELEASE  -
                                (SVN: $Rev: 19529$)
                ($Date: 2021-06-28 11:36:33 +0200 (Mo, 28 Jun 2021) $)


 With contributions from (in alphabetic order):
   Daniel Aravena         : Magnetic Suceptibility
   Michael Atanasov       : Ab Initio Ligand Field Theory (pilot matlab implementation)
   Alexander A. Auer      : GIAO ZORA, VPT2 properties, NMR spectrum
   Ute Becker             : Parallelization
   Giovanni Bistoni       : ED, misc. LED, open-shell LED, HFLD
   Martin Brehm           : Molecular dynamics
   Dmytro Bykov           : SCF Hessian
   Vijay G. Chilkuri      : MRCI spin determinant printing, contributions to CSF-ICE
   Dipayan Datta          : RHF DLPNO-CCSD density
   Achintya Kumar Dutta   : EOM-CC, STEOM-CC
   Dmitry Ganyushin       : Spin-Orbit,Spin-Spin,Magnetic field MRCI
   Miquel Garcia          : C-PCM Hessian, Gaussian charge scheme
   Yang Guo               : DLPNO-NEVPT2, F12-NEVPT2, CIM, IAO-localization
   Andreas Hansen         : Spin unrestricted coupled pair/coupled cluster methods
   Benjamin Helmich-Paris : MC-RPA, TRAH-SCF, COSX integrals
   Lee Huntington         : MR-EOM, pCC
   Robert Izsak           : Overlap fitted RIJCOSX, COSX-SCS-MP3, EOM
   Marcus Kettner         : VPT2
   Christian Kollmar      : KDIIS, OOCD, Brueckner-CCSD(T), CCSD density, CASPT2, CASPT2-K
   Simone Kossmann        : Meta GGA functionals, TD-DFT gradient, OOMP2, MP2 Hessian
   Martin Krupicka        : Initial AUTO-CI
   Lucas Lang             : DCDCAS
   Marvin Lechner         : AUTO-CI (C++ implementation), FIC-MRCC
   Dagmar Lenk            : GEPOL surface, SMD
   Dimitrios Liakos       : Extrapolation schemes; Compound Job, initial MDCI parallelization
   Dimitrios Manganas     : Further ROCIS development; embedding schemes
   Dimitrios Pantazis     : SARC Basis sets
   Anastasios Papadopoulos: AUTO-CI, single reference methods and gradients
   Taras Petrenko         : DFT Hessian,TD-DFT gradient, ASA, ECA, R-Raman, ABS, FL, XAS/XES, NRVS
   Peter Pinski           : DLPNO-MP2, DLPNO-MP2 Gradient
   Christoph Reimann      : Effective Core Potentials
   Marius Retegan         : Local ZFS, SOC
   Christoph Riplinger    : Optimizer, TS searches, QM/MM, DLPNO-CCSD(T), (RO)-DLPNO pert. Triples
   Tobias Risthaus        : Range-separated hybrids, TD-DFT gradient, RPA, STAB
   Michael Roemelt        : Original ROCIS implementation
   Masaaki Saitow         : Open-shell DLPNO-CCSD energy and density
   Barbara Sandhoefer     : DKH picture change effects
   Avijit Sen             : IP-ROCIS
   Kantharuban Sivalingam : CASSCF convergence, NEVPT2, FIC-MRCI
   Bernardo de Souza      : ESD, SOC TD-DFT
   Georgi Stoychev        : AutoAux, RI-MP2 NMR
   Willem Van den Heuvel  : Paramagnetic NMR
   Boris Wezisla          : Elementary symmetry handling
   Frank Wennmohs         : Technical directorship


 We gratefully acknowledge several colleagues who have allowed us to
 interface, adapt or use parts of their codes:
   Stefan Grimme, W. Hujo, H. Kruse, P. Pracht,  : VdW corrections, initial TS optimization,
                  C. Bannwarth, S. Ehlert          DFT functionals, gCP, sTDA/sTD-DF
   Ed Valeev, F. Pavosevic, A. Kumar             : LibInt (2-el integral package), F12 methods
   Garnet Chan, S. Sharma, J. Yang, R. Olivares  : DMRG
   Ulf Ekstrom                                   : XCFun DFT Library
   Mihaly Kallay                                 : mrcc  (arbitrary order and MRCC methods)
   Jiri Pittner, Ondrej Demel                    : Mk-CCSD
   Frank Weinhold                                : gennbo (NPA and NBO analysis)
   Christopher J. Cramer and Donald G. Truhlar   : smd solvation model
   Lars Goerigk                                  : TD-DFT with DH, B97 family of functionals
   V. Asgeirsson, H. Jonsson                     : NEB implementation
   FAccTs GmbH                                   : IRC, NEB, NEB-TS, DLPNO-Multilevel, CI-OPT
                                                   MM, QMMM, 2- and 3-layer-ONIOM, Crystal-QMMM,
                                                   LR-CPCM, SF, NACMEs, symmetry and pop. for TD-DFT,
                                                   nearIR, NL-DFT gradient (VV10), updates on ESD,
                                                   ML-optimized integration grids
   S Lehtola, MJT Oliveira, MAL Marques          : LibXC Library
   Liviu Ungur et al                             : ANISO software


 Your calculation uses the libint2 library for the computation of 2-el integrals
 For citations please refer to: http://libint.valeyev.net

 Your ORCA version has been built with support for libXC version: 5.1.0
 For citations please refer to: https://tddft.org/programs/libxc/

 This ORCA versions uses:
   CBLAS   interface :  Fast vector & matrix operations
   LAPACKE interface :  Fast linear algebra routines
   SCALAPACK package :  Parallel linear algebra routines
   Shared memory     :  Shared parallel matrices
   BLAS/LAPACK       :  OpenBLAS 0.3.15  USE64BITINT DYNAMIC_ARCH NO_AFFINITY Haswell SINGLE_THREADED
        Core in use  :  Haswell
   Copyright (c) 2011-2014, The OpenBLAS Project




***************************************
The coordinates will be read from file: D2.xyz
***************************************


Your calculation utilizes the atom-pairwise dispersion correction
with the zero-damping scheme (D30)
Cite in your paper:
S.Grimme, J.Antony, S.Ehrlich and H.Krieg, J.Chem.Phys., 132, (2010), 154104 
   

XCFun DFT library Copyright 2009-2010 Ulf Ekstrom and contributors.
See http://admol.org/xcfun for more information.
This is free software; see the source code for copying conditions.
There is ABSOLUTELY NO WARRANTY; not even for MERCHANTABILITY or FITNESS FOR A PARTICULAR PURPOSE.
For details see the documentation.
Scientific users of this library should cite U. Ekstrom, L. Visscher, R. Bast, A. J. Thorvaldsen and K. Ruud;
J.Chem.Theor.Comp. 2010, DOI: 10.1021/ct100117s
XCFun Version 0.99 

================================================================================

----- Orbital basis set information -----
Your calculation utilizes the basis: def2-SVPD
   F. Weigend and R. Ahlrichs, Phys. Chem. Chem. Phys. 7, 3297 (2005).
   D. Rappoport and F. Furche, J. Chem. Phys. 133 134105 (2010).

----- AuxJ basis set information -----
Your calculation utilizes the auxiliary basis: def2/J
   F. Weigend, Phys. Chem. Chem. Phys. 8, 1057 (2006).

================================================================================
                                        WARNINGS
                       Please study these warnings very carefully!
================================================================================


WARNING: Minnesota functionals are quite sensitive to the integration grid.
         see SE Wheeler, KN Houk, JCTC 2010, 6, 395,
             N Mardirossian, M Head-Gordon, JCTC 2016, 12, 4303.
         DEFGRID3 seems to be a minimum grid for reliable results with these functionals!
  ===> : Please increase the integration grid!


INFO   : the flag for use of the SHARK integral package has been found!

================================================================================
                                       INPUT FILE
================================================================================
NAME = 28Oct_SVPD_M062X_D2_wb97.com
|  1> !M062X D3Zero RIJCOSX def2-SVPD def2/J TightSCF xyzfile                                                                                         
|  2> 
|  3> *xyzfile 0 1 D2.xyz
|  4> 
|  5> %MaxCore 64000
|  6> 
|  7> %pal nprocs 4                                                                                                                                                  
|  8> end  
|  9> 
| 10> %scf
| 11>   MaxIter 150
| 12> end
| 13> 
| 14> 
| 15>                          ****END OF INPUT****
================================================================================

                       ****************************
                       * Single Point Calculation *
                       ****************************

---------------------------------
CARTESIAN COORDINATES (ANGSTROEM)
---------------------------------
  C      0.816067   -2.101491   -2.186546
  H      1.696232   -2.368691   -1.600457
  C      1.100552   -2.467492   -3.599269
  C      0.516243   -0.613634   -2.039373
  H     -0.020066   -2.712849   -1.840844
  C     -0.868621   -0.193925   -2.546303
  C     -0.984801    1.284739   -2.928686
  H     -0.764939    1.904116   -2.051568
  H     -2.032613    1.478953   -3.178952
  C     -0.106085    1.769914   -4.089836
  H     -0.347744    2.822196   -4.262942
  H      0.949683    1.745875   -3.808781
  C     -0.258747    1.004323   -5.409829
  C      0.395958   -0.370696   -5.339939
  H      0.239150    1.569393   -6.201253
  H     -1.309360    0.888694   -5.682455
  H      1.700606   -1.757225   -4.078378
  H      0.293855   -2.359766   -4.256324
  H      1.501324   -3.428479   -3.694915
  O     -0.326329   -1.390398   -5.491279
  F      1.619412   -0.400726   -5.036827
  H     -1.607271   -0.412651   -1.768955
  H     -1.157234   -0.796164   -3.409254
  H      1.299044   -0.056805   -2.558982
  H      0.612393   -0.365579   -0.979171

----------------------------
CARTESIAN COORDINATES (A.U.)
----------------------------
  NO LB      ZA    FRAG     MASS         X           Y           Z
   0 C     6.0000    0    12.011    1.542143   -3.971242   -4.131974
   1 H     1.0000    0     1.008    3.205414   -4.476178   -3.024426
   2 C     6.0000    0    12.011    2.079742   -4.662885   -6.801633
   3 C     6.0000    0    12.011    0.975557   -1.159601   -3.853857
   4 H     1.0000    0     1.008   -0.037919   -5.126542   -3.478691
   5 C     6.0000    0    12.011   -1.641455   -0.366465   -4.811815
   6 C     6.0000    0    12.011   -1.861004    2.427804   -5.534415
   7 H     1.0000    0     1.008   -1.445526    3.598259   -3.876902
   8 H     1.0000    0     1.008   -3.841082    2.794817   -6.007349
   9 C     6.0000    0    12.011   -0.200471    3.344653   -7.728670
  10 H     1.0000    0     1.008   -0.657140    5.333178   -8.055793
  11 H     1.0000    0     1.008    1.794641    3.299226   -7.197553
  12 C     6.0000    0    12.011   -0.488961    1.897895  -10.223095
  13 C     6.0000    0    12.011    0.748253   -0.700514  -10.091023
  14 H     1.0000    0     1.008    0.451928    2.965722  -11.718669
  15 H     1.0000    0     1.008   -2.474333    1.679388  -10.738283
  16 H     1.0000    0     1.008    3.213680   -3.320674   -7.707017
  17 H     1.0000    0     1.008    0.555306   -4.459312   -8.043287
  18 H     1.0000    0     1.008    2.837092   -6.478886   -6.982377
  19 O     8.0000    0    15.999   -0.616673   -2.627472  -10.377013
  20 F     9.0000    0    18.998    3.060246   -0.757263   -9.518224
  21 H     1.0000    0     1.008   -3.037301   -0.779798   -3.342840
  22 H     1.0000    0     1.008   -2.186856   -1.504532   -6.442556
  23 H     1.0000    0     1.008    2.454837   -0.107345   -4.835776
  24 H     1.0000    0     1.008    1.157255   -0.690845   -1.850365

--------------------------------
INTERNAL COORDINATES (ANGSTROEM)
--------------------------------
 C      0   0   0     0.000000000000     0.00000000     0.00000000
 H      1   0   0     1.090682096909     0.00000000     0.00000000
 C      1   2   0     1.486833730040   107.20934599     0.00000000
 C      1   2   3     1.524883846197   110.23330219   238.23541894
 H      1   2   3     1.091964918858   108.09773892   116.23719070
 C      4   1   2     1.533290694206   114.37849822   193.55262280
 C      6   4   1     1.531718248992   114.53777023   203.24427567
 H      7   6   4     1.096039981312   109.30133520   299.92764936
 H      7   6   4     1.094651652966   107.51496733   185.36124498
 C      7   6   4     1.534863542178   116.78148929    63.08877785
 H     10   7   6     1.093463539279   107.30372008   177.14242828
 H     10   7   6     1.092801775012   110.58416982   292.30100384
 C     10   7   6     1.533563561923   115.87207466    55.39977883
 C     13  10   7     1.524532559627   111.59568312   286.28001866
 H     13  10   7     1.092500641121   108.65991497   167.67559602
 H     13  10   7     1.091550667461   111.32604283    48.60181514
 H      3   1   2     1.045987211860   112.19895669   280.57027726
 H      3   1   2     1.045985883626   115.08362547   173.58636352
 H      3   1   2     1.045591408476   112.73676342    47.10372670
 O     14  13  10     1.258727803921   118.60172603   118.44546157
 F     14  13  10     1.260800755346   116.69427677   303.37483029
 H      6   4   1     1.094401860126   108.66633658    81.61379204
 H      6   4   1     1.091180044274   110.44333728   325.93349503
 H      4   1   2     1.092167850942   108.09628877    69.98458297
 H      4   1   2     1.093071188438   107.32192736   315.56188429

---------------------------
INTERNAL COORDINATES (A.U.)
---------------------------
 C      0   0   0     0.000000000000     0.00000000     0.00000000
 H      1   0   0     2.061090462330     0.00000000     0.00000000
 C      1   2   0     2.809708556452   107.20934599     0.00000000
 C      1   2   3     2.881612855354   110.23330219   238.23541894
 H      1   2   3     2.063514644492   108.09773892   116.23719070
 C      4   1   2     2.897499495739   114.37849822   193.55262280
 C      6   4   1     2.894528004925   114.53777023   203.24427567
 H      7   6   4     2.071215396507   109.30133520   299.92764936
 H      7   6   4     2.068591836150   107.51496733   185.36124498
 C      7   6   4     2.900471747657   116.78148929    63.08877785
 H     10   7   6     2.066346626666   107.30372008   177.14242828
 H     10   7   6     2.065096073435   110.58416982   292.30100384
 C     10   7   6     2.898015140996   115.87207466    55.39977883
 C     13  10   7     2.880949019942   111.59568312   286.28001866
 H     13  10   7     2.064527012853   108.65991497   167.67559602
 H     13  10   7     2.062731822800   111.32604283    48.60181514
 H      3   1   2     1.976629370000   112.19895669   280.57027726
 H      3   1   2     1.976626860000   115.08362547   173.58636352
 H      3   1   2     1.975881410000   112.73676342    47.10372670
 O     14  13  10     2.378650826563   118.60172603   118.44546157
 F     14  13  10     2.382568137044   116.69427677   303.37483029
 H      6   4   1     2.068119796092   108.66633658    81.61379204
 H      6   4   1     2.062031446477   110.44333728   325.93349503
 H      4   1   2     2.063898130553   108.09628877    69.98458297
 H      4   1   2     2.065605191027   107.32192736   315.56188429

---------------------
BASIS SET INFORMATION
---------------------
There are 4 groups of distinct atoms

 Group   1 Type C   : 8s4p2d contracted to 4s2p2d pattern {5111/31/11}
 Group   2 Type H   : 4s2p contracted to 2s2p pattern {31/11}
 Group   3 Type O   : 8s5p2d contracted to 4s3p2d pattern {5111/311/11}
 Group   4 Type F   : 8s5p2d contracted to 4s3p2d pattern {5111/311/11}

Atom   0C    basis set group =>   1
Atom   1H    basis set group =>   2
Atom   2C    basis set group =>   1
Atom   3C    basis set group =>   1
Atom   4H    basis set group =>   2
Atom   5C    basis set group =>   1
Atom   6C    basis set group =>   1
Atom   7H    basis set group =>   2
Atom   8H    basis set group =>   2
Atom   9C    basis set group =>   1
Atom  10H    basis set group =>   2
Atom  11H    basis set group =>   2
Atom  12C    basis set group =>   1
Atom  13C    basis set group =>   1
Atom  14H    basis set group =>   2
Atom  15H    basis set group =>   2
Atom  16H    basis set group =>   2
Atom  17H    basis set group =>   2
Atom  18H    basis set group =>   2
Atom  19O    basis set group =>   3
Atom  20F    basis set group =>   4
Atom  21H    basis set group =>   2
Atom  22H    basis set group =>   2
Atom  23H    basis set group =>   2
Atom  24H    basis set group =>   2
---------------------------------
AUXILIARY/J BASIS SET INFORMATION
---------------------------------
There are 4 groups of distinct atoms

 Group   1 Type C   : 12s5p4d2f1g contracted to 6s4p3d1f1g pattern {711111/2111/211/2/1}
 Group   2 Type H   : 5s2p1d contracted to 3s1p1d pattern {311/2/1}
 Group   3 Type O   : 12s5p4d2f1g contracted to 6s4p3d1f1g pattern {711111/2111/211/2/1}
 Group   4 Type F   : 12s5p4d2f1g contracted to 6s4p3d1f1g pattern {711111/2111/211/2/1}

Atom   0C    basis set group =>   1
Atom   1H    basis set group =>   2
Atom   2C    basis set group =>   1
Atom   3C    basis set group =>   1
Atom   4H    basis set group =>   2
Atom   5C    basis set group =>   1
Atom   6C    basis set group =>   1
Atom   7H    basis set group =>   2
Atom   8H    basis set group =>   2
Atom   9C    basis set group =>   1
Atom  10H    basis set group =>   2
Atom  11H    basis set group =>   2
Atom  12C    basis set group =>   1
Atom  13C    basis set group =>   1
Atom  14H    basis set group =>   2
Atom  15H    basis set group =>   2
Atom  16H    basis set group =>   2
Atom  17H    basis set group =>   2
Atom  18H    basis set group =>   2
Atom  19O    basis set group =>   3
Atom  20F    basis set group =>   4
Atom  21H    basis set group =>   2
Atom  22H    basis set group =>   2
Atom  23H    basis set group =>   2
Atom  24H    basis set group =>   2


           ************************************************************
           *        Program running with 4 parallel MPI-processes     *
           *              working on a common directory               *
           ************************************************************
------------------------------------------------------------------------------
                           ORCA GTO INTEGRAL CALCULATION
                           -- RI-GTO INTEGRALS CHOSEN --
------------------------------------------------------------------------------
------------------------------------------------------------------------------
                   ___                                                        
                  /   \      - P O W E R E D   B Y -                         
                 /     \                                                     
                 |  |  |   _    _      __       _____    __    __             
                 |  |  |  | |  | |    /  \     |  _  \  |  |  /  |          
                  \  \/   | |  | |   /    \    | | | |  |  | /  /          
                 / \  \   | |__| |  /  /\  \   | |_| |  |  |/  /          
                |  |  |   |  __  | /  /__\  \  |    /   |      \           
                |  |  |   | |  | | |   __   |  |    \   |  |\   \          
                \     /   | |  | | |  |  |  |  | |\  \  |  | \   \       
                 \___/    |_|  |_| |__|  |__|  |_| \__\ |__|  \__/        
                                                                              
                      - O R C A' S   B I G   F R I E N D -                    
                                      &                                       
                       - I N T E G R A L  F E E D E R -                       
                                                                              
 v1 FN, 2020, v2 2021                                                         
------------------------------------------------------------------------------


Reading SHARK input file 28Oct_SVPD_M062X_D2_wb97.SHARKINP.tmp ... ok
----------------------
SHARK INTEGRAL PACKAGE
----------------------

Number of atoms                             ...     25
Number of basis functions                   ...    326
Number of shells                            ...    142
Maximum angular momentum                    ...      2
Integral batch strategy                     ... SHARK/LIBINT Hybrid
RI-J (if used) integral strategy            ... SPLIT-RIJ (Revised 2003 algorithm where possible)
Printlevel                                  ...      1
Contraction scheme used                     ... SEGMENTED contraction
Coulomb Range Separation                    ... NOT USED
Exchange Range Separation                   ... NOT USED
Finite Nucleus Model                        ... NOT USED
Auxiliary Coulomb fitting basis             ... AVAILABLE
   # of basis functions in Aux-J            ...    655
   # of shells in Aux-J                     ...    225
   Maximum angular momentum in Aux-J        ...      4
Auxiliary J/K fitting basis                 ... NOT available
Auxiliary Correlation fitting basis         ... NOT available
Auxiliary 'external' fitting basis          ... NOT available
Integral threshold                          ...     2.500000e-11
Primitive cut-off                           ...     2.500000e-12
Primitive pair pre-selection threshold      ...     2.500000e-12

Calculating pre-screening integrals         ... done (  0.1 sec) Dimension = 142
Organizing shell pair data                  ... done (  0.1 sec)
Shell pair information
Total number of shell pairs                 ...     10153
Shell pairs after pre-screening             ...      9834
Total number of primitive shell pairs       ...     27203
Primitive shell pairs kept                  ...     21072
          la=0 lb=0:   2398 shell pairs
          la=1 lb=0:   3515 shell pairs
          la=1 lb=1:   1332 shell pairs
          la=2 lb=0:   1361 shell pairs
          la=2 lb=1:   1018 shell pairs
          la=2 lb=2:    210 shell pairs

Calculating one electron integrals          ... done (  0.0 sec)
Calculating RI/J V-Matrix + Cholesky decomp.... done (  0.0 sec)
Calculating Nuclear repulsion               ... done (  0.0 sec) ENN=    605.196137612967 Eh

SHARK setup successfully completed in   0.3 seconds

Maximum memory used throughout the entire GTOINT-calculation: 16.5 MB


           ************************************************************
           *        Program running with 4 parallel MPI-processes     *
           *              working on a common directory               *
           ************************************************************
-------------------------------------------------------------------------------
                                 ORCA SCF
-------------------------------------------------------------------------------

------------
SCF SETTINGS
------------
Hamiltonian:
 Density Functional     Method          .... DFT(GTOs)
 Exchange Functional    Exchange        .... M062X
 Correlation Functional Correlation     .... M062X
 Gradients option       PostSCFGGA      .... off
 Hybrid DFT is turned on
   Fraction HF Exchange ScalHFX         ....  0.540000
   Scaling of DF-GGA-X  ScalDFX         ....  0.460000
   Scaling of DF-GGA-C  ScalDFC         ....  1.000000
   Scaling of DF-LDA-C  ScalLDAC        ....  1.000000
   Perturbative correction              ....  0.000000
   Density functional embedding theory  .... OFF
 RI-approximation to the Coulomb term is turned on
   Number of AuxJ basis functions       .... 655
   RIJ-COSX (HFX calculated with COS-X)).... on


General Settings:
 Integral files         IntName         .... 28Oct_SVPD_M062X_D2_wb97
 Hartree-Fock type      HFTyp           .... RHF
 Total Charge           Charge          ....    0
 Multiplicity           Mult            ....    1
 Number of Electrons    NEL             ....   80
 Basis Dimension        Dim             ....  326
 Nuclear Repulsion      ENuc            ....    605.1961376130 Eh

Convergence Acceleration:
 DIIS                   CNVDIIS         .... on
   Start iteration      DIISMaxIt       ....    12
   Startup error        DIISStart       ....  0.200000
   # of expansion vecs  DIISMaxEq       ....     5
   Bias factor          DIISBfac        ....   1.050
   Max. coefficient     DIISMaxC        ....  10.000
 Trust-Rad. Augm. Hess. CNVTRAH         .... auto
   Auto Start mean grad. ratio tolernc. ....  1.125000
   Auto Start start iteration           ....    20
   Auto Start num. interpolation iter.  ....    10
   Max. Number of Micro iterations      ....    16
   Max. Number of Macro iterations      .... Maxiter - #DIIS iter
   Number of Davidson start vectors     ....     2
   Converg. threshold I  (grad. norm)   ....   1.000e-05
   Converg. threshold II (energy diff.) ....   1.000e-08
   Grad. Scal. Fac. for Micro threshold ....   0.100
   Minimum threshold for Micro iter.    ....   0.010
   NR start threshold (gradient norm)   ....   0.001
   Initial trust radius                 ....   0.400
   Minimum AH scaling param. (alpha)    ....   1.000
   Maximum AH scaling param. (alpha)    .... 1000.000
   Orbital update algorithm             .... Taylor
   White noise on init. David. guess    .... on
   Maximum white noise                  ....   0.010
   Quad. conv. algorithm                .... NR
 SOSCF                  CNVSOSCF        .... on
   Start iteration      SOSCFMaxIt      ....   150
   Startup grad/error   SOSCFStart      ....  0.003300
 Level Shifting         CNVShift        .... on
   Level shift para.    LevelShift      ....    0.2500
   Turn off err/grad.   ShiftErr        ....    0.0010
 Zerner damping         CNVZerner       .... off
 Static damping         CNVDamp         .... on
   Fraction old density DampFac         ....    0.7000
   Max. Damping (<1)    DampMax         ....    0.9800
   Min. Damping (>=0)   DampMin         ....    0.0000
   Turn off err/grad.   DampErr         ....    0.1000
 Fernandez-Rico         CNVRico         .... off

SCF Procedure:
 Maximum # iterations   MaxIter         ....   150
 SCF integral mode      SCFMode         .... Direct
   Integral package                     .... SHARK and LIBINT hybrid scheme
 Reset frequency        DirectResetFreq ....    20
 Integral Threshold     Thresh          ....  2.500e-11 Eh
 Primitive CutOff       TCut            ....  2.500e-12 Eh

Convergence Tolerance:
 Convergence Check Mode ConvCheckMode   .... Total+1el-Energy
 Convergence forced     ConvForced      .... 0
 Energy Change          TolE            ....  1.000e-08 Eh
 1-El. energy change                    ....  1.000e-05 Eh
 Orbital Gradient       TolG            ....  1.000e-05
 Orbital Rotation angle TolX            ....  1.000e-05
 DIIS Error             TolErr          ....  5.000e-07


Diagonalization of the overlap matrix:
Smallest eigenvalue                        ... 3.629e-05
Time for diagonalization                   ...    0.022 sec
Threshold for overlap eigenvalues          ... 1.000e-08
Number of eigenvalues below threshold      ... 0
Time for construction of square roots      ...    0.017 sec
Total time needed                          ...    0.040 sec

Time for model grid setup =    0.358 sec

------------------------------
INITIAL GUESS: MODEL POTENTIAL
------------------------------
Loading Hartree-Fock densities                     ... done
Calculating cut-offs                               ... done
Initializing the effective Hamiltonian             ... done
Setting up the integral package (SHARK)            ... done
Starting the Coulomb interaction                   ... done (   0.3 sec)
Reading the grid                                   ... done
Mapping shells                                     ... done
Starting the XC term evaluation                    ... done (   0.5 sec)
  promolecular density results
     # of electrons  =     79.998573417
     EX              =    -63.582401085
     EC              =     -2.676971954
     EX+EC           =    -66.259373039
Transforming the Hamiltonian                       ... done (   0.0 sec)
Diagonalizing the Hamiltonian                      ... done (   0.0 sec)
Back transforming the eigenvectors                 ... done (   0.0 sec)
Now organizing SCF variables                       ... done
                      ------------------
                      INITIAL GUESS DONE (   1.2 sec)
                      ------------------
-------------------
DFT GRID GENERATION
-------------------

General Integration Accuracy     IntAcc      ... 4.388
Radial Grid Type                 RadialGrid  ... OptM3 with GC (2021)
Angular Grid (max. ang.)         AngularGrid ... 4 (Lebedev-302)
Angular grid pruning method      GridPruning ... 4 (adaptive)
Weight generation scheme         WeightScheme... Becke
Basis function cutoff            BFCut       ... 1.0000e-11
Integration weight cutoff        WCut        ... 1.0000e-14
Angular grids for H and He will be reduced by one unit
Partially contracted basis set               ... off
Rotationally invariant grid construction     ... off

Total number of grid points                  ...   110332
Total number of batches                      ...     1737
Average number of points per batch           ...       63
Average number of grid points per atom       ...     4413
Time for grid setup =    1.308 sec

--------------------
COSX GRID GENERATION
--------------------

GRIDX 1
-------
General Integration Accuracy     IntAcc      ... 3.816
Radial Grid Type                 RadialGrid  ... OptM3 with GC (2021)
Angular Grid (max. ang.)         AngularGrid ... 1 (Lebedev-50)
Angular grid pruning method      GridPruning ... 4 (adaptive)
Weight generation scheme         WeightScheme... Becke
Basis function cutoff            BFCut       ... 1.0000e-11
Integration weight cutoff        WCut        ... 1.0000e-14
Angular grids for H and He will be reduced by one unit
Partially contracted basis set               ... on
Rotationally invariant grid construction     ... off

Total number of grid points                  ...    13808
Total number of batches                      ...      231
Average number of points per batch           ...       59
Average number of grid points per atom       ...      552
UseSFitting                                  ... on

GRIDX 2
-------
General Integration Accuracy     IntAcc      ... 4.020
Radial Grid Type                 RadialGrid  ... OptM3 with GC (2021)
Angular Grid (max. ang.)         AngularGrid ... 2 (Lebedev-110)
Angular grid pruning method      GridPruning ... 4 (adaptive)
Weight generation scheme         WeightScheme... Becke
Basis function cutoff            BFCut       ... 1.0000e-11
Integration weight cutoff        WCut        ... 1.0000e-14
Angular grids for H and He will be reduced by one unit
Partially contracted basis set               ... on
Rotationally invariant grid construction     ... off

Total number of grid points                  ...    30401
Total number of batches                      ...      487
Average number of points per batch           ...       62
Average number of grid points per atom       ...     1216
UseSFitting                                  ... on

GRIDX 3
-------
General Integration Accuracy     IntAcc      ... 4.338
Radial Grid Type                 RadialGrid  ... OptM3 with GC (2021)
Angular Grid (max. ang.)         AngularGrid ... 3 (Lebedev-194)
Angular grid pruning method      GridPruning ... 4 (adaptive)
Weight generation scheme         WeightScheme... Becke
Basis function cutoff            BFCut       ... 1.0000e-11
Integration weight cutoff        WCut        ... 1.0000e-14
Angular grids for H and He will be reduced by one unit
Partially contracted basis set               ... on
Rotationally invariant grid construction     ... off

Total number of grid points                  ...    68460
Total number of batches                      ...     1080
Average number of points per batch           ...       63
Average number of grid points per atom       ...     2738
UseSFitting                                  ... on

Time for X-Grid setup             =    1.686 sec

--------------
SCF ITERATIONS
--------------
ITER       Energy         Delta-E        Max-DP      RMS-DP      [F,P]     Damp
               ***  Starting incremental Fock matrix formation  ***
  0   -487.9637631970   0.000000000000 0.33709603  0.00293313  0.2397900 0.7000
  1   -488.1279981934  -0.164234996407 0.19719330  0.00189926  0.1153671 0.7000
                               ***Turning on DIIS***
  2   -488.2006805247  -0.072682331315 0.33678366  0.00373396  0.0540507 0.0000
  3   -488.3164079364  -0.115727411660 0.13181906  0.00135653  0.0609173 0.0000
  4   -488.3384595845  -0.022051648174 0.01840657  0.00033616  0.0167262 0.0000
  5   -488.3392593621  -0.000799777513 0.00800304  0.00013644  0.0105495 0.0000
                      *** Initiating the SOSCF procedure ***
                           *** Shutting down DIIS ***
                      *** Re-Reading the Fockian *** 
                      *** Removing any level shift *** 
ITER      Energy       Delta-E        Grad      Rot      Max-DP    RMS-DP
  6   -488.33943891  -0.0001795522  0.000367  0.000367  0.003170  0.000083
               *** Restarting incremental Fock matrix formation ***
  7   -488.33959042  -0.0001515100  0.000082  0.000152  0.003671  0.000115
  8   -488.33959201  -0.0000015816  0.000127  0.000270  0.001512  0.000040
  9   -488.33959233  -0.0000003196  0.000078  0.000095  0.000652  0.000023
 10   -488.33959245  -0.0000001209  0.000028  0.000019  0.000347  0.000010
 11   -488.33959248  -0.0000000319  0.000005  0.000011  0.000167  0.000005
                  ***Gradient check signals convergence***
              ***Rediagonalizing the Fockian in SOSCF/NRSCF***

               *****************************************************
               *                     SUCCESS                       *
               *           SCF CONVERGED AFTER  12 CYCLES          *
               *****************************************************

Old exchange energy                            =    -35.148489988 Eh
New exchange energy                            =    -35.148261350 Eh
Exchange energy change after final integration =      0.000228638 Eh
Total energy after final integration           =   -488.339363845 Eh
Final COS-X integration done in                =    11.524 sec

----------------
TOTAL SCF ENERGY
----------------

Total Energy       :         -488.33936385 Eh          -13288.38966 eV

Components:
Nuclear Repulsion  :          605.19613761 Eh           16468.22413 eV
Electronic Energy  :        -1093.53550146 Eh          -29756.61379 eV
One Electron Energy:        -1864.57882766 Eh          -50737.76936 eV
Two Electron Energy:          771.04332620 Eh           20981.15557 eV
Max COSX asymmetry :            0.00001802 Eh               0.00049 eV

Virial components:
Potential Energy   :         -972.19814570 Eh          -26454.85648 eV
Kinetic Energy     :          483.85878186 Eh           13166.46682 eV
Virial Ratio       :            2.00926010


DFT components:
N(Alpha)           :       40.000030297619 electrons
N(Beta)            :       40.000030297619 electrons
N(Total)           :       80.000060595238 electrons
E(XC)              :      -32.748924238898 Eh       
DFET-embed. en.    :        0.000000000000 Eh       

---------------
SCF CONVERGENCE
---------------

  Last Energy change         ...   -5.1703e-09  Tolerance :   1.0000e-08
  Last MAX-Density change    ...    3.1086e-15  Tolerance :   1.0000e-07
  Last RMS-Density change    ...    3.3232e-17  Tolerance :   5.0000e-09
  Last Orbital Gradient      ...    1.1365e-06  Tolerance :   1.0000e-05
  Last Orbital Rotation      ...    4.3362e-06  Tolerance :   1.0000e-05

             **** THE GBW FILE WAS UPDATED (28Oct_SVPD_M062X_D2_wb97.gbw) ****
             **** DENSITY 28Oct_SVPD_M062X_D2_wb97.scfp WAS UPDATED ****
             **** ENERGY FILE WAS UPDATED (28Oct_SVPD_M062X_D2_wb97.en.tmp) ****
             **** THE GBW FILE WAS UPDATED (28Oct_SVPD_M062X_D2_wb97.gbw) ****
             **** DENSITY 28Oct_SVPD_M062X_D2_wb97.scfp WAS UPDATED ****
----------------
ORBITAL ENERGIES
----------------

  NO   OCC          E(Eh)            E(eV) 
   0   2.0000     -25.337459      -689.4673 
   1   2.0000     -19.654719      -534.8321 
   2   2.0000     -10.746996      -292.4406 
   3   2.0000     -10.586348      -288.0692 
   4   2.0000     -10.570427      -287.6359 
   5   2.0000     -10.554439      -287.2009 
   6   2.0000     -10.541554      -286.8503 
   7   2.0000     -10.537006      -286.7265 
   8   2.0000     -10.524528      -286.3870 
   9   2.0000     -10.476788      -285.0879 
  10   2.0000      -1.456790       -39.6413 
  11   2.0000      -1.155903       -31.4537 
  12   2.0000      -0.922229       -25.0951 
  13   2.0000      -0.887952       -24.1624 
  14   2.0000      -0.835640       -22.7389 
  15   2.0000      -0.796009       -21.6605 
  16   2.0000      -0.758262       -20.6334 
  17   2.0000      -0.721517       -19.6335 
  18   2.0000      -0.686097       -18.6696 
  19   2.0000      -0.656661       -17.8686 
  20   2.0000      -0.645950       -17.5772 
  21   2.0000      -0.628694       -17.1076 
  22   2.0000      -0.593879       -16.1603 
  23   2.0000      -0.553546       -15.0627 
  24   2.0000      -0.531763       -14.4700 
  25   2.0000      -0.514838       -14.0095 
  26   2.0000      -0.511350       -13.9145 
  27   2.0000      -0.499681       -13.5970 
  28   2.0000      -0.489895       -13.3307 
  29   2.0000      -0.461523       -12.5587 
  30   2.0000      -0.451416       -12.2837 
  31   2.0000      -0.445332       -12.1181 
  32   2.0000      -0.432616       -11.7721 
  33   2.0000      -0.412926       -11.2363 
  34   2.0000      -0.396019       -10.7762 
  35   2.0000      -0.393231       -10.7004 
  36   2.0000      -0.378185       -10.2909 
  37   2.0000      -0.364731        -9.9248 
  38   2.0000      -0.362073        -9.8525 
  39   2.0000      -0.332450        -9.0464 
  40   0.0000      -0.001223        -0.0333 
  41   0.0000       0.029448         0.8013 
  42   0.0000       0.051650         1.4055 
  43   0.0000       0.053723         1.4619 
  44   0.0000       0.056850         1.5470 
  45   0.0000       0.076553         2.0831 
  46   0.0000       0.081928         2.2294 
  47   0.0000       0.087671         2.3856 
  48   0.0000       0.095743         2.6053 
  49   0.0000       0.099758         2.7146 
  50   0.0000       0.115909         3.1540 
  51   0.0000       0.119735         3.2582 
  52   0.0000       0.134600         3.6627 
  53   0.0000       0.138030         3.7560 
  54   0.0000       0.140972         3.8360 
  55   0.0000       0.147030         4.0009 
  56   0.0000       0.149338         4.0637 
  57   0.0000       0.162537         4.4229 
  58   0.0000       0.170085         4.6282 
  59   0.0000       0.178415         4.8549 
  60   0.0000       0.188753         5.1362 
  61   0.0000       0.193405         5.2628 
  62   0.0000       0.198726         5.4076 
  63   0.0000       0.205367         5.5883 
  64   0.0000       0.211340         5.7509 
  65   0.0000       0.220860         6.0099 
  66   0.0000       0.226967         6.1761 
  67   0.0000       0.228015         6.2046 
  68   0.0000       0.238610         6.4929 
  69   0.0000       0.244292         6.6475 
  70   0.0000       0.247495         6.7347 
  71   0.0000       0.255311         6.9474 
  72   0.0000       0.257216         6.9992 
  73   0.0000       0.271491         7.3876 
  74   0.0000       0.274334         7.4650 
  75   0.0000       0.285171         7.7599 
  76   0.0000       0.292820         7.9680 
  77   0.0000       0.295176         8.0321 
  78   0.0000       0.299340         8.1455 
  79   0.0000       0.306862         8.3501 
  80   0.0000       0.312551         8.5049 
  81   0.0000       0.318565         8.6686 
  82   0.0000       0.326992         8.8979 
  83   0.0000       0.330296         8.9878 
  84   0.0000       0.331889         9.0312 
  85   0.0000       0.339883         9.2487 
  86   0.0000       0.342663         9.3243 
  87   0.0000       0.350976         9.5505 
  88   0.0000       0.353945         9.6313 
  89   0.0000       0.359499         9.7825 
  90   0.0000       0.363186         9.8828 
  91   0.0000       0.367367         9.9966 
  92   0.0000       0.370941        10.0938 
  93   0.0000       0.373128        10.1533 
  94   0.0000       0.379130        10.3166 
  95   0.0000       0.385163        10.4808 
  96   0.0000       0.386350        10.5131 
  97   0.0000       0.395634        10.7657 
  98   0.0000       0.403383        10.9766 
  99   0.0000       0.405473        11.0335 
 100   0.0000       0.408234        11.1086 
 101   0.0000       0.414978        11.2921 
 102   0.0000       0.425419        11.5762 
 103   0.0000       0.425924        11.5900 
 104   0.0000       0.433935        11.8080 
 105   0.0000       0.440407        11.9841 
 106   0.0000       0.448882        12.2147 
 107   0.0000       0.450366        12.2551 
 108   0.0000       0.454562        12.3693 
 109   0.0000       0.459583        12.5059 
 110   0.0000       0.462896        12.5961 
 111   0.0000       0.468595        12.7511 
 112   0.0000       0.469997        12.7893 
 113   0.0000       0.482895        13.1402 
 114   0.0000       0.486123        13.2281 
 115   0.0000       0.489615        13.3231 
 116   0.0000       0.495946        13.4954 
 117   0.0000       0.500426        13.6173 
 118   0.0000       0.504729        13.7344 
 119   0.0000       0.511885        13.9291 
 120   0.0000       0.514478        13.9997 
 121   0.0000       0.515784        14.0352 
 122   0.0000       0.520424        14.1614 
 123   0.0000       0.527595        14.3566 
 124   0.0000       0.532661        14.4944 
 125   0.0000       0.534419        14.5423 
 126   0.0000       0.544166        14.8075 
 127   0.0000       0.547956        14.9107 
 128   0.0000       0.552041        15.0218 
 129   0.0000       0.557279        15.1643 
 130   0.0000       0.563256        15.3270 
 131   0.0000       0.570817        15.5327 
 132   0.0000       0.573363        15.6020 
 133   0.0000       0.582320        15.8457 
 134   0.0000       0.588138        16.0040 
 135   0.0000       0.591807        16.1039 
 136   0.0000       0.600713        16.3462 
 137   0.0000       0.607296        16.5254 
 138   0.0000       0.609607        16.5882 
 139   0.0000       0.622260        16.9325 
 140   0.0000       0.627960        17.0877 
 141   0.0000       0.630340        17.1524 
 142   0.0000       0.633148        17.2288 
 143   0.0000       0.643898        17.5214 
 144   0.0000       0.648208        17.6386 
 145   0.0000       0.653465        17.7817 
 146   0.0000       0.661385        17.9972 
 147   0.0000       0.668941        18.2028 
 148   0.0000       0.677402        18.4330 
 149   0.0000       0.682031        18.5590 
 150   0.0000       0.689660        18.7666 
 151   0.0000       0.694088        18.8871 
 152   0.0000       0.704784        19.1781 
 153   0.0000       0.712866        19.3981 
 154   0.0000       0.719959        19.5911 
 155   0.0000       0.725730        19.7481 
 156   0.0000       0.739611        20.1258 
 157   0.0000       0.748788        20.3756 
 158   0.0000       0.751791        20.4573 
 159   0.0000       0.756786        20.5932 
 160   0.0000       0.763789        20.7838 
 161   0.0000       0.765508        20.8305 
 162   0.0000       0.793386        21.5891 
 163   0.0000       0.806506        21.9461 
 164   0.0000       0.811585        22.0844 
 165   0.0000       0.832170        22.6445 
 166   0.0000       0.840925        22.8827 
 167   0.0000       0.856269        23.3003 
 168   0.0000       0.876116        23.8403 
 169   0.0000       0.877774        23.8854 
 170   0.0000       0.912676        24.8352 
 171   0.0000       0.917400        24.9637 
 172   0.0000       0.934141        25.4193 
 173   0.0000       0.953487        25.9457 
 174   0.0000       0.973487        26.4899 
 175   0.0000       0.989588        26.9280 
 176   0.0000       0.994728        27.0679 
 177   0.0000       1.017252        27.6808 
 178   0.0000       1.025143        27.8956 
 179   0.0000       1.032757        28.1027 
 180   0.0000       1.035655        28.1816 
 181   0.0000       1.050136        28.5757 
 182   0.0000       1.061985        28.8981 
 183   0.0000       1.065271        28.9875 
 184   0.0000       1.073733        29.2178 
 185   0.0000       1.082278        29.4503 
 186   0.0000       1.084737        29.5172 
 187   0.0000       1.102296        29.9950 
 188   0.0000       1.109099        30.1801 
 189   0.0000       1.117665        30.4132 
 190   0.0000       1.124950        30.6114 
 191   0.0000       1.129298        30.7298 
 192   0.0000       1.140799        31.0427 
 193   0.0000       1.146748        31.2046 
 194   0.0000       1.160144        31.5691 
 195   0.0000       1.171607        31.8810 
 196   0.0000       1.185255        32.2524 
 197   0.0000       1.186771        32.2937 
 198   0.0000       1.213958        33.0335 
 199   0.0000       1.223693        33.2984 
 200   0.0000       1.227670        33.4066 
 201   0.0000       1.235245        33.6127 
 202   0.0000       1.255870        34.1740 
 203   0.0000       1.262462        34.3533 
 204   0.0000       1.281836        34.8805 
 205   0.0000       1.299692        35.3664 
 206   0.0000       1.304934        35.5091 
 207   0.0000       1.336035        36.3554 
 208   0.0000       1.343033        36.5458 
 209   0.0000       1.358241        36.9596 
 210   0.0000       1.372844        37.3570 
 211   0.0000       1.385937        37.7133 
 212   0.0000       1.418325        38.5946 
 213   0.0000       1.434673        39.0394 
 214   0.0000       1.443034        39.2670 
 215   0.0000       1.456333        39.6288 
 216   0.0000       1.501957        40.8703 
 217   0.0000       1.514533        41.2125 
 218   0.0000       1.553259        42.2663 
 219   0.0000       1.565737        42.6059 
 220   0.0000       1.594105        43.3778 
 221   0.0000       1.617923        44.0259 
 222   0.0000       1.629316        44.3359 
 223   0.0000       1.664602        45.2961 
 224   0.0000       1.678130        45.6642 
 225   0.0000       1.690123        45.9906 
 226   0.0000       1.711201        46.5641 
 227   0.0000       1.737667        47.2843 
 228   0.0000       1.749083        47.5950 
 229   0.0000       1.771656        48.2092 
 230   0.0000       1.776810        48.3495 
 231   0.0000       1.785558        48.5875 
 232   0.0000       1.803758        49.0828 
 233   0.0000       1.829131        49.7732 
 234   0.0000       1.834021        49.9062 
 235   0.0000       1.854051        50.4513 
 236   0.0000       1.858588        50.5748 
 237   0.0000       1.876601        51.0649 
 238   0.0000       1.909485        51.9597 
 239   0.0000       1.918160        52.1958 
 240   0.0000       1.939714        52.7823 
 241   0.0000       1.951924        53.1146 
 242   0.0000       1.957376        53.2629 
 243   0.0000       1.981952        53.9316 
 244   0.0000       1.995749        54.3071 
 245   0.0000       2.000533        54.4373 
 246   0.0000       2.011125        54.7255 
 247   0.0000       2.013456        54.7889 
 248   0.0000       2.026499        55.1438 
 249   0.0000       2.033850        55.3439 
 250   0.0000       2.045721        55.6669 
 251   0.0000       2.064509        56.1782 
 252   0.0000       2.068692        56.2920 
 253   0.0000       2.080608        56.6162 
 254   0.0000       2.086991        56.7899 
 255   0.0000       2.095383        57.0183 
 256   0.0000       2.106945        57.3329 
 257   0.0000       2.115931        57.5774 
 258   0.0000       2.126263        57.8586 
 259   0.0000       2.148314        58.4586 
 260   0.0000       2.155339        58.6498 
 261   0.0000       2.167701        58.9862 
 262   0.0000       2.190853        59.6161 
 263   0.0000       2.198266        59.8179 
 264   0.0000       2.221432        60.4482 
 265   0.0000       2.230153        60.6856 
 266   0.0000       2.245556        61.1047 
 267   0.0000       2.260102        61.5005 
 268   0.0000       2.277382        61.9707 
 269   0.0000       2.299461        62.5715 
 270   0.0000       2.316558        63.0368 
 271   0.0000       2.325325        63.2753 
 272   0.0000       2.338094        63.6228 
 273   0.0000       2.382844        64.8405 
 274   0.0000       2.385360        64.9090 
 275   0.0000       2.405009        65.4436 
 276   0.0000       2.409172        65.5569 
 277   0.0000       2.424282        65.9681 
 278   0.0000       2.443919        66.5024 
 279   0.0000       2.478062        67.4315 
 280   0.0000       2.500039        68.0295 
 281   0.0000       2.524471        68.6943 
 282   0.0000       2.544149        69.2298 
 283   0.0000       2.555734        69.5450 
 284   0.0000       2.589147        70.4543 
 285   0.0000       2.601011        70.7771 
 286   0.0000       2.618116        71.2426 
 287   0.0000       2.629624        71.5557 
 288   0.0000       2.638048        71.7849 
 289   0.0000       2.654790        72.2405 
 290   0.0000       2.668316        72.6086 
 291   0.0000       2.675670        72.8087 
 292   0.0000       2.695296        73.3427 
 293   0.0000       2.718640        73.9779 
 294   0.0000       2.730120        74.2903 
 295   0.0000       2.769807        75.3703 
 296   0.0000       2.797743        76.1305 
 297   0.0000       2.811707        76.5104 
 298   0.0000       2.827238        76.9330 
 299   0.0000       2.899068        78.8877 
 300   0.0000       2.912939        79.2651 
 301   0.0000       2.965567        80.6972 
 302   0.0000       3.023215        82.2659 
 303   0.0000       3.039704        82.7146 
 304   0.0000       3.062772        83.3423 
 305   0.0000       3.085134        83.9508 
 306   0.0000       3.100496        84.3688 
 307   0.0000       3.117044        84.8191 
 308   0.0000       3.137655        85.3799 
 309   0.0000       3.162790        86.0639 
 310   0.0000       3.175592        86.4123 
 311   0.0000       3.183201        86.6193 
 312   0.0000       3.200821        87.0988 
 313   0.0000       3.228030        87.8392 
 314   0.0000       3.247342        88.3647 
 315   0.0000       3.258860        88.6781 
 316   0.0000       3.328863        90.5830 
 317   0.0000       3.331945        90.6668 
 318   0.0000       3.382308        92.0373 
 319   0.0000       3.415784        92.9482 
 320   0.0000       3.532887        96.1348 
 321   0.0000       3.565525        97.0229 
 322   0.0000       3.619544        98.4928 
 323   0.0000       3.668471        99.8242 
 324   0.0000       3.883370       105.6719 
 325   0.0000       4.169176       113.4490 

                    ********************************
                    * MULLIKEN POPULATION ANALYSIS *
                    ********************************

-----------------------
MULLIKEN ATOMIC CHARGES
-----------------------
   0 C :    0.164922
   1 H :   -0.098399
   2 C :    1.443192
   3 C :    0.208428
   4 H :   -0.174605
   5 C :    0.279533
   6 C :    0.366791
   7 H :   -0.086428
   8 H :    0.065210
   9 C :    0.087387
  10 H :   -0.242207
  11 H :    0.071583
  12 C :    0.255400
  13 C :    0.543852
  14 H :    0.022648
  15 H :   -0.018923
  16 H :   -0.360579
  17 H :   -0.319158
  18 H :   -0.281319
  19 O :   -0.603546
  20 F :   -0.489309
  21 H :   -0.139491
  22 H :   -0.354377
  23 H :   -0.047896
  24 H :   -0.292709
Sum of atomic charges:   -0.0000000

--------------------------------
MULLIKEN REDUCED ORBITAL CHARGES
--------------------------------
  0 C s       :     2.729202  s :     2.729202
      pz      :     1.037127  p :     2.702365
      px      :     0.737511
      py      :     0.927727
      dz2     :     0.028276  d :     0.403510
      dxz     :     0.109045
      dyz     :     0.168856
      dx2y2   :     0.021958
      dxy     :     0.075376
  1 H s       :     1.153714  s :     1.153714
      pz      :     0.000874  p :    -0.055315
      px      :    -0.024131
      py      :    -0.032058
  2 C s       :     1.766123  s :     1.766123
      pz      :     0.991856  p :     2.660391
      px      :     0.998450
      py      :     0.670085
      dz2     :     0.077976  d :     0.130294
      dxz     :     0.094194
      dyz     :     0.011699
      dx2y2   :    -0.010042
      dxy     :    -0.043533
  3 C s       :     2.810434  s :     2.810434
      pz      :     0.757067  p :     2.628329
      px      :     0.955267
      py      :     0.915995
      dz2     :     0.024400  d :     0.352809
      dxz     :     0.013671
      dyz     :     0.083730
      dx2y2   :     0.062309
      dxy     :     0.168701
  4 H s       :     1.201901  s :     1.201901
      pz      :    -0.010104  p :    -0.027296
      px      :    -0.029302
      py      :     0.012110
  5 C s       :     2.599396  s :     2.599396
      pz      :     0.787840  p :     2.621681
      px      :     0.943851
      py      :     0.889990
      dz2     :     0.072897  d :     0.499391
      dxz     :     0.065455
      dyz     :     0.068432
      dx2y2   :     0.073810
      dxy     :     0.218797
  6 C s       :     2.647888  s :     2.647888
      pz      :     0.805308  p :     2.616761
      px      :     0.847325
      py      :     0.964128
      dz2     :    -0.016101  d :     0.368560
      dxz     :    -0.028014
      dyz     :     0.220275
      dx2y2   :     0.115479
      dxy     :     0.076922
  7 H s       :     1.107022  s :     1.107022
      pz      :     0.026304  p :    -0.020594
      px      :    -0.052332
      py      :     0.005434
  8 H s       :     0.976447  s :     0.976447
      pz      :    -0.054726  p :    -0.041657
      px      :     0.049088
      py      :    -0.036019
  9 C s       :     2.868110  s :     2.868110
      pz      :     0.929215  p :     2.639798
      px      :     0.945435
      py      :     0.765149
      dz2     :     0.222612  d :     0.404704
      dxz     :     0.047301
      dyz     :     0.036789
      dx2y2   :     0.077988
      dxy     :     0.020015
 10 H s       :     1.259541  s :     1.259541
      pz      :    -0.031443  p :    -0.017334
      px      :    -0.037075
      py      :     0.051185
 11 H s       :     0.968406  s :     0.968406
      pz      :    -0.011157  p :    -0.039989
      px      :     0.009483
      py      :    -0.038315
 12 C s       :     2.727676  s :     2.727676
      pz      :     1.005995  p :     2.816394
      px      :     0.878897
      py      :     0.931503
      dz2     :     0.010375  d :     0.200530
      dxz     :     0.041956
      dyz     :     0.041154
      dx2y2   :     0.087371
      dxy     :     0.019674
 13 C s       :     3.002803  s :     3.002803
      pz      :     0.627224  p :     2.097811
      px      :     0.625416
      py      :     0.845171
      dz2     :     0.014784  d :     0.355535
      dxz     :     0.034730
      dyz     :     0.175782
      dx2y2   :     0.122462
      dxy     :     0.007777
 14 H s       :     1.001178  s :     1.001178
      pz      :     0.026286  p :    -0.023826
      px      :    -0.033728
      py      :    -0.016384
 15 H s       :     1.003864  s :     1.003864
      pz      :    -0.003529  p :     0.015059
      px      :     0.026737
      py      :    -0.008149
 16 H s       :     1.161500  s :     1.161500
      pz      :     0.035762  p :     0.199079
      px      :     0.077424
      py      :     0.085893
 17 H s       :     1.072600  s :     1.072600
      pz      :     0.091859  p :     0.246558
      px      :     0.116061
      py      :     0.038639
 18 H s       :     1.332046  s :     1.332046
      pz      :    -0.035288  p :    -0.050727
      px      :     0.000110
      py      :    -0.015549
 19 O s       :     3.994154  s :     3.994154
      pz      :     1.445655  p :     4.542904
      px      :     1.635146
      py      :     1.462104
      dz2     :     0.006787  d :     0.066488
      dxz     :     0.014718
      dyz     :     0.024220
      dx2y2   :     0.013777
      dxy     :     0.006986
 20 F s       :     4.066781  s :     4.066781
      pz      :     1.891075  p :     5.387377
      px      :     1.512733
      py      :     1.983568
      dz2     :     0.005975  d :     0.035151
      dxz     :     0.010593
      dyz     :     0.007946
      dx2y2   :     0.007785
      dxy     :     0.002852
 21 H s       :     1.151630  s :     1.151630
      pz      :    -0.011398  p :    -0.012139
      px      :     0.016378
      py      :    -0.017119
 22 H s       :     1.284822  s :     1.284822
      pz      :     0.040865  p :     0.069554
      px      :     0.030938
      py      :    -0.002249
 23 H s       :     1.074879  s :     1.074879
      pz      :    -0.059859  p :    -0.026983
      px      :     0.014215
      py      :     0.018661
 24 H s       :     1.301647  s :     1.301647
      pz      :     0.036199  p :    -0.008937
      px      :    -0.029168
      py      :    -0.015968


                     *******************************
                     * LOEWDIN POPULATION ANALYSIS *
                     *******************************

----------------------
LOEWDIN ATOMIC CHARGES
----------------------
   0 C :   -0.049430
   1 H :    0.019849
   2 C :    0.134334
   3 C :   -0.022697
   4 H :    0.025759
   5 C :   -0.012012
   6 C :   -0.023283
   7 H :    0.025961
   8 H :    0.023945
   9 C :   -0.020367
  10 H :    0.024266
  11 H :    0.014299
  12 C :    0.073970
  13 C :    0.042103
  14 H :    0.039663
  15 H :    0.042974
  16 H :   -0.072386
  17 H :   -0.098943
  18 H :   -0.011993
  19 O :   -0.143226
  20 F :   -0.059363
  21 H :    0.027576
  22 H :   -0.002629
  23 H :    0.002391
  24 H :    0.019238

-------------------------------
LOEWDIN REDUCED ORBITAL CHARGES
-------------------------------
  0 C s       :     2.675815  s :     2.675815
      pz      :     0.912806  p :     2.700994
      px      :     0.902888
      py      :     0.885299
      dz2     :     0.123157  d :     0.672621
      dxz     :     0.147715
      dyz     :     0.176880
      dx2y2   :     0.100438
      dxy     :     0.124430
  1 H s       :     0.733363  s :     0.733363
      pz      :     0.079689  p :     0.246788
      px      :     0.104356
      py      :     0.062743
  2 C s       :     2.647654  s :     2.647654
      pz      :     0.892795  p :     2.740023
      px      :     0.938909
      py      :     0.908319
      dz2     :     0.122043  d :     0.477989
      dxz     :     0.146019
      dyz     :     0.105339
      dx2y2   :     0.050816
      dxy     :     0.053772
  3 C s       :     2.675790  s :     2.675790
      pz      :     0.895173  p :     2.677128
      px      :     0.890701
      py      :     0.891254
      dz2     :     0.116436  d :     0.669779
      dxz     :     0.105509
      dyz     :     0.114157
      dx2y2   :     0.156088
      dxy     :     0.177590
  4 H s       :     0.730618  s :     0.730618
      pz      :     0.067632  p :     0.243622
      px      :     0.102123
      py      :     0.073867
  5 C s       :     2.672400  s :     2.672400
      pz      :     0.901313  p :     2.677262
      px      :     0.896219
      py      :     0.879731
      dz2     :     0.088237  d :     0.662349
      dxz     :     0.137651
      dyz     :     0.126144
      dx2y2   :     0.159468
      dxy     :     0.150850
  6 C s       :     2.682024  s :     2.682024
      pz      :     0.887078  p :     2.686680
      px      :     0.898013
      py      :     0.901589
      dz2     :     0.115436  d :     0.654578
      dxz     :     0.082407
      dyz     :     0.188488
      dx2y2   :     0.158485
      dxy     :     0.109762
  7 H s       :     0.727653  s :     0.727653
      pz      :     0.100220  p :     0.246386
      px      :     0.068821
      py      :     0.077345
  8 H s       :     0.726763  s :     0.726763
      pz      :     0.069370  p :     0.249292
      px      :     0.115865
      py      :     0.064056
  9 C s       :     2.677140  s :     2.677140
      pz      :     0.873064  p :     2.683313
      px      :     0.916508
      py      :     0.893741
      dz2     :     0.201371  d :     0.659914
      dxz     :     0.140524
      dyz     :     0.121394
      dx2y2   :     0.139775
      dxy     :     0.056850
 10 H s       :     0.727197  s :     0.727197
      pz      :     0.062661  p :     0.248538
      px      :     0.069900
      py      :     0.115976
 11 H s       :     0.715249  s :     0.715249
      pz      :     0.069799  p :     0.270452
      px      :     0.119264
      py      :     0.081388
 12 C s       :     2.677744  s :     2.677744
      pz      :     0.909032  p :     2.684247
      px      :     0.909967
      py      :     0.865248
      dz2     :     0.112746  d :     0.564038
      dxz     :     0.103966
      dyz     :     0.133537
      dx2y2   :     0.124410
      dxy     :     0.089379
 13 C s       :     2.630209  s :     2.630209
      pz      :     0.585460  p :     2.247909
      px      :     0.763762
      py      :     0.898687
      dz2     :     0.112411  d :     1.079779
      dxz     :     0.164711
      dyz     :     0.172757
      dx2y2   :     0.331196
      dxy     :     0.298706
 14 H s       :     0.714717  s :     0.714717
      pz      :     0.091356  p :     0.245620
      px      :     0.078624
      py      :     0.075640
 15 H s       :     0.711381  s :     0.711381
      pz      :     0.063880  p :     0.245645
      px      :     0.119425
      py      :     0.062341
 16 H s       :     0.677700  s :     0.677700
      pz      :     0.113194  p :     0.394686
      px      :     0.112509
      py      :     0.168983
 17 H s       :     0.666654  s :     0.666654
      pz      :     0.158909  p :     0.432289
      px      :     0.152967
      py      :     0.120412
 18 H s       :     0.748812  s :     0.748812
      pz      :     0.063869  p :     0.263181
      px      :     0.085278
      py      :     0.114035
 19 O s       :     3.429887  s :     3.429887
      pz      :     1.328651  p :     4.432458
      px      :     1.575342
      py      :     1.528465
      dz2     :     0.040102  d :     0.280881
      dxz     :     0.033739
      dyz     :     0.065346
      dx2y2   :     0.074538
      dxy     :     0.067156
 20 F s       :     3.580420  s :     3.580420
      pz      :     1.769724  p :     5.206591
      px      :     1.571808
      py      :     1.865059
      dz2     :     0.030960  d :     0.272353
      dxz     :     0.051862
      dyz     :     0.041911
      dx2y2   :     0.073036
      dxy     :     0.074585
 21 H s       :     0.727962  s :     0.727962
      pz      :     0.095196  p :     0.244462
      px      :     0.086916
      py      :     0.062350
 22 H s       :     0.697892  s :     0.697892
      pz      :     0.142546  p :     0.304737
      px      :     0.075181
      py      :     0.087009
 23 H s       :     0.712638  s :     0.712638
      pz      :     0.106734  p :     0.284971
      px      :     0.089815
      py      :     0.088422
 24 H s       :     0.733494  s :     0.733494
      pz      :     0.117963  p :     0.247268
      px      :     0.063384
      py      :     0.065922


                      *****************************
                      * MAYER POPULATION ANALYSIS *
                      *****************************

  NA   - Mulliken gross atomic population
  ZA   - Total nuclear charge
  QA   - Mulliken gross atomic charge
  VA   - Mayer's total valence
  BVA  - Mayer's bonded valence
  FA   - Mayer's free valence

  ATOM       NA         ZA         QA         VA         BVA        FA
  0 C      5.8351     6.0000     0.1649     4.7710     4.7710     0.0000
  1 H      1.0984     1.0000    -0.0984     0.8551     0.8551     0.0000
  2 C      4.5568     6.0000     1.4432     2.4030     2.4030     0.0000
  3 C      5.7916     6.0000     0.2084     4.7140     4.7140    -0.0000
  4 H      1.1746     1.0000    -0.1746     0.9106     0.9106    -0.0000
  5 C      5.7205     6.0000     0.2795     4.8448     4.8448     0.0000
  6 C      5.6332     6.0000     0.3668     4.3118     4.3118    -0.0000
  7 H      1.0864     1.0000    -0.0864     1.0073     1.0073    -0.0000
  8 H      0.9348     1.0000     0.0652     0.9274     0.9274    -0.0000
  9 C      5.9126     6.0000     0.0874     4.8242     4.8242    -0.0000
 10 H      1.2422     1.0000    -0.2422     0.9998     0.9998    -0.0000
 11 H      0.9284     1.0000     0.0716     0.8893     0.8893    -0.0000
 12 C      5.7446     6.0000     0.2554     4.2243     4.2243    -0.0000
 13 C      5.4561     6.0000     0.5439     4.2557     4.2557    -0.0000
 14 H      0.9774     1.0000     0.0226     0.9532     0.9532     0.0000
 15 H      1.0189     1.0000    -0.0189     1.0185     1.0185    -0.0000
 16 H      1.3606     1.0000    -0.3606     1.4100     1.4100    -0.0000
 17 H      1.3192     1.0000    -0.3192     1.3944     1.3944     0.0000
 18 H      1.2813     1.0000    -0.2813     0.7068     0.7068     0.0000
 19 O      8.6035     8.0000    -0.6035     1.9467     1.9467     0.0000
 20 F      9.4893     9.0000    -0.4893     0.8253     0.8253    -0.0000
 21 H      1.1395     1.0000    -0.1395     0.9493     0.9493    -0.0000
 22 H      1.3544     1.0000    -0.3544     1.0743     1.0743     0.0000
 23 H      1.0479     1.0000    -0.0479     0.9563     0.9563    -0.0000
 24 H      1.2927     1.0000    -0.2927     0.9356     0.9356    -0.0000

  Mayer bond orders larger than 0.100000
B(  0-C ,  1-H ) :   0.8036 B(  0-C ,  2-C ) :   1.0119 B(  0-C ,  3-C ) :   1.1554 
B(  0-C ,  4-H ) :   0.8351 B(  0-C , 16-H ) :   0.3031 B(  0-C , 17-H ) :   0.2360 
B(  0-C , 18-H ) :   0.1663 B(  0-C , 23-H ) :   0.1484 B(  1-H ,  3-C ) :   0.1738 
B(  1-H ,  4-H ) :  -0.1634 B(  2-C ,  3-C ) :   0.1691 B(  2-C ,  4-H ) :   0.1371 
B(  2-C , 16-H ) :   0.3259 B(  2-C , 17-H ) :   0.3104 B(  2-C , 18-H ) :   0.6649 
B(  2-C , 23-H ) :  -0.2276 B(  2-C , 24-H ) :   0.1367 B(  3-C ,  5-C ) :   1.1052 
B(  3-C , 21-H ) :   0.2384 B(  3-C , 22-H ) :   0.1029 B(  3-C , 23-H ) :   0.8059 
B(  3-C , 24-H ) :   0.9596 B(  5-C ,  6-C ) :   1.2304 B(  5-C ,  7-H ) :   0.1592 
B(  5-C ,  8-H ) :   0.2109 B(  5-C ,  9-C ) :   0.1021 B(  5-C , 21-H ) :   0.7772 
B(  5-C , 22-H ) :   0.8792 B(  5-C , 24-H ) :   0.1964 B(  6-C ,  7-H ) :   0.8439 
B(  6-C ,  8-H ) :   0.6704 B(  6-C ,  9-C ) :   1.2180 B(  6-C , 10-H ) :   0.1353 
B(  7-H ,  8-H ) :  -0.1113 B(  7-H ,  9-C ) :   0.1361 B(  8-H ,  9-C ) :   0.1391 
B(  9-C , 10-H ) :   0.9546 B(  9-C , 11-H ) :   0.8052 B(  9-C , 12-C ) :   1.1774 
B(  9-C , 14-H ) :   0.1515 B( 10-H , 11-H ) :  -0.1612 B( 10-H , 12-C ) :   0.1013 
B( 12-C , 13-C ) :   1.2054 B( 12-C , 14-H ) :   0.7357 B( 12-C , 15-H ) :   0.8753 
B( 13-C , 14-H ) :   0.1794 B( 13-C , 15-H ) :   0.2142 B( 13-C , 16-H ) :   0.1463 
B( 13-C , 17-H ) :   0.1152 B( 13-C , 19-O ) :   1.7108 B( 13-C , 20-F ) :   0.5542 
B( 16-H , 17-H ) :   0.3909 B( 16-H , 20-F ) :   0.1707 B( 16-H , 23-H ) :   0.3017 
B( 16-H , 24-H ) :  -0.2058 B( 17-H , 19-O ) :   0.1870 B( 18-H , 23-H ) :  -0.1642 
B( 23-H , 24-H ) :  -0.1396 

-------
TIMINGS
-------

Total SCF time: 0 days 0 hours 1 min 39 sec 

Total time                  ....      99.425 sec
Sum of individual times     ....      99.040 sec  ( 99.6%)

Fock matrix formation       ....      94.357 sec  ( 94.9%)
  Split-RI-J                ....       5.334 sec  (  5.7% of F)
  Chain of spheres X        ....      60.813 sec  ( 64.4% of F)
  XC integration            ....      28.105 sec  ( 29.8% of F)
    Basis function eval.    ....       3.456 sec  ( 12.3% of XC)
    Density eval.           ....      10.014 sec  ( 35.6% of XC)
    XC-Functional eval.     ....       0.824 sec  (  2.9% of XC)
    XC-Potential eval.      ....      12.396 sec  ( 44.1% of XC)
Diagonalization             ....       0.209 sec  (  0.2%)
Density matrix formation    ....       0.015 sec  (  0.0%)
Population analysis         ....       0.026 sec  (  0.0%)
Initial guess               ....       0.843 sec  (  0.8%)
Orbital Transformation      ....       0.000 sec  (  0.0%)
Orbital Orthonormalization  ....       0.000 sec  (  0.0%)
DIIS solution               ....       0.110 sec  (  0.1%)
SOSCF solution              ....       0.129 sec  (  0.1%)
Grid generation             ....       3.351 sec  (  3.4%)

Maximum memory used throughout the entire SCF-calculation: 71.9 MB


-------------------------------------------------------------------------------
                          DFT DISPERSION CORRECTION                            
                                                                               
                              DFTD3 V3.1  Rev 1                                
                              USING zero damping                               
-------------------------------------------------------------------------------
The M062X functional is recognized
Active option DFTDOPT                   ...         3   

molecular C6(AA) [au] = 4525.859001 


            DFT-D V3
 parameters
 s6 scaling factor         :     1.0000 
 rs6 scaling factor        :     1.6190 
 s8 scaling factor         :     0.0000 
 rs8 scaling factor        :     1.0000 
 Damping factor alpha6     :    14.0000 
 Damping factor alpha8     :    16.0000 
 ad hoc parameters k1-k3   :    16.0000     1.3333    -4.0000 

 Edisp/kcal,au: -0.633924891173  -0.001010223510 
 E6   /kcal   :  -0.633924891 
 E8   /kcal   :  -0.000000000 
 % E8         :   0.000000000 

-------------------------   ----------------
Dispersion correction           -0.001010224
-------------------------   ----------------


-------------------------   --------------------
FINAL SINGLE POINT ENERGY      -488.340374068899
-------------------------   --------------------


                            ***************************************
                            *     ORCA property calculations      *
                            ***************************************

                                    ---------------------
                                    Active property flags
                                    ---------------------
   (+) Dipole Moment


------------------------------------------------------------------------------
                       ORCA ELECTRIC PROPERTIES CALCULATION
------------------------------------------------------------------------------

Dipole Moment Calculation                       ... on
Quadrupole Moment Calculation                   ... off
Polarizability Calculation                      ... off
GBWName                                         ... 28Oct_SVPD_M062X_D2_wb97.gbw
Electron density file                           ... 28Oct_SVPD_M062X_D2_wb97.scfp
The origin for moment calculation is the CENTER OF MASS  = ( 0.438676, -0.698160 -7.384153)

-------------
DIPOLE MOMENT
-------------
                                X             Y             Z
Electronic contribution:      3.58120      -0.30441      -9.79229
Nuclear contribution   :     -3.57245       1.60200       9.69133
                        -----------------------------------------
Total Dipole Moment    :      0.00876       1.29759      -0.10096
                        -----------------------------------------
Magnitude (a.u.)       :      1.30154
Magnitude (Debye)      :      3.30825



--------------------
Rotational spectrum 
--------------------
 
Rotational constants in cm-1:     0.051520     0.042563     0.028962 
Rotational constants in MHz :  1544.537298  1275.996546   868.258224 

 Dipole components along the rotational axes: 
x,y,z [a.u.] :     1.119101     0.397469    -0.532574 
x,y,z [Debye]:     2.844529     1.010285    -1.353695 

 

Timings for individual modules:

Sum of individual times         ...      101.468 sec (=   1.691 min)
GTO integral calculation        ...        1.426 sec (=   0.024 min)   1.4 %
SCF iterations                  ...      100.042 sec (=   1.667 min)  98.6 %
                             ****ORCA TERMINATED NORMALLY****
TOTAL RUN TIME: 0 days 0 hours 1 minutes 42 seconds 22 msec
