
                                        *****************
                                        * O   R   C   A *
                                        *****************

                                            #,                                       
                                            ###                                      
                                            ####                                     
                                            #####                                    
                                            ######                                   
                                           ########,                                 
                                     ,,################,,,,,                         
                               ,,#################################,,                 
                          ,,##########################################,,             
                       ,#########################################, ''#####,          
                    ,#############################################,,   '####,        
                  ,##################################################,,,,####,       
                ,###########''''           ''''###############################       
              ,#####''   ,,,,##########,,,,          '''####'''          '####       
            ,##' ,,,,###########################,,,                        '##       
           ' ,,###''''                  '''############,,,                           
         ,,##''                                '''############,,,,        ,,,,,,###''
      ,#''                                            '''#######################'''  
     '                                                          ''''####''''         
             ,#######,   #######,   ,#######,      ##                                
            ,#'     '#,  ##    ##  ,#'     '#,    #''#        ######   ,####,        
            ##       ##  ##   ,#'  ##            #'  '#       #        #'  '#        
            ##       ##  #######   ##           ,######,      #####,   #    #        
            '#,     ,#'  ##    ##  '#,     ,#' ,#      #,         ##   #,  ,#        
             '#######'   ##     ##  '#######'  #'      '#     #####' # '####'        



                  #######################################################
                  #                        -***-                        #
                  #          Department of theory and spectroscopy      #
                  #    Directorship and core code : Frank Neese         #
                  #        Max Planck Institute fuer Kohlenforschung    #
                  #                Kaiser Wilhelm Platz 1               #
                  #                 D-45470 Muelheim/Ruhr               #
                  #                      Germany                        #
                  #                                                     #
                  #                  All rights reserved                #
                  #                        -***-                        #
                  #######################################################


                         Program Version 5.0.0 -  RELEASE  -
                                (SVN: $Rev: 19529$)
                ($Date: 2021-06-28 11:36:33 +0200 (Mo, 28 Jun 2021) $)


 With contributions from (in alphabetic order):
   Daniel Aravena         : Magnetic Suceptibility
   Michael Atanasov       : Ab Initio Ligand Field Theory (pilot matlab implementation)
   Alexander A. Auer      : GIAO ZORA, VPT2 properties, NMR spectrum
   Ute Becker             : Parallelization
   Giovanni Bistoni       : ED, misc. LED, open-shell LED, HFLD
   Martin Brehm           : Molecular dynamics
   Dmytro Bykov           : SCF Hessian
   Vijay G. Chilkuri      : MRCI spin determinant printing, contributions to CSF-ICE
   Dipayan Datta          : RHF DLPNO-CCSD density
   Achintya Kumar Dutta   : EOM-CC, STEOM-CC
   Dmitry Ganyushin       : Spin-Orbit,Spin-Spin,Magnetic field MRCI
   Miquel Garcia          : C-PCM Hessian, Gaussian charge scheme
   Yang Guo               : DLPNO-NEVPT2, F12-NEVPT2, CIM, IAO-localization
   Andreas Hansen         : Spin unrestricted coupled pair/coupled cluster methods
   Benjamin Helmich-Paris : MC-RPA, TRAH-SCF, COSX integrals
   Lee Huntington         : MR-EOM, pCC
   Robert Izsak           : Overlap fitted RIJCOSX, COSX-SCS-MP3, EOM
   Marcus Kettner         : VPT2
   Christian Kollmar      : KDIIS, OOCD, Brueckner-CCSD(T), CCSD density, CASPT2, CASPT2-K
   Simone Kossmann        : Meta GGA functionals, TD-DFT gradient, OOMP2, MP2 Hessian
   Martin Krupicka        : Initial AUTO-CI
   Lucas Lang             : DCDCAS
   Marvin Lechner         : AUTO-CI (C++ implementation), FIC-MRCC
   Dagmar Lenk            : GEPOL surface, SMD
   Dimitrios Liakos       : Extrapolation schemes; Compound Job, initial MDCI parallelization
   Dimitrios Manganas     : Further ROCIS development; embedding schemes
   Dimitrios Pantazis     : SARC Basis sets
   Anastasios Papadopoulos: AUTO-CI, single reference methods and gradients
   Taras Petrenko         : DFT Hessian,TD-DFT gradient, ASA, ECA, R-Raman, ABS, FL, XAS/XES, NRVS
   Peter Pinski           : DLPNO-MP2, DLPNO-MP2 Gradient
   Christoph Reimann      : Effective Core Potentials
   Marius Retegan         : Local ZFS, SOC
   Christoph Riplinger    : Optimizer, TS searches, QM/MM, DLPNO-CCSD(T), (RO)-DLPNO pert. Triples
   Tobias Risthaus        : Range-separated hybrids, TD-DFT gradient, RPA, STAB
   Michael Roemelt        : Original ROCIS implementation
   Masaaki Saitow         : Open-shell DLPNO-CCSD energy and density
   Barbara Sandhoefer     : DKH picture change effects
   Avijit Sen             : IP-ROCIS
   Kantharuban Sivalingam : CASSCF convergence, NEVPT2, FIC-MRCI
   Bernardo de Souza      : ESD, SOC TD-DFT
   Georgi Stoychev        : AutoAux, RI-MP2 NMR
   Willem Van den Heuvel  : Paramagnetic NMR
   Boris Wezisla          : Elementary symmetry handling
   Frank Wennmohs         : Technical directorship


 We gratefully acknowledge several colleagues who have allowed us to
 interface, adapt or use parts of their codes:
   Stefan Grimme, W. Hujo, H. Kruse, P. Pracht,  : VdW corrections, initial TS optimization,
                  C. Bannwarth, S. Ehlert          DFT functionals, gCP, sTDA/sTD-DF
   Ed Valeev, F. Pavosevic, A. Kumar             : LibInt (2-el integral package), F12 methods
   Garnet Chan, S. Sharma, J. Yang, R. Olivares  : DMRG
   Ulf Ekstrom                                   : XCFun DFT Library
   Mihaly Kallay                                 : mrcc  (arbitrary order and MRCC methods)
   Jiri Pittner, Ondrej Demel                    : Mk-CCSD
   Frank Weinhold                                : gennbo (NPA and NBO analysis)
   Christopher J. Cramer and Donald G. Truhlar   : smd solvation model
   Lars Goerigk                                  : TD-DFT with DH, B97 family of functionals
   V. Asgeirsson, H. Jonsson                     : NEB implementation
   FAccTs GmbH                                   : IRC, NEB, NEB-TS, DLPNO-Multilevel, CI-OPT
                                                   MM, QMMM, 2- and 3-layer-ONIOM, Crystal-QMMM,
                                                   LR-CPCM, SF, NACMEs, symmetry and pop. for TD-DFT,
                                                   nearIR, NL-DFT gradient (VV10), updates on ESD,
                                                   ML-optimized integration grids
   S Lehtola, MJT Oliveira, MAL Marques          : LibXC Library
   Liviu Ungur et al                             : ANISO software


 Your calculation uses the libint2 library for the computation of 2-el integrals
 For citations please refer to: http://libint.valeyev.net

 Your ORCA version has been built with support for libXC version: 5.1.0
 For citations please refer to: https://tddft.org/programs/libxc/

 This ORCA versions uses:
   CBLAS   interface :  Fast vector & matrix operations
   LAPACKE interface :  Fast linear algebra routines
   SCALAPACK package :  Parallel linear algebra routines
   Shared memory     :  Shared parallel matrices
   BLAS/LAPACK       :  OpenBLAS 0.3.15  USE64BITINT DYNAMIC_ARCH NO_AFFINITY Haswell SINGLE_THREADED
        Core in use  :  Haswell
   Copyright (c) 2011-2014, The OpenBLAS Project


XCFun DFT library Copyright 2009-2010 Ulf Ekstrom and contributors.
See http://admol.org/xcfun for more information.
This is free software; see the source code for copying conditions.
There is ABSOLUTELY NO WARRANTY; not even for MERCHANTABILITY or FITNESS FOR A PARTICULAR PURPOSE.
For details see the documentation.
Scientific users of this library should cite U. Ekstrom, L. Visscher, R. Bast, A. J. Thorvaldsen and K. Ruud;
J.Chem.Theor.Comp. 2010, DOI: 10.1021/ct100117s
XCFun Version 0.99 

================================================================================

----- Orbital basis set information -----
Your calculation utilizes the basis: def2-SVPD
   F. Weigend and R. Ahlrichs, Phys. Chem. Chem. Phys. 7, 3297 (2005).
   D. Rappoport and F. Furche, J. Chem. Phys. 133 134105 (2010).

----- AuxJ basis set information -----
Your calculation utilizes the auxiliary basis: def2/J
   F. Weigend, Phys. Chem. Chem. Phys. 8, 1057 (2006).

================================================================================
                                        WARNINGS
                       Please study these warnings very carefully!
================================================================================


INFO   : the flag for use of the SHARK integral package has been found!

================================================================================
                                       INPUT FILE
================================================================================
NAME = SVPD_CAMB3LYP_C1_wt_dlpno_neg.com
|  1> !CAM-B3LYP RIJCOSX def2-SVPD def2/J TightSCF
|  2> *xyz 0 1
|  3> C         -0.87096        0.24804       -2.66280
|  4> C         -0.47749        0.60819       -4.10105
|  5> H          0.20677        1.45830       -4.11875
|  6> H         -1.36844        0.92942       -4.64785
|  7> C          0.18467       -0.50664       -4.91676
|  8> F         -0.15869       -1.70109       -4.65798
|  9> O          1.05594       -0.17441       -5.74037
| 10> H         -1.54056       -0.58646       -2.67455
| 11> H         -1.35339        1.08600       -2.20455
| 12> H          0.00660       -0.00662       -2.10609
| 13> *
| 14> 
| 15> %MaxCore 64000
| 16> 
| 17> %pal nprocs 4
| 18> end  
| 19> 
| 20> %scf
| 21>   MaxIter 150
| 22> end
| 23> 
| 24> 
| 25>                          ****END OF INPUT****
================================================================================

                       ****************************
                       * Single Point Calculation *
                       ****************************

---------------------------------
CARTESIAN COORDINATES (ANGSTROEM)
---------------------------------
  C     -0.870960    0.248040   -2.662800
  C     -0.477490    0.608190   -4.101050
  H      0.206770    1.458300   -4.118750
  H     -1.368440    0.929420   -4.647850
  C      0.184670   -0.506640   -4.916760
  F     -0.158690   -1.701090   -4.657980
  O      1.055940   -0.174410   -5.740370
  H     -1.540560   -0.586460   -2.674550
  H     -1.353390    1.086000   -2.204550
  H      0.006600   -0.006620   -2.106090

----------------------------
CARTESIAN COORDINATES (A.U.)
----------------------------
  NO LB      ZA    FRAG     MASS         X           Y           Z
   0 C     6.0000    0    12.011   -1.645876    0.468728   -5.031963
   1 C     6.0000    0    12.011   -0.902325    1.149313   -7.749861
   2 H     1.0000    0     1.008    0.390739    2.755788   -7.783310
   3 H     1.0000    0     1.008   -2.585977    1.756349   -8.783164
   4 C     6.0000    0    12.011    0.348976   -0.957411   -9.291330
   5 F     9.0000    0    18.998   -0.299881   -3.214594   -8.802307
   6 O     8.0000    0    15.999    1.995437   -0.329587  -10.847727
   7 H     1.0000    0     1.008   -2.911236   -1.108249   -5.054167
   8 H     1.0000    0     1.008   -2.557536    2.052243   -4.165996
   9 H     1.0000    0     1.008    0.012472   -0.012510   -3.979933

--------------------------------
INTERNAL COORDINATES (ANGSTROEM)
--------------------------------
 C      0   0   0     0.000000000000     0.00000000     0.00000000
 C      1   0   0     1.533978398120     0.00000000     0.00000000
 H      2   1   0     1.091426612146   111.03194629     0.00000000
 H      2   1   3     1.093604524223   109.19524702   243.60560484
 C      2   1   3     1.531889225303   116.05717792   122.04169196
 F      5   2   1     1.269477837735   117.34060562    31.12046858
 O      5   2   1     1.244114792895   117.44393262   214.04945783
 H      1   2   3     1.069996482471   109.47107572   179.99941746
 H      1   2   3     1.070004078964   109.47075608    60.00022000
 H      1   2   3     1.069994996857   109.47099921   299.99993776

---------------------------
INTERNAL COORDINATES (A.U.)
---------------------------
 C      0   0   0     0.000000000000     0.00000000     0.00000000
 C      1   0   0     2.898799067799     0.00000000     0.00000000
 H      2   1   0     2.062497392229   111.03194629     0.00000000
 H      2   1   3     2.066613049598   109.19524702   243.60560484
 C      2   1   3     2.894851103328   116.05717792   122.04169196
 F      5   2   1     2.398965446401   117.34060562    31.12046858
 O      5   2   1     2.351036237732   117.44393262   214.04945783
 H      1   2   3     2.022000316129   109.47107572   179.99941746
 H      1   2   3     2.022014671421   109.47075608    60.00022000
 H      1   2   3     2.021997508727   109.47099921   299.99993776

---------------------
BASIS SET INFORMATION
---------------------
There are 4 groups of distinct atoms

 Group   1 Type C   : 8s4p2d contracted to 4s2p2d pattern {5111/31/11}
 Group   2 Type H   : 4s2p contracted to 2s2p pattern {31/11}
 Group   3 Type F   : 8s5p2d contracted to 4s3p2d pattern {5111/311/11}
 Group   4 Type O   : 8s5p2d contracted to 4s3p2d pattern {5111/311/11}

Atom   0C    basis set group =>   1
Atom   1C    basis set group =>   1
Atom   2H    basis set group =>   2
Atom   3H    basis set group =>   2
Atom   4C    basis set group =>   1
Atom   5F    basis set group =>   3
Atom   6O    basis set group =>   4
Atom   7H    basis set group =>   2
Atom   8H    basis set group =>   2
Atom   9H    basis set group =>   2
---------------------------------
AUXILIARY/J BASIS SET INFORMATION
---------------------------------
There are 4 groups of distinct atoms

 Group   1 Type C   : 12s5p4d2f1g contracted to 6s4p3d1f1g pattern {711111/2111/211/2/1}
 Group   2 Type H   : 5s2p1d contracted to 3s1p1d pattern {311/2/1}
 Group   3 Type F   : 12s5p4d2f1g contracted to 6s4p3d1f1g pattern {711111/2111/211/2/1}
 Group   4 Type O   : 12s5p4d2f1g contracted to 6s4p3d1f1g pattern {711111/2111/211/2/1}

Atom   0C    basis set group =>   1
Atom   1C    basis set group =>   1
Atom   2H    basis set group =>   2
Atom   3H    basis set group =>   2
Atom   4C    basis set group =>   1
Atom   5F    basis set group =>   3
Atom   6O    basis set group =>   4
Atom   7H    basis set group =>   2
Atom   8H    basis set group =>   2
Atom   9H    basis set group =>   2


           ************************************************************
           *        Program running with 4 parallel MPI-processes     *
           *              working on a common directory               *
           ************************************************************
------------------------------------------------------------------------------
                           ORCA GTO INTEGRAL CALCULATION
                           -- RI-GTO INTEGRALS CHOSEN --
------------------------------------------------------------------------------
------------------------------------------------------------------------------
                   ___                                                        
                  /   \      - P O W E R E D   B Y -                         
                 /     \                                                     
                 |  |  |   _    _      __       _____    __    __             
                 |  |  |  | |  | |    /  \     |  _  \  |  |  /  |          
                  \  \/   | |  | |   /    \    | | | |  |  | /  /          
                 / \  \   | |__| |  /  /\  \   | |_| |  |  |/  /          
                |  |  |   |  __  | /  /__\  \  |    /   |      \           
                |  |  |   | |  | | |   __   |  |    \   |  |\   \          
                \     /   | |  | | |  |  |  |  | |\  \  |  | \   \       
                 \___/    |_|  |_| |__|  |__|  |_| \__\ |__|  \__/        
                                                                              
                      - O R C A' S   B I G   F R I E N D -                    
                                      &                                       
                       - I N T E G R A L  F E E D E R -                       
                                                                              
 v1 FN, 2020, v2 2021                                                         
------------------------------------------------------------------------------


Reading SHARK input file SVPD_CAMB3LYP_C1_wt_dlpno_neg.SHARKINP.tmp ... ok
----------------------
SHARK INTEGRAL PACKAGE
----------------------

Number of atoms                             ...     10
Number of basis functions                   ...    146
Number of shells                            ...     62
Maximum angular momentum                    ...      2
Integral batch strategy                     ... SHARK/LIBINT Hybrid
RI-J (if used) integral strategy            ... SPLIT-RIJ (Revised 2003 algorithm where possible)
Printlevel                                  ...      1
Contraction scheme used                     ... SEGMENTED contraction
Coulomb Range Separation                    ... NOT USED
Exchange Range Separation                   ... Long Range
   Mu parameter                             ...  0.330000
   Scaling (regular/separated)              ...  0.190000  0.460000
Finite Nucleus Model                        ... NOT USED
Auxiliary Coulomb fitting basis             ... AVAILABLE
   # of basis functions in Aux-J            ...    300
   # of shells in Aux-J                     ...    100
   Maximum angular momentum in Aux-J        ...      4
Auxiliary J/K fitting basis                 ... NOT available
Auxiliary Correlation fitting basis         ... NOT available
Auxiliary 'external' fitting basis          ... NOT available
Integral threshold                          ...     2.500000e-11
Primitive cut-off                           ...     2.500000e-12
Primitive pair pre-selection threshold      ...     2.500000e-12

Calculating pre-screening integrals         ... done (  0.0 sec) Dimension = 62
Organizing shell pair data                  ... done (  0.0 sec)
Shell pair information
Total number of shell pairs                 ...      1953
Shell pairs after pre-screening             ...      1932
Total number of primitive shell pairs       ...      5333
Primitive shell pairs kept                  ...      4512
          la=0 lb=0:    457 shell pairs
          la=1 lb=0:    652 shell pairs
          la=1 lb=1:    252 shell pairs
          la=2 lb=0:    297 shell pairs
          la=2 lb=1:    219 shell pairs
          la=2 lb=2:     55 shell pairs

Calculating one electron integrals          ... done (  0.0 sec)
Calculating RI/J V-Matrix + Cholesky decomp.... done (  0.0 sec)
Calculating Nuclear repulsion               ... done (  0.0 sec) ENN=    176.286315089136 Eh

SHARK setup successfully completed in   0.2 seconds

Maximum memory used throughout the entire GTOINT-calculation: 8.8 MB


           ************************************************************
           *        Program running with 4 parallel MPI-processes     *
           *              working on a common directory               *
           ************************************************************
-------------------------------------------------------------------------------
                                 ORCA SCF
-------------------------------------------------------------------------------

------------
SCF SETTINGS
------------
Hamiltonian:
 Density Functional     Method          .... DFT(GTOs)
 Exchange Functional    Exchange        .... WB88
 Correlation Functional Correlation     .... LYP
 LDA part of GGA corr.  LDAOpt          .... VWN-5
 Gradients option       PostSCFGGA      .... off
 Hybrid DFT is turned on
   Fraction HF Exchange ScalHFX         ....  0.190000
   Scaling of DF-GGA-X  ScalDFX         ....  0.350000
   Scaling of DF-GGA-C  ScalDFC         ....  0.810000
   Scaling of DF-LDA-C  ScalLDAC        ....  1.000000
   Perturbative correction              ....  0.000000
   Density functional embedding theory  .... OFF
 Long-range corrected/Screened/Range-Separated Hybrid DFT is turned on
   Amount of maximum screened exact exchange              ....  0.460000
   Range separation parameter mu (erf(mu*r12)/r12)        ....  0.330000
 RI-approximation to the Coulomb term is turned on
   Number of AuxJ basis functions       .... 300
   RIJ-COSX (HFX calculated with COS-X)).... on


General Settings:
 Integral files         IntName         .... SVPD_CAMB3LYP_C1_wt_dlpno_neg
 Hartree-Fock type      HFTyp           .... RHF
 Total Charge           Charge          ....    0
 Multiplicity           Mult            ....    1
 Number of Electrons    NEL             ....   40
 Basis Dimension        Dim             ....  146
 Nuclear Repulsion      ENuc            ....    176.2863150891 Eh

Convergence Acceleration:
 DIIS                   CNVDIIS         .... on
   Start iteration      DIISMaxIt       ....    12
   Startup error        DIISStart       ....  0.200000
   # of expansion vecs  DIISMaxEq       ....     5
   Bias factor          DIISBfac        ....   1.050
   Max. coefficient     DIISMaxC        ....  10.000
 Trust-Rad. Augm. Hess. CNVTRAH         .... auto
   Auto Start mean grad. ratio tolernc. ....  1.125000
   Auto Start start iteration           ....    20
   Auto Start num. interpolation iter.  ....    10
   Max. Number of Micro iterations      ....    16
   Max. Number of Macro iterations      .... Maxiter - #DIIS iter
   Number of Davidson start vectors     ....     2
   Converg. threshold I  (grad. norm)   ....   1.000e-05
   Converg. threshold II (energy diff.) ....   1.000e-08
   Grad. Scal. Fac. for Micro threshold ....   0.100
   Minimum threshold for Micro iter.    ....   0.010
   NR start threshold (gradient norm)   ....   0.001
   Initial trust radius                 ....   0.400
   Minimum AH scaling param. (alpha)    ....   1.000
   Maximum AH scaling param. (alpha)    .... 1000.000
   Orbital update algorithm             .... Taylor
   White noise on init. David. guess    .... on
   Maximum white noise                  ....   0.010
   Quad. conv. algorithm                .... NR
 SOSCF                  CNVSOSCF        .... on
   Start iteration      SOSCFMaxIt      ....   150
   Startup grad/error   SOSCFStart      ....  0.003300
 Level Shifting         CNVShift        .... on
   Level shift para.    LevelShift      ....    0.2500
   Turn off err/grad.   ShiftErr        ....    0.0010
 Zerner damping         CNVZerner       .... off
 Static damping         CNVDamp         .... on
   Fraction old density DampFac         ....    0.7000
   Max. Damping (<1)    DampMax         ....    0.9800
   Min. Damping (>=0)   DampMin         ....    0.0000
   Turn off err/grad.   DampErr         ....    0.1000
 Fernandez-Rico         CNVRico         .... off

SCF Procedure:
 Maximum # iterations   MaxIter         ....   150
 SCF integral mode      SCFMode         .... Direct
   Integral package                     .... SHARK and LIBINT hybrid scheme
 Reset frequency        DirectResetFreq ....    20
 Integral Threshold     Thresh          ....  2.500e-11 Eh
 Primitive CutOff       TCut            ....  2.500e-12 Eh

Convergence Tolerance:
 Convergence Check Mode ConvCheckMode   .... Total+1el-Energy
 Convergence forced     ConvForced      .... 0
 Energy Change          TolE            ....  1.000e-08 Eh
 1-El. energy change                    ....  1.000e-05 Eh
 Orbital Gradient       TolG            ....  1.000e-05
 Orbital Rotation angle TolX            ....  1.000e-05
 DIIS Error             TolErr          ....  5.000e-07


Diagonalization of the overlap matrix:
Smallest eigenvalue                        ... 2.083e-04
Time for diagonalization                   ...    0.006 sec
Threshold for overlap eigenvalues          ... 1.000e-08
Number of eigenvalues below threshold      ... 0
Time for construction of square roots      ...    0.004 sec
Total time needed                          ...    0.011 sec

Time for model grid setup =    0.063 sec

------------------------------
INITIAL GUESS: MODEL POTENTIAL
------------------------------
Loading Hartree-Fock densities                     ... done
Calculating cut-offs                               ... done
Initializing the effective Hamiltonian             ... done
Setting up the integral package (SHARK)            ... done
Starting the Coulomb interaction                   ... done (   0.0 sec)
Reading the grid                                   ... done
Mapping shells                                     ... done
Starting the XC term evaluation                    ... done (   0.1 sec)
  promolecular density results
     # of electrons  =     39.996859870
     EX              =    -34.955391890
     EC              =     -1.329329516
     EX+EC           =    -36.284721406
Transforming the Hamiltonian                       ... done (   0.0 sec)
Diagonalizing the Hamiltonian                      ... done (   0.0 sec)
Back transforming the eigenvectors                 ... done (   0.0 sec)
Now organizing SCF variables                       ... done
                      ------------------
                      INITIAL GUESS DONE (   0.2 sec)
                      ------------------
-------------------
DFT GRID GENERATION
-------------------

General Integration Accuracy     IntAcc      ... 4.388
Radial Grid Type                 RadialGrid  ... OptM3 with GC (2021)
Angular Grid (max. ang.)         AngularGrid ... 4 (Lebedev-302)
Angular grid pruning method      GridPruning ... 4 (adaptive)
Weight generation scheme         WeightScheme... Becke
Basis function cutoff            BFCut       ... 1.0000e-11
Integration weight cutoff        WCut        ... 1.0000e-14
Angular grids for H and He will be reduced by one unit
Partially contracted basis set               ... off
Rotationally invariant grid construction     ... off

Total number of grid points                  ...    48178
Total number of batches                      ...      759
Average number of points per batch           ...       63
Average number of grid points per atom       ...     4818
Time for grid setup =    0.310 sec

--------------------
COSX GRID GENERATION
--------------------

GRIDX 1
-------
General Integration Accuracy     IntAcc      ... 3.816
Radial Grid Type                 RadialGrid  ... OptM3 with GC (2021)
Angular Grid (max. ang.)         AngularGrid ... 1 (Lebedev-50)
Angular grid pruning method      GridPruning ... 4 (adaptive)
Weight generation scheme         WeightScheme... Becke
Basis function cutoff            BFCut       ... 1.0000e-11
Integration weight cutoff        WCut        ... 1.0000e-14
Angular grids for H and He will be reduced by one unit
Partially contracted basis set               ... on
Rotationally invariant grid construction     ... off

Total number of grid points                  ...     6039
Total number of batches                      ...      100
Average number of points per batch           ...       60
Average number of grid points per atom       ...      604
UseSFitting                                  ... on

GRIDX 2
-------
General Integration Accuracy     IntAcc      ... 4.020
Radial Grid Type                 RadialGrid  ... OptM3 with GC (2021)
Angular Grid (max. ang.)         AngularGrid ... 2 (Lebedev-110)
Angular grid pruning method      GridPruning ... 4 (adaptive)
Weight generation scheme         WeightScheme... Becke
Basis function cutoff            BFCut       ... 1.0000e-11
Integration weight cutoff        WCut        ... 1.0000e-14
Angular grids for H and He will be reduced by one unit
Partially contracted basis set               ... on
Rotationally invariant grid construction     ... off

Total number of grid points                  ...    14246
Total number of batches                      ...      228
Average number of points per batch           ...       62
Average number of grid points per atom       ...     1425
UseSFitting                                  ... on

GRIDX 3
-------
General Integration Accuracy     IntAcc      ... 4.338
Radial Grid Type                 RadialGrid  ... OptM3 with GC (2021)
Angular Grid (max. ang.)         AngularGrid ... 3 (Lebedev-194)
Angular grid pruning method      GridPruning ... 4 (adaptive)
Weight generation scheme         WeightScheme... Becke
Basis function cutoff            BFCut       ... 1.0000e-11
Integration weight cutoff        WCut        ... 1.0000e-14
Angular grids for H and He will be reduced by one unit
Partially contracted basis set               ... on
Rotationally invariant grid construction     ... off

Total number of grid points                  ...    32203
Total number of batches                      ...      507
Average number of points per batch           ...       63
Average number of grid points per atom       ...     3220
UseSFitting                                  ... on

Time for X-Grid setup             =    0.287 sec

--------------
SCF ITERATIONS
--------------
ITER       Energy         Delta-E        Max-DP      RMS-DP      [F,P]     Damp
               ***  Starting incremental Fock matrix formation  ***
  0   -291.9024951000   0.000000000000 0.07960198  0.00261816  0.2451758 0.7000
  1   -291.9855027284  -0.083007628485 0.04823582  0.00159650  0.0934890 0.7000
                               ***Turning on DIIS***
  2   -292.0170094353  -0.031506706890 0.07647118  0.00272186  0.0437784 0.0000
  3   -292.0719161099  -0.054906674574 0.04166921  0.00125778  0.0563960 0.0000
  4   -292.0810377012  -0.009121591269 0.01275411  0.00033221  0.0163895 0.0000
  5   -292.0816642241  -0.000626522897 0.00289092  0.00009371  0.0042576 0.0000
                      *** Initiating the SOSCF procedure ***
                           *** Shutting down DIIS ***
                      *** Re-Reading the Fockian *** 
                      *** Removing any level shift *** 
ITER      Energy       Delta-E        Grad      Rot      Max-DP    RMS-DP
  6   -292.08169624  -0.0000320161  0.000519  0.000519  0.003032  0.000057
               *** Restarting incremental Fock matrix formation ***
  7   -292.08174867  -0.0000524290  0.000129  0.000202  0.001203  0.000031
  8   -292.08174858   0.0000000861  0.000277  0.000306  0.000343  0.000010
  9   -292.08174955  -0.0000009624  0.000038  0.000065  0.000253  0.000005
 10   -292.08174954   0.0000000099  0.000047  0.000048  0.000107  0.000002
 11   -292.08174958  -0.0000000405  0.000004  0.000005  0.000020  0.000001
 12   -292.08174958  -0.0000000006  0.000003  0.000002  0.000012  0.000000
                  ***Gradient check signals convergence***
              ***Rediagonalizing the Fockian in SOSCF/NRSCF***

               *****************************************************
               *                     SUCCESS                       *
               *           SCF CONVERGED AFTER  13 CYCLES          *
               *****************************************************

Old exchange energy                            =     -9.907284427 Eh
New exchange energy                            =     -9.907289503 Eh
Exchange energy change after final integration =     -0.000005076 Eh
Total energy after final integration           =   -292.081754653 Eh
Final COS-X integration done in                =     2.587 sec

----------------
TOTAL SCF ENERGY
----------------

Total Energy       :         -292.08175465 Eh           -7947.94861 eV

Components:
Nuclear Repulsion  :          176.28631509 Eh            4796.99451 eV
Electronic Energy  :         -468.36806974 Eh          -12744.94312 eV
One Electron Energy:         -748.22067979 Eh          -20360.11979 eV
Two Electron Energy:          279.85261004 Eh            7615.17667 eV
Max COSX asymmetry :            0.00000351 Eh               0.00010 eV

Virial components:
Potential Energy   :         -581.53127513 Eh          -15824.27049 eV
Kinetic Energy     :          289.44952048 Eh            7876.32188 eV
Virial Ratio       :            2.00909393


DFT components:
N(Alpha)           :       20.000054040574 electrons
N(Beta)            :       20.000054040574 electrons
N(Total)           :       40.000108081148 electrons
E(XC)              :      -27.095055020779 Eh       
DFET-embed. en.    :        0.000000000000 Eh       

---------------
SCF CONVERGENCE
---------------

  Last Energy change         ...   -7.0628e-10  Tolerance :   1.0000e-08
  Last MAX-Density change    ...    2.2204e-15  Tolerance :   1.0000e-07
  Last RMS-Density change    ...    3.9271e-17  Tolerance :   5.0000e-09
  Last Orbital Gradient      ...    1.8795e-07  Tolerance :   1.0000e-05
  Last Orbital Rotation      ...    5.7012e-07  Tolerance :   1.0000e-05

             **** THE GBW FILE WAS UPDATED (SVPD_CAMB3LYP_C1_wt_dlpno_neg.gbw) ****
             **** DENSITY SVPD_CAMB3LYP_C1_wt_dlpno_neg.scfp WAS UPDATED ****
             **** ENERGY FILE WAS UPDATED (SVPD_CAMB3LYP_C1_wt_dlpno_neg.en.tmp) ****
             **** THE GBW FILE WAS UPDATED (SVPD_CAMB3LYP_C1_wt_dlpno_neg.gbw) ****
             **** DENSITY SVPD_CAMB3LYP_C1_wt_dlpno_neg.scfp WAS UPDATED ****
----------------
ORBITAL ENERGIES
----------------

  NO   OCC          E(Eh)            E(eV) 
   0   2.0000     -24.844237      -676.0460 
   1   2.0000     -19.228672      -523.2388 
   2   2.0000     -10.447492      -284.2907 
   3   2.0000     -10.294802      -280.1358 
   4   2.0000     -10.269610      -279.4503 
   5   2.0000      -1.382813       -37.6282 
   6   2.0000      -1.117465       -30.4078 
   7   2.0000      -0.882388       -24.0110 
   8   2.0000      -0.761935       -20.7333 
   9   2.0000      -0.720445       -19.6043 
  10   2.0000      -0.627206       -17.0671 
  11   2.0000      -0.619572       -16.8594 
  12   2.0000      -0.571159       -15.5420 
  13   2.0000      -0.540960       -14.7203 
  14   2.0000      -0.506773       -13.7900 
  15   2.0000      -0.476524       -12.9669 
  16   2.0000      -0.459999       -12.5172 
  17   2.0000      -0.448962       -12.2169 
  18   2.0000      -0.420784       -11.4501 
  19   2.0000      -0.366689        -9.9781 
  20   0.0000       0.016423         0.4469 
  21   0.0000       0.039088         1.0636 
  22   0.0000       0.075012         2.0412 
  23   0.0000       0.082517         2.2454 
  24   0.0000       0.103782         2.8240 
  25   0.0000       0.127591         3.4719 
  26   0.0000       0.136224         3.7069 
  27   0.0000       0.139474         3.7953 
  28   0.0000       0.152444         4.1482 
  29   0.0000       0.153566         4.1787 
  30   0.0000       0.172352         4.6899 
  31   0.0000       0.187061         5.0902 
  32   0.0000       0.194314         5.2875 
  33   0.0000       0.206439         5.6175 
  34   0.0000       0.212530         5.7832 
  35   0.0000       0.224318         6.1040 
  36   0.0000       0.231674         6.3042 
  37   0.0000       0.255434         6.9507 
  38   0.0000       0.281717         7.6659 
  39   0.0000       0.283707         7.7201 
  40   0.0000       0.297231         8.0881 
  41   0.0000       0.316219         8.6048 
  42   0.0000       0.340494         9.2653 
  43   0.0000       0.355602         9.6764 
  44   0.0000       0.364824         9.9274 
  45   0.0000       0.370828        10.0907 
  46   0.0000       0.379640        10.3305 
  47   0.0000       0.385165        10.4809 
  48   0.0000       0.388477        10.5710 
  49   0.0000       0.401674        10.9301 
  50   0.0000       0.414646        11.2831 
  51   0.0000       0.415852        11.3159 
  52   0.0000       0.430746        11.7212 
  53   0.0000       0.431741        11.7483 
  54   0.0000       0.448803        12.2126 
  55   0.0000       0.455635        12.3985 
  56   0.0000       0.473110        12.8740 
  57   0.0000       0.490731        13.3535 
  58   0.0000       0.494744        13.4627 
  59   0.0000       0.502533        13.6746 
  60   0.0000       0.509568        13.8661 
  61   0.0000       0.525363        14.2959 
  62   0.0000       0.530760        14.4427 
  63   0.0000       0.558032        15.1848 
  64   0.0000       0.569168        15.4879 
  65   0.0000       0.577777        15.7221 
  66   0.0000       0.581260        15.8169 
  67   0.0000       0.592464        16.1218 
  68   0.0000       0.599773        16.3207 
  69   0.0000       0.623933        16.9781 
  70   0.0000       0.667684        18.1686 
  71   0.0000       0.686864        18.6905 
  72   0.0000       0.700578        19.0637 
  73   0.0000       0.733122        19.9493 
  74   0.0000       0.740405        20.1474 
  75   0.0000       0.781164        21.2566 
  76   0.0000       0.789755        21.4903 
  77   0.0000       0.798135        21.7183 
  78   0.0000       0.812843        22.1186 
  79   0.0000       0.849420        23.1139 
  80   0.0000       0.873339        23.7648 
  81   0.0000       0.888833        24.1864 
  82   0.0000       0.946194        25.7473 
  83   0.0000       0.949171        25.8283 
  84   0.0000       0.971061        26.4239 
  85   0.0000       1.012882        27.5619 
  86   0.0000       1.031361        28.0648 
  87   0.0000       1.052021        28.6269 
  88   0.0000       1.054995        28.7079 
  89   0.0000       1.074403        29.2360 
  90   0.0000       1.117892        30.4194 
  91   0.0000       1.154987        31.4288 
  92   0.0000       1.176052        32.0020 
  93   0.0000       1.190854        32.4048 
  94   0.0000       1.247972        33.9590 
  95   0.0000       1.306205        35.5436 
  96   0.0000       1.320276        35.9265 
  97   0.0000       1.401156        38.1274 
  98   0.0000       1.552386        42.2426 
  99   0.0000       1.587639        43.2018 
 100   0.0000       1.606528        43.7159 
 101   0.0000       1.629472        44.3402 
 102   0.0000       1.648875        44.8682 
 103   0.0000       1.703165        46.3455 
 104   0.0000       1.731269        47.1102 
 105   0.0000       1.751707        47.6664 
 106   0.0000       1.755922        47.7811 
 107   0.0000       1.820049        49.5260 
 108   0.0000       1.853131        50.4263 
 109   0.0000       1.899632        51.6916 
 110   0.0000       1.918345        52.2008 
 111   0.0000       1.945194        52.9314 
 112   0.0000       1.958352        53.2895 
 113   0.0000       2.001626        54.4670 
 114   0.0000       2.055886        55.9435 
 115   0.0000       2.067783        56.2672 
 116   0.0000       2.108999        57.3888 
 117   0.0000       2.128484        57.9190 
 118   0.0000       2.164839        58.9083 
 119   0.0000       2.222105        60.4666 
 120   0.0000       2.235446        60.8296 
 121   0.0000       2.281572        62.0847 
 122   0.0000       2.346725        63.8576 
 123   0.0000       2.367582        64.4252 
 124   0.0000       2.429092        66.0990 
 125   0.0000       2.535767        69.0017 
 126   0.0000       2.566609        69.8410 
 127   0.0000       2.599444        70.7345 
 128   0.0000       2.637894        71.7807 
 129   0.0000       2.723308        74.1050 
 130   0.0000       2.751702        74.8776 
 131   0.0000       2.934310        79.8466 
 132   0.0000       2.946221        80.1708 
 133   0.0000       2.978882        81.0595 
 134   0.0000       3.097631        84.2908 
 135   0.0000       3.119141        84.8761 
 136   0.0000       3.147816        85.6564 
 137   0.0000       3.193827        86.9084 
 138   0.0000       3.232476        87.9601 
 139   0.0000       3.295956        89.6875 
 140   0.0000       3.399757        92.5121 
 141   0.0000       3.434764        93.4647 
 142   0.0000       3.546594        96.5077 
 143   0.0000       3.623460        98.5994 
 144   0.0000       3.819001       103.9203 
 145   0.0000       4.139125       112.6313 

                    ********************************
                    * MULLIKEN POPULATION ANALYSIS *
                    ********************************

-----------------------
MULLIKEN ATOMIC CHARGES
-----------------------
   0 C :    0.854719
   1 C :   -0.256580
   2 H :   -0.086253
   3 H :   -0.024141
   4 C :    0.665843
   5 F :   -0.386775
   6 O :   -0.419405
   7 H :   -0.103512
   8 H :   -0.133782
   9 H :   -0.110114
Sum of atomic charges:   -0.0000000

--------------------------------
MULLIKEN REDUCED ORBITAL CHARGES
--------------------------------
  0 C s       :     2.368606  s :     2.368606
      pz      :     0.937830  p :     2.657756
      px      :     0.858902
      py      :     0.861024
      dz2     :     0.040736  d :     0.118919
      dxz     :     0.038115
      dyz     :     0.065749
      dx2y2   :    -0.018705
      dxy     :    -0.006975
  1 C s       :     2.789669  s :     2.789669
      pz      :     1.005881  p :     3.023387
      px      :     1.013231
      py      :     1.004275
      dz2     :     0.087744  d :     0.443524
      dxz     :     0.162456
      dyz     :     0.120609
      dx2y2   :     0.033442
      dxy     :     0.039272
  2 H s       :     1.025321  s :     1.025321
      pz      :    -0.009372  p :     0.060932
      px      :     0.022595
      py      :     0.047709
  3 H s       :     0.998941  s :     0.998941
      pz      :     0.002114  p :     0.025201
      px      :     0.019417
      py      :     0.003669
  4 C s       :     2.860747  s :     2.860747
      pz      :     0.736996  p :     2.234911
      px      :     0.762316
      py      :     0.735600
      dz2     :     0.033885  d :     0.238498
      dxz     :     0.020827
      dyz     :     0.044851
      dx2y2   :     0.057897
      dxy     :     0.081038
  5 F s       :     4.039512  s :     4.039512
      pz      :     1.903644  p :     5.323563
      px      :     1.890430
      py      :     1.529488
      dz2     :     0.003032  d :     0.023700
      dxz     :     0.001994
      dyz     :     0.006857
      dx2y2   :     0.007299
      dxy     :     0.004518
  6 O s       :     3.875181  s :     3.875181
      pz      :     1.370278  p :     4.504327
      px      :     1.336575
      py      :     1.797473
      dz2     :     0.015577  d :     0.039897
      dxz     :     0.005687
      dyz     :     0.006754
      dx2y2   :     0.007708
      dxy     :     0.004171
  7 H s       :     1.072942  s :     1.072942
      pz      :     0.007630  p :     0.030570
      px      :     0.007810
      py      :     0.015130
  8 H s       :     1.111796  s :     1.111796
      pz      :    -0.007346  p :     0.021985
      px      :    -0.016193
      py      :     0.045524
  9 H s       :     1.083631  s :     1.083631
      pz      :     0.010434  p :     0.026483
      px      :     0.054764
      py      :    -0.038715


                     *******************************
                     * LOEWDIN POPULATION ANALYSIS *
                     *******************************

----------------------
LOEWDIN ATOMIC CHARGES
----------------------
   0 C :    0.133533
   1 C :    0.011641
   2 H :    0.034291
   3 H :    0.039984
   4 C :   -0.013107
   5 F :   -0.039135
   6 O :   -0.127509
   7 H :   -0.015737
   8 H :   -0.013625
   9 H :   -0.010336

-------------------------------
LOEWDIN REDUCED ORBITAL CHARGES
-------------------------------
  0 C s       :     2.699952  s :     2.699952
      pz      :     0.893544  p :     2.771051
      px      :     0.939367
      py      :     0.938140
      dz2     :     0.094520  d :     0.395464
      dxz     :     0.111664
      dyz     :     0.095879
      dx2y2   :     0.022430
      dxy     :     0.070971
  1 C s       :     2.687568  s :     2.687568
      pz      :     0.893892  p :     2.706871
      px      :     0.925645
      py      :     0.887334
      dz2     :     0.144901  d :     0.593920
      dxz     :     0.156589
      dyz     :     0.136307
      dx2y2   :     0.060343
      dxy     :     0.095780
  2 H s       :     0.713363  s :     0.713363
      pz      :     0.063253  p :     0.252346
      px      :     0.092839
      py      :     0.096254
  3 H s       :     0.714480  s :     0.714480
      pz      :     0.073241  p :     0.245536
      px      :     0.104464
      py      :     0.067832
  4 C s       :     2.657338  s :     2.657338
      pz      :     0.760124  p :     2.308073
      px      :     0.759280
      py      :     0.788669
      dz2     :     0.182855  d :     1.047696
      dxz     :     0.153665
      dyz     :     0.231150
      dx2y2   :     0.235148
      dxy     :     0.244878
  5 F s       :     3.620156  s :     3.620156
      pz      :     1.808477  p :     5.211209
      px      :     1.798288
      py      :     1.604445
      dz2     :     0.026664  d :     0.207770
      dxz     :     0.012604
      dyz     :     0.052495
      dx2y2   :     0.064238
      dxy     :     0.051769
  6 O s       :     3.471017  s :     3.471017
      pz      :     1.402533  p :     4.453825
      px      :     1.379347
      py      :     1.671945
      dz2     :     0.034517  d :     0.202667
      dxz     :     0.066224
      dyz     :     0.034747
      dx2y2   :     0.032558
      dxy     :     0.034620
  7 H s       :     0.737393  s :     0.737393
      pz      :     0.069402  p :     0.278344
      px      :     0.097213
      py      :     0.111729
  8 H s       :     0.740599  s :     0.740599
      pz      :     0.075708  p :     0.273027
      px      :     0.086096
      py      :     0.111222
  9 H s       :     0.740985  s :     0.740985
      pz      :     0.078357  p :     0.269352
      px      :     0.114991
      py      :     0.076004


                      *****************************
                      * MAYER POPULATION ANALYSIS *
                      *****************************

  NA   - Mulliken gross atomic population
  ZA   - Total nuclear charge
  QA   - Mulliken gross atomic charge
  VA   - Mayer's total valence
  BVA  - Mayer's bonded valence
  FA   - Mayer's free valence

  ATOM       NA         ZA         QA         VA         BVA        FA
  0 C      5.1453     6.0000     0.8547     3.8068     3.8068     0.0000
  1 C      6.2566     6.0000    -0.2566     4.8475     4.8475    -0.0000
  2 H      1.0863     1.0000    -0.0863     1.2083     1.2083    -0.0000
  3 H      1.0241     1.0000    -0.0241     1.0676     1.0676    -0.0000
  4 C      5.3342     6.0000     0.6658     3.8953     3.8953     0.0000
  5 F      9.3868     9.0000    -0.3868     0.9290     0.9290     0.0000
  6 O      8.4194     8.0000    -0.4194     2.0262     2.0262    -0.0000
  7 H      1.1035     1.0000    -0.1035     1.0581     1.0581     0.0000
  8 H      1.1338     1.0000    -0.1338     1.0198     1.0198     0.0000
  9 H      1.1101     1.0000    -0.1101     1.0259     1.0259     0.0000

  Mayer bond orders larger than 0.100000
B(  0-C ,  1-C ) :   1.2845 B(  0-C ,  7-H ) :   0.7808 B(  0-C ,  8-H ) :   0.7633 
B(  0-C ,  9-H ) :   0.7996 B(  1-C ,  2-H ) :   0.9452 B(  1-C ,  3-H ) :   0.8582 
B(  1-C ,  4-C ) :   1.0462 B(  1-C ,  7-H ) :   0.1980 B(  1-C ,  8-H ) :   0.2317 
B(  1-C ,  9-H ) :   0.1830 B(  2-H ,  4-C ) :   0.1493 B(  4-C ,  5-F ) :   0.7619 
B(  4-C ,  6-O ) :   1.8756 B(  5-F ,  6-O ) :   0.1050 

-------
TIMINGS
-------

Total SCF time: 0 days 0 hours 0 min 18 sec 

Total time                  ....      18.693 sec
Sum of individual times     ....      18.535 sec  ( 99.2%)

Fock matrix formation       ....      17.645 sec  ( 94.4%)
  Split-RI-J                ....       0.784 sec  (  4.4% of F)
  Chain of spheres X        ....      14.302 sec  ( 81.1% of F)
  XC integration            ....       2.527 sec  ( 14.3% of F)
    Basis function eval.    ....       0.776 sec  ( 30.7% of XC)
    Density eval.           ....       0.499 sec  ( 19.8% of XC)
    XC-Functional eval.     ....       0.483 sec  ( 19.1% of XC)
    XC-Potential eval.      ....       0.644 sec  ( 25.5% of XC)
Diagonalization             ....       0.042 sec  (  0.2%)
Density matrix formation    ....       0.004 sec  (  0.0%)
Population analysis         ....       0.006 sec  (  0.0%)
Initial guess               ....       0.087 sec  (  0.5%)
Orbital Transformation      ....       0.000 sec  (  0.0%)
Orbital Orthonormalization  ....       0.000 sec  (  0.0%)
DIIS solution               ....       0.063 sec  (  0.3%)
SOSCF solution              ....       0.027 sec  (  0.1%)
Grid generation             ....       0.661 sec  (  3.5%)

Maximum memory used throughout the entire SCF-calculation: 49.5 MB

-------------------------   --------------------
FINAL SINGLE POINT ENERGY      -292.081754653070
-------------------------   --------------------


                            ***************************************
                            *     ORCA property calculations      *
                            ***************************************

                                    ---------------------
                                    Active property flags
                                    ---------------------
   (+) Dipole Moment


------------------------------------------------------------------------------
                       ORCA ELECTRIC PROPERTIES CALCULATION
------------------------------------------------------------------------------

Dipole Moment Calculation                       ... on
Quadrupole Moment Calculation                   ... off
Polarizability Calculation                      ... off
GBWName                                         ... SVPD_CAMB3LYP_C1_wt_dlpno_neg.gbw
Electron density file                           ... SVPD_CAMB3LYP_C1_wt_dlpno_neg.scfp
The origin for moment calculation is the CENTER OF MASS  = (-0.103849, -0.695700 -8.359463)

-------------
DIPOLE MOMENT
-------------
                                X             Y             Z
Electronic contribution:      2.58657      -5.33446      -5.27068
Nuclear contribution   :     -3.42837       5.66737       6.17046
                        -----------------------------------------
Total Dipole Moment    :     -0.84179       0.33291       0.89978
                        -----------------------------------------
Magnitude (a.u.)       :      1.27634
Magnitude (Debye)      :      3.24420



--------------------
Rotational spectrum 
--------------------
 
Rotational constants in cm-1:     0.304660     0.130969     0.097716 
Rotational constants in MHz :  9133.464515  3926.366384  2929.457090 

 Dipole components along the rotational axes: 
x,y,z [a.u.] :     1.244811    -0.141762     0.243711 
x,y,z [Debye]:     3.164059    -0.360332     0.619464 

 

Timings for individual modules:

Sum of individual times         ...       23.030 sec (=   0.384 min)
GTO integral calculation        ...        2.419 sec (=   0.040 min)  10.5 %
SCF iterations                  ...       20.611 sec (=   0.344 min)  89.5 %
                             ****ORCA TERMINATED NORMALLY****
TOTAL RUN TIME: 0 days 0 hours 0 minutes 23 seconds 510 msec
