
                                        *****************
                                        * O   R   C   A *
                                        *****************

                                            #,                                       
                                            ###                                      
                                            ####                                     
                                            #####                                    
                                            ######                                   
                                           ########,                                 
                                     ,,################,,,,,                         
                               ,,#################################,,                 
                          ,,##########################################,,             
                       ,#########################################, ''#####,          
                    ,#############################################,,   '####,        
                  ,##################################################,,,,####,       
                ,###########''''           ''''###############################       
              ,#####''   ,,,,##########,,,,          '''####'''          '####       
            ,##' ,,,,###########################,,,                        '##       
           ' ,,###''''                  '''############,,,                           
         ,,##''                                '''############,,,,        ,,,,,,###''
      ,#''                                            '''#######################'''  
     '                                                          ''''####''''         
             ,#######,   #######,   ,#######,      ##                                
            ,#'     '#,  ##    ##  ,#'     '#,    #''#        ######   ,####,        
            ##       ##  ##   ,#'  ##            #'  '#       #        #'  '#        
            ##       ##  #######   ##           ,######,      #####,   #    #        
            '#,     ,#'  ##    ##  '#,     ,#' ,#      #,         ##   #,  ,#        
             '#######'   ##     ##  '#######'  #'      '#     #####' # '####'        



                  #######################################################
                  #                        -***-                        #
                  #          Department of theory and spectroscopy      #
                  #    Directorship and core code : Frank Neese         #
                  #        Max Planck Institute fuer Kohlenforschung    #
                  #                Kaiser Wilhelm Platz 1               #
                  #                 D-45470 Muelheim/Ruhr               #
                  #                      Germany                        #
                  #                                                     #
                  #                  All rights reserved                #
                  #                        -***-                        #
                  #######################################################


                         Program Version 5.0.0 -  RELEASE  -
                                (SVN: $Rev: 19529$)
                ($Date: 2021-06-28 11:36:33 +0200 (Mo, 28 Jun 2021) $)


 With contributions from (in alphabetic order):
   Daniel Aravena         : Magnetic Suceptibility
   Michael Atanasov       : Ab Initio Ligand Field Theory (pilot matlab implementation)
   Alexander A. Auer      : GIAO ZORA, VPT2 properties, NMR spectrum
   Ute Becker             : Parallelization
   Giovanni Bistoni       : ED, misc. LED, open-shell LED, HFLD
   Martin Brehm           : Molecular dynamics
   Dmytro Bykov           : SCF Hessian
   Vijay G. Chilkuri      : MRCI spin determinant printing, contributions to CSF-ICE
   Dipayan Datta          : RHF DLPNO-CCSD density
   Achintya Kumar Dutta   : EOM-CC, STEOM-CC
   Dmitry Ganyushin       : Spin-Orbit,Spin-Spin,Magnetic field MRCI
   Miquel Garcia          : C-PCM Hessian, Gaussian charge scheme
   Yang Guo               : DLPNO-NEVPT2, F12-NEVPT2, CIM, IAO-localization
   Andreas Hansen         : Spin unrestricted coupled pair/coupled cluster methods
   Benjamin Helmich-Paris : MC-RPA, TRAH-SCF, COSX integrals
   Lee Huntington         : MR-EOM, pCC
   Robert Izsak           : Overlap fitted RIJCOSX, COSX-SCS-MP3, EOM
   Marcus Kettner         : VPT2
   Christian Kollmar      : KDIIS, OOCD, Brueckner-CCSD(T), CCSD density, CASPT2, CASPT2-K
   Simone Kossmann        : Meta GGA functionals, TD-DFT gradient, OOMP2, MP2 Hessian
   Martin Krupicka        : Initial AUTO-CI
   Lucas Lang             : DCDCAS
   Marvin Lechner         : AUTO-CI (C++ implementation), FIC-MRCC
   Dagmar Lenk            : GEPOL surface, SMD
   Dimitrios Liakos       : Extrapolation schemes; Compound Job, initial MDCI parallelization
   Dimitrios Manganas     : Further ROCIS development; embedding schemes
   Dimitrios Pantazis     : SARC Basis sets
   Anastasios Papadopoulos: AUTO-CI, single reference methods and gradients
   Taras Petrenko         : DFT Hessian,TD-DFT gradient, ASA, ECA, R-Raman, ABS, FL, XAS/XES, NRVS
   Peter Pinski           : DLPNO-MP2, DLPNO-MP2 Gradient
   Christoph Reimann      : Effective Core Potentials
   Marius Retegan         : Local ZFS, SOC
   Christoph Riplinger    : Optimizer, TS searches, QM/MM, DLPNO-CCSD(T), (RO)-DLPNO pert. Triples
   Tobias Risthaus        : Range-separated hybrids, TD-DFT gradient, RPA, STAB
   Michael Roemelt        : Original ROCIS implementation
   Masaaki Saitow         : Open-shell DLPNO-CCSD energy and density
   Barbara Sandhoefer     : DKH picture change effects
   Avijit Sen             : IP-ROCIS
   Kantharuban Sivalingam : CASSCF convergence, NEVPT2, FIC-MRCI
   Bernardo de Souza      : ESD, SOC TD-DFT
   Georgi Stoychev        : AutoAux, RI-MP2 NMR
   Willem Van den Heuvel  : Paramagnetic NMR
   Boris Wezisla          : Elementary symmetry handling
   Frank Wennmohs         : Technical directorship


 We gratefully acknowledge several colleagues who have allowed us to
 interface, adapt or use parts of their codes:
   Stefan Grimme, W. Hujo, H. Kruse, P. Pracht,  : VdW corrections, initial TS optimization,
                  C. Bannwarth, S. Ehlert          DFT functionals, gCP, sTDA/sTD-DF
   Ed Valeev, F. Pavosevic, A. Kumar             : LibInt (2-el integral package), F12 methods
   Garnet Chan, S. Sharma, J. Yang, R. Olivares  : DMRG
   Ulf Ekstrom                                   : XCFun DFT Library
   Mihaly Kallay                                 : mrcc  (arbitrary order and MRCC methods)
   Jiri Pittner, Ondrej Demel                    : Mk-CCSD
   Frank Weinhold                                : gennbo (NPA and NBO analysis)
   Christopher J. Cramer and Donald G. Truhlar   : smd solvation model
   Lars Goerigk                                  : TD-DFT with DH, B97 family of functionals
   V. Asgeirsson, H. Jonsson                     : NEB implementation
   FAccTs GmbH                                   : IRC, NEB, NEB-TS, DLPNO-Multilevel, CI-OPT
                                                   MM, QMMM, 2- and 3-layer-ONIOM, Crystal-QMMM,
                                                   LR-CPCM, SF, NACMEs, symmetry and pop. for TD-DFT,
                                                   nearIR, NL-DFT gradient (VV10), updates on ESD,
                                                   ML-optimized integration grids
   S Lehtola, MJT Oliveira, MAL Marques          : LibXC Library
   Liviu Ungur et al                             : ANISO software


 Your calculation uses the libint2 library for the computation of 2-el integrals
 For citations please refer to: http://libint.valeyev.net

 Your ORCA version has been built with support for libXC version: 5.1.0
 For citations please refer to: https://tddft.org/programs/libxc/

 This ORCA versions uses:
   CBLAS   interface :  Fast vector & matrix operations
   LAPACKE interface :  Fast linear algebra routines
   SCALAPACK package :  Parallel linear algebra routines
   Shared memory     :  Shared parallel matrices
   BLAS/LAPACK       :  OpenBLAS 0.3.15  USE64BITINT DYNAMIC_ARCH NO_AFFINITY Haswell SINGLE_THREADED
        Core in use  :  Haswell
   Copyright (c) 2011-2014, The OpenBLAS Project


================================================================================

----- Orbital basis set information -----
Your calculation utilizes the basis: def2-SVPD
   F. Weigend and R. Ahlrichs, Phys. Chem. Chem. Phys. 7, 3297 (2005).
   D. Rappoport and F. Furche, J. Chem. Phys. 133 134105 (2010).

----- AuxJ basis set information -----
Your calculation utilizes the auxiliary basis: def2/J
   F. Weigend, Phys. Chem. Chem. Phys. 8, 1057 (2006).

================================================================================
                                        WARNINGS
                       Please study these warnings very carefully!
================================================================================


INFO   : the flag for use of the SHARK integral package has been found!

================================================================================
                                       INPUT FILE
================================================================================
NAME = 14Feb_SVPD_LC_PBE_A_wt_wb97_typ1_pos.com
|  1> !LC-PBE RIJCOSX def2-SVPD def2/J TightSCF 
|  2> *xyz 1 1 
|  3> C         -4.38262       -1.67089        1.21620
|  4> N         -5.76354       -1.91517        0.70501
|  5> C         -3.28173       -2.19127        0.29436
|  6> H         -5.84081       -2.11520       -0.30065
|  7> H         -6.40882       -1.14866        0.93612
|  8> H         -6.17478       -2.79061        1.05143
|  9> H         -4.32862       -2.13922        2.19810
| 10> H         -4.26158       -0.59740        1.35725
| 11> C         -3.47464       -3.60590       -0.25961
| 12> H         -2.35455       -2.12760        0.87143
| 13> H         -3.16661       -1.49969       -0.54504
| 14> H         -2.64612       -3.85908       -0.88759
| 15> H         -4.37934       -3.64545       -0.82956
| 16> H         -3.53324       -4.30157        0.55126
| 17> *
| 18> %MaxCore 64000
| 19> 
| 20> %pal nprocs 4
| 21> end  
| 22> 
| 23> %scf
| 24>   MaxIter 150
| 25> end
| 26> 
| 27>                          ****END OF INPUT****
================================================================================

                       ****************************
                       * Single Point Calculation *
                       ****************************

---------------------------------
CARTESIAN COORDINATES (ANGSTROEM)
---------------------------------
  C     -4.382620   -1.670890    1.216200
  N     -5.763540   -1.915170    0.705010
  C     -3.281730   -2.191270    0.294360
  H     -5.840810   -2.115200   -0.300650
  H     -6.408820   -1.148660    0.936120
  H     -6.174780   -2.790610    1.051430
  H     -4.328620   -2.139220    2.198100
  H     -4.261580   -0.597400    1.357250
  C     -3.474640   -3.605900   -0.259610
  H     -2.354550   -2.127600    0.871430
  H     -3.166610   -1.499690   -0.545040
  H     -2.646120   -3.859080   -0.887590
  H     -4.379340   -3.645450   -0.829560
  H     -3.533240   -4.301570    0.551260

----------------------------
CARTESIAN COORDINATES (A.U.)
----------------------------
  NO LB      ZA    FRAG     MASS         X           Y           Z
   0 C     6.0000    0    12.011   -8.281952   -3.157524    2.298285
   1 N     7.0000    0    14.007  -10.891512   -3.619147    1.332276
   2 C     6.0000    0    12.011   -6.201571   -4.140900    0.556260
   3 H     1.0000    0     1.008  -11.037531   -3.997149   -0.568146
   4 H     1.0000    0     1.008  -12.110915   -2.170653    1.769010
   5 H     1.0000    0     1.008  -11.668643   -5.273489    1.986915
   6 H     1.0000    0     1.008   -8.179906   -4.042540    4.153807
   7 H     1.0000    0     1.008   -8.053219   -1.128922    2.564831
   8 C     6.0000    0    12.011   -6.566118   -6.814163   -0.490592
   9 H     1.0000    0     1.008   -4.449455   -4.020581    1.646764
  10 H     1.0000    0     1.008   -5.984026   -2.834003   -1.029976
  11 H     1.0000    0     1.008   -5.000442   -7.292604   -1.677302
  12 H     1.0000    0     1.008   -8.275753   -6.888902   -1.567641
  13 H     1.0000    0     1.008   -6.676856   -8.128789    1.041730

--------------------------------
INTERNAL COORDINATES (ANGSTROEM)
--------------------------------
 C      0   0   0     0.000000000000     0.00000000     0.00000000
 N      1   0   0     1.492624527770     0.00000000     0.00000000
 C      1   2   0     1.527266552407   113.85360497     0.00000000
 H      2   1   3     1.028267810155   115.86843235   341.16556731
 H      2   1   3     1.028268296993   112.43319480   215.56468231
 H      2   1   3     1.027385199232   113.22217752    92.88225232
 H      1   2   3     1.089209162145   106.51311974   237.05794232
 H      1   2   3     1.089461593724   107.96191473   121.80375847
 C      3   1   2     1.531429092678   116.24931624   314.06349839
 H      3   1   2     1.093949910279   105.82535291   190.90525499
 H      3   1   2     1.093676309883   108.88520325    77.12129930
 H      9   3   1     1.070002048222   109.47112998   180.00004385
 H      9   3   1     1.069994997652   109.47130738    60.00009212
 H      9   3   1     1.070000404579   109.47168822   300.00011057

---------------------------
INTERNAL COORDINATES (A.U.)
---------------------------
 C      0   0   0     0.000000000000     0.00000000     0.00000000
 N      1   0   0     2.820651578258     0.00000000     0.00000000
 C      1   2   0     2.886115517547   113.85360497     0.00000000
 H      2   1   3     1.943144553519   115.86843235   341.16556731
 H      2   1   3     1.943145473510   112.43319480   215.56468231
 H      2   1   3     1.941476660592   113.22217752    92.88225232
 H      1   2   3     2.058307019011   106.51311974   237.05794232
 H      1   2   3     2.058784045564   107.96191473   121.80375847
 C      3   1   2     2.893981578681   116.24931624   314.06349839
 H      3   1   2     2.067265734656   105.82535291   190.90525499
 H      3   1   2     2.066748704837   108.88520325    77.12129930
 H      9   3   1     2.022010833875   109.47112998   180.00004385
 H      9   3   1     2.021997510228   109.47130738    60.00009212
 H      9   3   1     2.022007727840   109.47168822   300.00011057

---------------------
BASIS SET INFORMATION
---------------------
There are 3 groups of distinct atoms

 Group   1 Type C   : 8s4p2d contracted to 4s2p2d pattern {5111/31/11}
 Group   2 Type N   : 8s4p2d contracted to 4s2p2d pattern {5111/31/11}
 Group   3 Type H   : 4s2p contracted to 2s2p pattern {31/11}

Atom   0C    basis set group =>   1
Atom   1N    basis set group =>   2
Atom   2C    basis set group =>   1
Atom   3H    basis set group =>   3
Atom   4H    basis set group =>   3
Atom   5H    basis set group =>   3
Atom   6H    basis set group =>   3
Atom   7H    basis set group =>   3
Atom   8C    basis set group =>   1
Atom   9H    basis set group =>   3
Atom  10H    basis set group =>   3
Atom  11H    basis set group =>   3
Atom  12H    basis set group =>   3
Atom  13H    basis set group =>   3
---------------------------------
AUXILIARY/J BASIS SET INFORMATION
---------------------------------
There are 3 groups of distinct atoms

 Group   1 Type C   : 12s5p4d2f1g contracted to 6s4p3d1f1g pattern {711111/2111/211/2/1}
 Group   2 Type N   : 12s5p4d2f1g contracted to 6s4p3d1f1g pattern {711111/2111/211/2/1}
 Group   3 Type H   : 5s2p1d contracted to 3s1p1d pattern {311/2/1}

Atom   0C    basis set group =>   1
Atom   1N    basis set group =>   2
Atom   2C    basis set group =>   1
Atom   3H    basis set group =>   3
Atom   4H    basis set group =>   3
Atom   5H    basis set group =>   3
Atom   6H    basis set group =>   3
Atom   7H    basis set group =>   3
Atom   8C    basis set group =>   1
Atom   9H    basis set group =>   3
Atom  10H    basis set group =>   3
Atom  11H    basis set group =>   3
Atom  12H    basis set group =>   3
Atom  13H    basis set group =>   3


           ************************************************************
           *        Program running with 4 parallel MPI-processes     *
           *              working on a common directory               *
           ************************************************************
------------------------------------------------------------------------------
                           ORCA GTO INTEGRAL CALCULATION
                           -- RI-GTO INTEGRALS CHOSEN --
------------------------------------------------------------------------------
------------------------------------------------------------------------------
                   ___                                                        
                  /   \      - P O W E R E D   B Y -                         
                 /     \                                                     
                 |  |  |   _    _      __       _____    __    __             
                 |  |  |  | |  | |    /  \     |  _  \  |  |  /  |          
                  \  \/   | |  | |   /    \    | | | |  |  | /  /          
                 / \  \   | |__| |  /  /\  \   | |_| |  |  |/  /          
                |  |  |   |  __  | /  /__\  \  |    /   |      \           
                |  |  |   | |  | | |   __   |  |    \   |  |\   \          
                \     /   | |  | | |  |  |  |  | |\  \  |  | \   \       
                 \___/    |_|  |_| |__|  |__|  |_| \__\ |__|  \__/        
                                                                              
                      - O R C A' S   B I G   F R I E N D -                    
                                      &                                       
                       - I N T E G R A L  F E E D E R -                       
                                                                              
 v1 FN, 2020, v2 2021                                                         
------------------------------------------------------------------------------


Reading SHARK input file 14Feb_SVPD_LC_PBE_A_wt_wb97_typ1_pos.SHARKINP.tmp ... ok
----------------------
SHARK INTEGRAL PACKAGE
----------------------

Number of atoms                             ...     14
Number of basis functions                   ...    160
Number of shells                            ...     72
Maximum angular momentum                    ...      2
Integral batch strategy                     ... SHARK/LIBINT Hybrid
RI-J (if used) integral strategy            ... SPLIT-RIJ (Revised 2003 algorithm where possible)
Printlevel                                  ...      1
Contraction scheme used                     ... SEGMENTED contraction
Coulomb Range Separation                    ... NOT USED
Exchange Range Separation                   ... Long Range
   Mu parameter                             ...  0.470000
   Scaling (regular/separated)              ...  0.000000  1.000000
Finite Nucleus Model                        ... NOT USED
Auxiliary Coulomb fitting basis             ... AVAILABLE
   # of basis functions in Aux-J            ...    306
   # of shells in Aux-J                     ...    110
   Maximum angular momentum in Aux-J        ...      4
Auxiliary J/K fitting basis                 ... NOT available
Auxiliary Correlation fitting basis         ... NOT available
Auxiliary 'external' fitting basis          ... NOT available
Integral threshold                          ...     2.500000e-11
Primitive cut-off                           ...     2.500000e-12
Primitive pair pre-selection threshold      ...     2.500000e-12

Calculating pre-screening integrals         ... done (  0.0 sec) Dimension = 72
Organizing shell pair data                  ... done (  0.0 sec)
Shell pair information
Total number of shell pairs                 ...      2628
Shell pairs after pre-screening             ...      2619
Total number of primitive shell pairs       ...      6868
Primitive shell pairs kept                  ...      5985
          la=0 lb=0:    663 shell pairs
          la=1 lb=0:   1003 shell pairs
          la=1 lb=1:    405 shell pairs
          la=2 lb=0:    288 shell pairs
          la=2 lb=1:    224 shell pairs
          la=2 lb=2:     36 shell pairs

Calculating one electron integrals          ... done (  0.0 sec)
Calculating RI/J V-Matrix + Cholesky decomp.... done (  0.0 sec)
Calculating Nuclear repulsion               ... done (  0.0 sec) ENN=    141.968369674479 Eh

SHARK setup successfully completed in   0.2 seconds

Maximum memory used throughout the entire GTOINT-calculation: 8.9 MB


           ************************************************************
           *        Program running with 4 parallel MPI-processes     *
           *              working on a common directory               *
           ************************************************************
-------------------------------------------------------------------------------
                                 ORCA SCF
-------------------------------------------------------------------------------

------------
SCF SETTINGS
------------
Hamiltonian:
 Density Functional     Method          .... DFT(GTOs)
 Exchange Functional    Exchange        .... LC-PBE
 Correlation Functional Correlation     .... PBE
   PBE beta parameter  CBetaPBE         ....  0.066725
 LDA part of GGA corr.  LDAOpt          .... PW91-LDA
 Gradients option       PostSCFGGA      .... off
   Density functional embedding theory  .... OFF
 Long-range corrected/Screened/Range-Separated Hybrid DFT is turned on
   Amount of maximum screened exact exchange              ....  1.000000
   Range separation parameter mu (erf(mu*r12)/r12)        ....  0.470000
   NL short-range parameter             ....  6.400000
 RI-approximation to the Coulomb term is turned on
   Number of AuxJ basis functions       .... 306
   RIJ-COSX (HFX calculated with COS-X)).... on


General Settings:
 Integral files         IntName         .... 14Feb_SVPD_LC_PBE_A_wt_wb97_typ1_pos
 Hartree-Fock type      HFTyp           .... RHF
 Total Charge           Charge          ....    1
 Multiplicity           Mult            ....    1
 Number of Electrons    NEL             ....   34
 Basis Dimension        Dim             ....  160
 Nuclear Repulsion      ENuc            ....    141.9683696745 Eh

Convergence Acceleration:
 DIIS                   CNVDIIS         .... on
   Start iteration      DIISMaxIt       ....    12
   Startup error        DIISStart       ....  0.200000
   # of expansion vecs  DIISMaxEq       ....     5
   Bias factor          DIISBfac        ....   1.050
   Max. coefficient     DIISMaxC        ....  10.000
 Trust-Rad. Augm. Hess. CNVTRAH         .... auto
   Auto Start mean grad. ratio tolernc. ....  1.125000
   Auto Start start iteration           ....    20
   Auto Start num. interpolation iter.  ....    10
   Max. Number of Micro iterations      ....    16
   Max. Number of Macro iterations      .... Maxiter - #DIIS iter
   Number of Davidson start vectors     ....     2
   Converg. threshold I  (grad. norm)   ....   1.000e-05
   Converg. threshold II (energy diff.) ....   1.000e-08
   Grad. Scal. Fac. for Micro threshold ....   0.100
   Minimum threshold for Micro iter.    ....   0.010
   NR start threshold (gradient norm)   ....   0.001
   Initial trust radius                 ....   0.400
   Minimum AH scaling param. (alpha)    ....   1.000
   Maximum AH scaling param. (alpha)    .... 1000.000
   Orbital update algorithm             .... Taylor
   White noise on init. David. guess    .... on
   Maximum white noise                  ....   0.010
   Quad. conv. algorithm                .... NR
 SOSCF                  CNVSOSCF        .... on
   Start iteration      SOSCFMaxIt      ....   150
   Startup grad/error   SOSCFStart      ....  0.003300
 Level Shifting         CNVShift        .... on
   Level shift para.    LevelShift      ....    0.2500
   Turn off err/grad.   ShiftErr        ....    0.0010
 Zerner damping         CNVZerner       .... off
 Static damping         CNVDamp         .... on
   Fraction old density DampFac         ....    0.7000
   Max. Damping (<1)    DampMax         ....    0.9800
   Min. Damping (>=0)   DampMin         ....    0.0000
   Turn off err/grad.   DampErr         ....    0.1000
 Fernandez-Rico         CNVRico         .... off

SCF Procedure:
 Maximum # iterations   MaxIter         ....   150
 SCF integral mode      SCFMode         .... Direct
   Integral package                     .... SHARK and LIBINT hybrid scheme
 Reset frequency        DirectResetFreq ....    20
 Integral Threshold     Thresh          ....  2.500e-11 Eh
 Primitive CutOff       TCut            ....  2.500e-12 Eh

Convergence Tolerance:
 Convergence Check Mode ConvCheckMode   .... Total+1el-Energy
 Convergence forced     ConvForced      .... 0
 Energy Change          TolE            ....  1.000e-08 Eh
 1-El. energy change                    ....  1.000e-05 Eh
 Orbital Gradient       TolG            ....  1.000e-05
 Orbital Rotation angle TolX            ....  1.000e-05
 DIIS Error             TolErr          ....  5.000e-07


Diagonalization of the overlap matrix:
Smallest eigenvalue                        ... 9.170e-05
Time for diagonalization                   ...    0.008 sec
Threshold for overlap eigenvalues          ... 1.000e-08
Number of eigenvalues below threshold      ... 0
Time for construction of square roots      ...    0.005 sec
Total time needed                          ...    0.014 sec

Time for model grid setup =    0.070 sec

------------------------------
INITIAL GUESS: MODEL POTENTIAL
------------------------------
Loading Hartree-Fock densities                     ... done
Calculating cut-offs                               ... done
Initializing the effective Hamiltonian             ... done
Setting up the integral package (SHARK)            ... done
Starting the Coulomb interaction                   ... done (   0.0 sec)
Reading the grid                                   ... done
Mapping shells                                     ... done
Starting the XC term evaluation                    ... done (   0.1 sec)
  promolecular density results
     # of electrons  =     34.991409583
     EX              =    -16.908877634
     EC              =     -1.129701313
     EX+EC           =    -18.038578947
Transforming the Hamiltonian                       ... done (   0.0 sec)
Diagonalizing the Hamiltonian                      ... done (   0.0 sec)
Back transforming the eigenvectors                 ... done (   0.0 sec)
Now organizing SCF variables                       ... done
                      ------------------
                      INITIAL GUESS DONE (   0.2 sec)
                      ------------------
-------------------
DFT GRID GENERATION
-------------------

General Integration Accuracy     IntAcc      ... 4.388
Radial Grid Type                 RadialGrid  ... OptM3 with GC (2021)
Angular Grid (max. ang.)         AngularGrid ... 4 (Lebedev-302)
Angular grid pruning method      GridPruning ... 4 (adaptive)
Weight generation scheme         WeightScheme... Becke
Basis function cutoff            BFCut       ... 1.0000e-11
Integration weight cutoff        WCut        ... 1.0000e-14
Angular grids for H and He will be reduced by one unit
Partially contracted basis set               ... off
Rotationally invariant grid construction     ... off

Total number of grid points                  ...    58200
Total number of batches                      ...      916
Average number of points per batch           ...       63
Average number of grid points per atom       ...     4157
Time for grid setup =    0.332 sec

--------------------
COSX GRID GENERATION
--------------------

GRIDX 1
-------
General Integration Accuracy     IntAcc      ... 3.816
Radial Grid Type                 RadialGrid  ... OptM3 with GC (2021)
Angular Grid (max. ang.)         AngularGrid ... 1 (Lebedev-50)
Angular grid pruning method      GridPruning ... 4 (adaptive)
Weight generation scheme         WeightScheme... Becke
Basis function cutoff            BFCut       ... 1.0000e-11
Integration weight cutoff        WCut        ... 1.0000e-14
Angular grids for H and He will be reduced by one unit
Partially contracted basis set               ... on
Rotationally invariant grid construction     ... off

Total number of grid points                  ...     7277
Total number of batches                      ...      123
Average number of points per batch           ...       59
Average number of grid points per atom       ...      520
UseSFitting                                  ... on

GRIDX 2
-------
General Integration Accuracy     IntAcc      ... 4.020
Radial Grid Type                 RadialGrid  ... OptM3 with GC (2021)
Angular Grid (max. ang.)         AngularGrid ... 2 (Lebedev-110)
Angular grid pruning method      GridPruning ... 4 (adaptive)
Weight generation scheme         WeightScheme... Becke
Basis function cutoff            BFCut       ... 1.0000e-11
Integration weight cutoff        WCut        ... 1.0000e-14
Angular grids for H and He will be reduced by one unit
Partially contracted basis set               ... on
Rotationally invariant grid construction     ... off

Total number of grid points                  ...    15700
Total number of batches                      ...      253
Average number of points per batch           ...       62
Average number of grid points per atom       ...     1121
UseSFitting                                  ... on

GRIDX 3
-------
General Integration Accuracy     IntAcc      ... 4.338
Radial Grid Type                 RadialGrid  ... OptM3 with GC (2021)
Angular Grid (max. ang.)         AngularGrid ... 3 (Lebedev-194)
Angular grid pruning method      GridPruning ... 4 (adaptive)
Weight generation scheme         WeightScheme... Becke
Basis function cutoff            BFCut       ... 1.0000e-11
Integration weight cutoff        WCut        ... 1.0000e-14
Angular grids for H and He will be reduced by one unit
Partially contracted basis set               ... on
Rotationally invariant grid construction     ... off

Total number of grid points                  ...    36197
Total number of batches                      ...      572
Average number of points per batch           ...       63
Average number of grid points per atom       ...     2586
UseSFitting                                  ... on

Time for X-Grid setup             =    0.299 sec

--------------
SCF ITERATIONS
--------------
ITER       Energy         Delta-E        Max-DP      RMS-DP      [F,P]     Damp
               ***  Starting incremental Fock matrix formation  ***
  0   -174.0864500350   0.000000000000 0.11181862  0.00201617  0.0971320 0.7000
  1   -174.1037516816  -0.017301646556 0.11750198  0.00165515  0.0645803 0.7000
                               ***Turning on DIIS***
  2   -174.1144771843  -0.010725502732 0.32919038  0.00409093  0.0392096 0.0000
  3   -174.1366409528  -0.022163768505 0.06690674  0.00084944  0.0234217 0.0000
                      *** Initiating the SOSCF procedure ***
                           *** Shutting down DIIS ***
                      *** Re-Reading the Fockian *** 
                      *** Removing any level shift *** 
ITER      Energy       Delta-E        Grad      Rot      Max-DP    RMS-DP
  4   -174.13832386  -0.0016829046  0.001776  0.001776  0.051697  0.000511
               *** Restarting incremental Fock matrix formation ***
  5   -174.13848143  -0.0001575733  0.000450  0.000674  0.015615  0.000194
  6   -174.13850070  -0.0000192656  0.000198  0.000345  0.006980  0.000086
  7   -174.13850269  -0.0000019890  0.000065  0.000063  0.001484  0.000019
  8   -174.13850298  -0.0000002968  0.000009  0.000009  0.000198  0.000003
  9   -174.13850299  -0.0000000050  0.000005  0.000005  0.000022  0.000001
                  ***Gradient check signals convergence***
              ***Rediagonalizing the Fockian in SOSCF/NRSCF***

               *****************************************************
               *                     SUCCESS                       *
               *           SCF CONVERGED AFTER  10 CYCLES          *
               *****************************************************


----------------
TOTAL SCF ENERGY
----------------

Total Energy       :         -174.13850299 Eh           -4738.54957 eV

Components:
Nuclear Repulsion  :          141.96836967 Eh            3863.15574 eV
Electronic Energy  :         -316.10687266 Eh           -8601.70531 eV
One Electron Energy:         -507.30949516 Eh          -13804.59318 eV
Two Electron Energy:          191.20262250 Eh            5202.88787 eV
Max COSX asymmetry :            0.00000596 Eh               0.00016 eV

Virial components:
Potential Energy   :         -346.29241153 Eh           -9423.09558 eV
Kinetic Energy     :          172.15390854 Eh            4684.54601 eV
Virial Ratio       :            2.01152802


DFT components:
N(Alpha)           :       16.999978250301 electrons
N(Beta)            :       16.999978250301 electrons
N(Total)           :       33.999956500602 electrons
E(X)               :      -17.275446699004 Eh       
E(C)               :       -1.110505616934 Eh       
E(XC)              :      -18.385952315937 Eh       
DFET-embed. en.    :        0.000000000000 Eh       

---------------
SCF CONVERGENCE
---------------

  Last Energy change         ...   -2.0612e-09  Tolerance :   1.0000e-08
  Last MAX-Density change    ...    3.1092e-05  Tolerance :   1.0000e-07
  Last RMS-Density change    ...    3.8423e-07  Tolerance :   5.0000e-09
  Last Orbital Gradient      ...    7.6356e-07  Tolerance :   1.0000e-05
  Last Orbital Rotation      ...    1.5873e-06  Tolerance :   1.0000e-05

             **** THE GBW FILE WAS UPDATED (14Feb_SVPD_LC_PBE_A_wt_wb97_typ1_pos.gbw) ****
             **** DENSITY 14Feb_SVPD_LC_PBE_A_wt_wb97_typ1_pos.scfp WAS UPDATED ****
             **** ENERGY FILE WAS UPDATED (14Feb_SVPD_LC_PBE_A_wt_wb97_typ1_pos.en.tmp) ****
             **** THE GBW FILE WAS UPDATED (14Feb_SVPD_LC_PBE_A_wt_wb97_typ1_pos.gbw) ****
             **** DENSITY 14Feb_SVPD_LC_PBE_A_wt_wb97_typ1_pos.scfp WAS UPDATED ****
----------------
ORBITAL ENERGIES
----------------

  NO   OCC          E(Eh)            E(eV) 
   0   2.0000     -14.560165      -396.2022 
   1   2.0000     -10.375744      -282.3383 
   2   2.0000     -10.305202      -280.4188 
   3   2.0000     -10.275061      -279.5986 
   4   2.0000      -1.376728       -37.4627 
   5   2.0000      -1.144738       -31.1499 
   6   2.0000      -1.053592       -28.6697 
   7   2.0000      -0.949912       -25.8484 
   8   2.0000      -0.940611       -25.5953 
   9   2.0000      -0.916444       -24.9377 
  10   2.0000      -0.832803       -22.6617 
  11   2.0000      -0.778688       -21.1892 
  12   2.0000      -0.748038       -20.3551 
  13   2.0000      -0.720967       -19.6185 
  14   2.0000      -0.660839       -17.9823 
  15   2.0000      -0.654973       -17.8227 
  16   2.0000      -0.634997       -17.2791 
  17   0.0000      -0.105799        -2.8789 
  18   0.0000      -0.054068        -1.4713 
  19   0.0000      -0.047729        -1.2988 
  20   0.0000      -0.036965        -1.0059 
  21   0.0000      -0.011321        -0.3081 
  22   0.0000      -0.002814        -0.0766 
  23   0.0000       0.011987         0.3262 
  24   0.0000       0.023674         0.6442 
  25   0.0000       0.035087         0.9548 
  26   0.0000       0.048044         1.3074 
  27   0.0000       0.055545         1.5115 
  28   0.0000       0.069438         1.8895 
  29   0.0000       0.075956         2.0669 
  30   0.0000       0.080661         2.1949 
  31   0.0000       0.094877         2.5817 
  32   0.0000       0.107393         2.9223 
  33   0.0000       0.114919         3.1271 
  34   0.0000       0.124864         3.3977 
  35   0.0000       0.139973         3.8089 
  36   0.0000       0.160641         4.3713 
  37   0.0000       0.169523         4.6129 
  38   0.0000       0.179892         4.8951 
  39   0.0000       0.205676         5.5967 
  40   0.0000       0.216315         5.8862 
  41   0.0000       0.222438         6.0529 
  42   0.0000       0.225968         6.1489 
  43   0.0000       0.229427         6.2430 
  44   0.0000       0.244990         6.6665 
  45   0.0000       0.255350         6.9484 
  46   0.0000       0.258749         7.0409 
  47   0.0000       0.272924         7.4266 
  48   0.0000       0.282841         7.6965 
  49   0.0000       0.291539         7.9332 
  50   0.0000       0.294412         8.0113 
  51   0.0000       0.297306         8.0901 
  52   0.0000       0.309588         8.4243 
  53   0.0000       0.315452         8.5839 
  54   0.0000       0.328155         8.9296 
  55   0.0000       0.329235         8.9590 
  56   0.0000       0.341346         9.2885 
  57   0.0000       0.357226         9.7206 
  58   0.0000       0.361617         9.8401 
  59   0.0000       0.378712        10.3053 
  60   0.0000       0.387367        10.5408 
  61   0.0000       0.391907        10.6643 
  62   0.0000       0.397162        10.8073 
  63   0.0000       0.406075        11.0499 
  64   0.0000       0.408943        11.1279 
  65   0.0000       0.421275        11.4635 
  66   0.0000       0.426544        11.6068 
  67   0.0000       0.431784        11.7494 
  68   0.0000       0.434791        11.8313 
  69   0.0000       0.441761        12.0209 
  70   0.0000       0.454457        12.3664 
  71   0.0000       0.473785        12.8923 
  72   0.0000       0.479716        13.0537 
  73   0.0000       0.502888        13.6843 
  74   0.0000       0.505417        13.7531 
  75   0.0000       0.522929        14.2296 
  76   0.0000       0.540096        14.6968 
  77   0.0000       0.553118        15.0511 
  78   0.0000       0.563207        15.3256 
  79   0.0000       0.567909        15.4536 
  80   0.0000       0.576508        15.6876 
  81   0.0000       0.611605        16.6426 
  82   0.0000       0.646469        17.5913 
  83   0.0000       0.681594        18.5471 
  84   0.0000       0.818553        22.2740 
  85   0.0000       0.844141        22.9702 
  86   0.0000       0.870373        23.6841 
  87   0.0000       0.886872        24.1330 
  88   0.0000       0.894923        24.3521 
  89   0.0000       0.921051        25.0631 
  90   0.0000       0.930417        25.3179 
  91   0.0000       0.960074        26.1250 
  92   0.0000       0.973343        26.4860 
  93   0.0000       0.982611        26.7382 
  94   0.0000       0.998940        27.1825 
  95   0.0000       1.003033        27.2939 
  96   0.0000       1.017397        27.6848 
  97   0.0000       1.029545        28.0153 
  98   0.0000       1.092226        29.7210 
  99   0.0000       1.120528        30.4911 
 100   0.0000       1.159144        31.5419 
 101   0.0000       1.179822        32.1046 
 102   0.0000       1.222458        33.2648 
 103   0.0000       1.240191        33.7473 
 104   0.0000       1.291690        35.1487 
 105   0.0000       1.318367        35.8746 
 106   0.0000       1.358125        36.9565 
 107   0.0000       1.446177        39.3525 
 108   0.0000       1.495392        40.6917 
 109   0.0000       1.503149        40.9028 
 110   0.0000       1.545898        42.0660 
 111   0.0000       1.569654        42.7124 
 112   0.0000       1.585338        43.1392 
 113   0.0000       1.637414        44.5563 
 114   0.0000       1.657870        45.1129 
 115   0.0000       1.671075        45.4723 
 116   0.0000       1.697108        46.1807 
 117   0.0000       1.749037        47.5937 
 118   0.0000       1.782066        48.4925 
 119   0.0000       1.821164        49.5564 
 120   0.0000       1.836421        49.9716 
 121   0.0000       1.849324        50.3227 
 122   0.0000       1.879325        51.1390 
 123   0.0000       1.886636        51.3380 
 124   0.0000       1.932801        52.5942 
 125   0.0000       1.952021        53.1172 
 126   0.0000       1.964244        53.4498 
 127   0.0000       1.977690        53.8157 
 128   0.0000       2.033012        55.3211 
 129   0.0000       2.052395        55.8485 
 130   0.0000       2.072085        56.3843 
 131   0.0000       2.097485        57.0755 
 132   0.0000       2.140981        58.2591 
 133   0.0000       2.165507        58.9264 
 134   0.0000       2.201376        59.9025 
 135   0.0000       2.216616        60.3172 
 136   0.0000       2.247235        61.1504 
 137   0.0000       2.299929        62.5842 
 138   0.0000       2.333722        63.5038 
 139   0.0000       2.395862        65.1947 
 140   0.0000       2.440868        66.4194 
 141   0.0000       2.446287        66.5669 
 142   0.0000       2.517333        68.5001 
 143   0.0000       2.556799        69.5740 
 144   0.0000       2.588488        70.4363 
 145   0.0000       2.619674        71.2849 
 146   0.0000       2.669863        72.6507 
 147   0.0000       2.681984        72.9805 
 148   0.0000       2.772449        75.4422 
 149   0.0000       2.795480        76.0689 
 150   0.0000       2.869237        78.0759 
 151   0.0000       2.985189        81.2311 
 152   0.0000       3.030103        82.4533 
 153   0.0000       3.056954        83.1840 
 154   0.0000       3.101859        84.4059 
 155   0.0000       3.149214        85.6945 
 156   0.0000       3.153245        85.8041 
 157   0.0000       3.209457        87.3338 
 158   0.0000       3.426324        93.2350 
 159   0.0000       3.456179        94.0474 

                    ********************************
                    * MULLIKEN POPULATION ANALYSIS *
                    ********************************

-----------------------
MULLIKEN ATOMIC CHARGES
-----------------------
   0 C :    0.428783
   1 N :   -0.876078
   2 C :   -0.560892
   3 H :    0.384992
   4 H :    0.391842
   5 H :    0.455937
   6 H :    0.047971
   7 H :    0.071349
   8 C :    0.504935
   9 H :    0.078712
  10 H :    0.038332
  11 H :    0.039234
  12 H :   -0.052803
  13 H :    0.047686
Sum of atomic charges:    1.0000000

--------------------------------
MULLIKEN REDUCED ORBITAL CHARGES
--------------------------------
  0 C s       :     2.700984  s :     2.700984
      pz      :     0.999590  p :     2.710512
      px      :     0.738045
      py      :     0.972877
      dz2     :     0.121368  d :     0.159722
      dxz     :    -0.003544
      dyz     :    -0.027896
      dx2y2   :     0.006634
      dxy     :     0.063160
  1 N s       :     4.097787  s :     4.097787
      pz      :     1.243046  p :     3.692922
      px      :     1.263515
      py      :     1.186361
      dz2     :     0.002520  d :     0.085369
      dxz     :     0.041095
      dyz     :     0.007957
      dx2y2   :     0.009216
      dxy     :     0.024581
  2 C s       :     2.972607  s :     2.972607
      pz      :     1.022484  p :     3.072879
      px      :     0.970856
      py      :     1.079538
      dz2     :     0.063472  d :     0.515406
      dxz     :     0.070002
      dyz     :     0.143457
      dx2y2   :     0.095360
      dxy     :     0.143114
  3 H s       :     0.600529  s :     0.600529
      pz      :    -0.000350  p :     0.014479
      px      :    -0.006687
      py      :     0.021516
  4 H s       :     0.600691  s :     0.600691
      pz      :     0.000304  p :     0.007467
      px      :     0.018258
      py      :    -0.011095
  5 H s       :     0.523150  s :     0.523150
      pz      :     0.006458  p :     0.020912
      px      :     0.004886
      py      :     0.009569
  6 H s       :     0.923340  s :     0.923340
      pz      :     0.037289  p :     0.028689
      px      :     0.000100
      py      :    -0.008700
  7 H s       :     0.916104  s :     0.916104
      pz      :    -0.016316  p :     0.012547
      px      :    -0.009432
      py      :     0.038295
  8 C s       :     2.538351  s :     2.538351
      pz      :     0.965029  p :     2.882913
      px      :     0.948475
      py      :     0.969409
      dz2     :    -0.005918  d :     0.073802
      dxz     :    -0.000259
      dyz     :     0.022255
      dx2y2   :     0.021009
      dxy     :     0.036716
  9 H s       :     0.889010  s :     0.889010
      pz      :     0.002905  p :     0.032279
      px      :     0.037297
      py      :    -0.007924
 10 H s       :     0.934432  s :     0.934432
      pz      :     0.017058  p :     0.027236
      px      :    -0.000623
      py      :     0.010800
 11 H s       :     0.934035  s :     0.934035
      pz      :    -0.006657  p :     0.026731
      px      :     0.038194
      py      :    -0.004806
 12 H s       :     0.968651  s :     0.968651
      pz      :    -0.000471  p :     0.084152
      px      :     0.059256
      py      :     0.025368
 13 H s       :     0.923055  s :     0.923055
      pz      :     0.034177  p :     0.029258
      px      :    -0.028913
      py      :     0.023995


                     *******************************
                     * LOEWDIN POPULATION ANALYSIS *
                     *******************************

----------------------
LOEWDIN ATOMIC CHARGES
----------------------
   0 C :    0.074856
   1 N :    0.316092
   2 C :   -0.070213
   3 H :    0.098722
   4 H :    0.117589
   5 H :    0.114467
   6 H :    0.062381
   7 H :    0.061084
   8 C :    0.115413
   9 H :    0.056763
  10 H :    0.046242
  11 H :    0.017523
  12 H :   -0.018946
  13 H :    0.008027

-------------------------------
LOEWDIN REDUCED ORBITAL CHARGES
-------------------------------
  0 C s       :     2.668843  s :     2.668843
      pz      :     0.926556  p :     2.628828
      px      :     0.750367
      py      :     0.951904
      dz2     :     0.143348  d :     0.627473
      dxz     :     0.134773
      dyz     :     0.069643
      dx2y2   :     0.173302
      dxy     :     0.106407
  1 N s       :     2.883870  s :     2.883870
      pz      :     1.143062  p :     3.414581
      px      :     1.144458
      py      :     1.127062
      dz2     :     0.079473  d :     0.385456
      dxz     :     0.090347
      dyz     :     0.025465
      dx2y2   :     0.071574
      dxy     :     0.118598
  2 C s       :     2.684022  s :     2.684022
      pz      :     0.923514  p :     2.747018
      px      :     0.898433
      py      :     0.925071
      dz2     :     0.089228  d :     0.639173
      dxz     :     0.118603
      dyz     :     0.171016
      dx2y2   :     0.138506
      dxy     :     0.121820
  3 H s       :     0.595893  s :     0.595893
      pz      :     0.150673  p :     0.305385
      px      :     0.073287
      py      :     0.081424
  4 H s       :     0.602707  s :     0.602707
      pz      :     0.068239  p :     0.279704
      px      :     0.099654
      py      :     0.111811
  5 H s       :     0.599604  s :     0.599604
      pz      :     0.080336  p :     0.285930
      px      :     0.078581
      py      :     0.127013
  6 H s       :     0.708129  s :     0.708129
      pz      :     0.103586  p :     0.229489
      px      :     0.047654
      py      :     0.078250
  7 H s       :     0.707858  s :     0.707858
      pz      :     0.062054  p :     0.231058
      px      :     0.047701
      py      :     0.121303
  8 C s       :     2.693860  s :     2.693860
      pz      :     0.951031  p :     2.805015
      px      :     0.944947
      py      :     0.909037
      dz2     :     0.035036  d :     0.385712
      dxz     :     0.071323
      dyz     :     0.111062
      dx2y2   :     0.099462
      dxy     :     0.068830
  9 H s       :     0.701895  s :     0.701895
      pz      :     0.079845  p :     0.241343
      px      :     0.102167
      py      :     0.059331
 10 H s       :     0.713215  s :     0.713215
      pz      :     0.097586  p :     0.240543
      px      :     0.060884
      py      :     0.082073
 11 H s       :     0.717297  s :     0.717297
      pz      :     0.090658  p :     0.265180
      px      :     0.107940
      py      :     0.066582
 12 H s       :     0.732225  s :     0.732225
      pz      :     0.091194  p :     0.286721
      px      :     0.122383
      py      :     0.073145
 13 H s       :     0.726827  s :     0.726827
      pz      :     0.107610  p :     0.265145
      px      :     0.071645
      py      :     0.085891


                      *****************************
                      * MAYER POPULATION ANALYSIS *
                      *****************************

  NA   - Mulliken gross atomic population
  ZA   - Total nuclear charge
  QA   - Mulliken gross atomic charge
  VA   - Mayer's total valence
  BVA  - Mayer's bonded valence
  FA   - Mayer's free valence

  ATOM       NA         ZA         QA         VA         BVA        FA
  0 C      5.5712     6.0000     0.4288     3.8748     3.8748     0.0000
  1 N      7.8761     7.0000    -0.8761     3.0849     3.0849     0.0000
  2 C      6.5609     6.0000    -0.5609     5.1329     5.1329    -0.0000
  3 H      0.6150     1.0000     0.3850     0.7120     0.7120    -0.0000
  4 H      0.6082     1.0000     0.3918     0.7103     0.7103    -0.0000
  5 H      0.5441     1.0000     0.4559     0.6680     0.6680     0.0000
  6 H      0.9520     1.0000     0.0480     1.0739     1.0739     0.0000
  7 H      0.9287     1.0000     0.0713     0.9903     0.9903     0.0000
  8 C      5.4951     6.0000     0.5049     3.9043     3.9043     0.0000
  9 H      0.9213     1.0000     0.0787     1.1356     1.1356     0.0000
 10 H      0.9617     1.0000     0.0383     1.0955     1.0955    -0.0000
 11 H      0.9608     1.0000     0.0392     1.0209     1.0209     0.0000
 12 H      1.0528     1.0000    -0.0528     1.1615     1.1615     0.0000
 13 H      0.9523     1.0000     0.0477     1.0455     1.0455     0.0000

  Mayer bond orders larger than 0.100000
B(  0-C ,  1-N ) :   0.7003 B(  0-C ,  2-C ) :   1.2318 B(  0-C ,  6-H ) :   0.8683 
B(  0-C ,  7-H ) :   0.9180 B(  0-C ,  9-H ) :   0.1140 B(  1-N ,  3-H ) :   0.7024 
B(  1-N ,  4-H ) :   0.7644 B(  1-N ,  5-H ) :   0.7363 B(  2-C ,  6-H ) :   0.1098 
B(  2-C ,  8-C ) :   1.3060 B(  2-C ,  9-H ) :   0.9444 B(  2-C , 10-H ) :   0.9724 
B(  2-C , 11-H ) :   0.1733 B(  2-C , 12-H ) :   0.1410 B(  2-C , 13-H ) :   0.1572 
B(  8-C , 11-H ) :   0.8269 B(  8-C , 12-H ) :   0.8741 B(  8-C , 13-H ) :   0.8307 


-------
TIMINGS
-------

Total SCF time: 0 days 0 hours 0 min 13 sec 

Total time                  ....      13.122 sec
Sum of individual times     ....      12.962 sec  ( 98.8%)

Fock matrix formation       ....      12.075 sec  ( 92.0%)
  Split-RI-J                ....       0.511 sec  (  4.2% of F)
  Chain of spheres X        ....       9.261 sec  ( 76.7% of F)
  XC integration            ....       2.276 sec  ( 18.9% of F)
    Basis function eval.    ....       0.750 sec  ( 32.9% of XC)
    Density eval.           ....       0.510 sec  ( 22.4% of XC)
    XC-Functional eval.     ....       0.219 sec  (  9.6% of XC)
    XC-Potential eval.      ....       0.660 sec  ( 29.0% of XC)
Diagonalization             ....       0.030 sec  (  0.2%)
Density matrix formation    ....       0.002 sec  (  0.0%)
Population analysis         ....       0.006 sec  (  0.0%)
Initial guess               ....       0.103 sec  (  0.8%)
Orbital Transformation      ....       0.000 sec  (  0.0%)
Orbital Orthonormalization  ....       0.000 sec  (  0.0%)
DIIS solution               ....       0.018 sec  (  0.1%)
SOSCF solution              ....       0.026 sec  (  0.2%)
Grid generation             ....       0.701 sec  (  5.3%)

Maximum memory used throughout the entire SCF-calculation: 20.3 MB

-------------------------   --------------------
FINAL SINGLE POINT ENERGY      -174.138502989207
-------------------------   --------------------


                            ***************************************
                            *     ORCA property calculations      *
                            ***************************************

                                    ---------------------
                                    Active property flags
                                    ---------------------
   (+) Dipole Moment


------------------------------------------------------------------------------
                       ORCA ELECTRIC PROPERTIES CALCULATION
------------------------------------------------------------------------------

Dipole Moment Calculation                       ... on
Quadrupole Moment Calculation                   ... off
Polarizability Calculation                      ... off
GBWName                                         ... 14Feb_SVPD_LC_PBE_A_wt_wb97_typ1_pos.gbw
Electron density file                           ... 14Feb_SVPD_LC_PBE_A_wt_wb97_typ1_pos.scfp
The origin for moment calculation is the CENTER OF MASS  = (-8.108331, -4.430199  0.922175)

-------------
DIPOLE MOMENT
-------------
                                X             Y             Z
Electronic contribution:     -1.75884       1.32251       0.79071
Nuclear contribution   :     -0.18358      -0.73024      -0.44649
                        -----------------------------------------
Total Dipole Moment    :     -1.94241       0.59227       0.34422
                        -----------------------------------------
Magnitude (a.u.)       :      2.05967
Magnitude (Debye)      :      5.23527



--------------------
Rotational spectrum 
--------------------
 
Rotational constants in cm-1:     0.423641     0.164544     0.133152 
Rotational constants in MHz : 12700.438743  4932.897948  3991.802402 

 Dipole components along the rotational axes: 
x,y,z [a.u.] :     1.936368    -0.696192    -0.089683 
x,y,z [Debye]:     4.921856    -1.769579    -0.227955 

 

Timings for individual modules:

Sum of individual times         ...       13.731 sec (=   0.229 min)
GTO integral calculation        ...        0.394 sec (=   0.007 min)   2.9 %
SCF iterations                  ...       13.337 sec (=   0.222 min)  97.1 %
                             ****ORCA TERMINATED NORMALLY****
TOTAL RUN TIME: 0 days 0 hours 0 minutes 14 seconds 89 msec
