
                                        *****************
                                        * O   R   C   A *
                                        *****************

                                            #,                                       
                                            ###                                      
                                            ####                                     
                                            #####                                    
                                            ######                                   
                                           ########,                                 
                                     ,,################,,,,,                         
                               ,,#################################,,                 
                          ,,##########################################,,             
                       ,#########################################, ''#####,          
                    ,#############################################,,   '####,        
                  ,##################################################,,,,####,       
                ,###########''''           ''''###############################       
              ,#####''   ,,,,##########,,,,          '''####'''          '####       
            ,##' ,,,,###########################,,,                        '##       
           ' ,,###''''                  '''############,,,                           
         ,,##''                                '''############,,,,        ,,,,,,###''
      ,#''                                            '''#######################'''  
     '                                                          ''''####''''         
             ,#######,   #######,   ,#######,      ##                                
            ,#'     '#,  ##    ##  ,#'     '#,    #''#        ######   ,####,        
            ##       ##  ##   ,#'  ##            #'  '#       #        #'  '#        
            ##       ##  #######   ##           ,######,      #####,   #    #        
            '#,     ,#'  ##    ##  '#,     ,#' ,#      #,         ##   #,  ,#        
             '#######'   ##     ##  '#######'  #'      '#     #####' # '####'        



                  #######################################################
                  #                        -***-                        #
                  #          Department of theory and spectroscopy      #
                  #    Directorship and core code : Frank Neese         #
                  #        Max Planck Institute fuer Kohlenforschung    #
                  #                Kaiser Wilhelm Platz 1               #
                  #                 D-45470 Muelheim/Ruhr               #
                  #                      Germany                        #
                  #                                                     #
                  #                  All rights reserved                #
                  #                        -***-                        #
                  #######################################################


                         Program Version 5.0.0 -  RELEASE  -
                                (SVN: $Rev: 19529$)
                ($Date: 2021-06-28 11:36:33 +0200 (Mo, 28 Jun 2021) $)


 With contributions from (in alphabetic order):
   Daniel Aravena         : Magnetic Suceptibility
   Michael Atanasov       : Ab Initio Ligand Field Theory (pilot matlab implementation)
   Alexander A. Auer      : GIAO ZORA, VPT2 properties, NMR spectrum
   Ute Becker             : Parallelization
   Giovanni Bistoni       : ED, misc. LED, open-shell LED, HFLD
   Martin Brehm           : Molecular dynamics
   Dmytro Bykov           : SCF Hessian
   Vijay G. Chilkuri      : MRCI spin determinant printing, contributions to CSF-ICE
   Dipayan Datta          : RHF DLPNO-CCSD density
   Achintya Kumar Dutta   : EOM-CC, STEOM-CC
   Dmitry Ganyushin       : Spin-Orbit,Spin-Spin,Magnetic field MRCI
   Miquel Garcia          : C-PCM Hessian, Gaussian charge scheme
   Yang Guo               : DLPNO-NEVPT2, F12-NEVPT2, CIM, IAO-localization
   Andreas Hansen         : Spin unrestricted coupled pair/coupled cluster methods
   Benjamin Helmich-Paris : MC-RPA, TRAH-SCF, COSX integrals
   Lee Huntington         : MR-EOM, pCC
   Robert Izsak           : Overlap fitted RIJCOSX, COSX-SCS-MP3, EOM
   Marcus Kettner         : VPT2
   Christian Kollmar      : KDIIS, OOCD, Brueckner-CCSD(T), CCSD density, CASPT2, CASPT2-K
   Simone Kossmann        : Meta GGA functionals, TD-DFT gradient, OOMP2, MP2 Hessian
   Martin Krupicka        : Initial AUTO-CI
   Lucas Lang             : DCDCAS
   Marvin Lechner         : AUTO-CI (C++ implementation), FIC-MRCC
   Dagmar Lenk            : GEPOL surface, SMD
   Dimitrios Liakos       : Extrapolation schemes; Compound Job, initial MDCI parallelization
   Dimitrios Manganas     : Further ROCIS development; embedding schemes
   Dimitrios Pantazis     : SARC Basis sets
   Anastasios Papadopoulos: AUTO-CI, single reference methods and gradients
   Taras Petrenko         : DFT Hessian,TD-DFT gradient, ASA, ECA, R-Raman, ABS, FL, XAS/XES, NRVS
   Peter Pinski           : DLPNO-MP2, DLPNO-MP2 Gradient
   Christoph Reimann      : Effective Core Potentials
   Marius Retegan         : Local ZFS, SOC
   Christoph Riplinger    : Optimizer, TS searches, QM/MM, DLPNO-CCSD(T), (RO)-DLPNO pert. Triples
   Tobias Risthaus        : Range-separated hybrids, TD-DFT gradient, RPA, STAB
   Michael Roemelt        : Original ROCIS implementation
   Masaaki Saitow         : Open-shell DLPNO-CCSD energy and density
   Barbara Sandhoefer     : DKH picture change effects
   Avijit Sen             : IP-ROCIS
   Kantharuban Sivalingam : CASSCF convergence, NEVPT2, FIC-MRCI
   Bernardo de Souza      : ESD, SOC TD-DFT
   Georgi Stoychev        : AutoAux, RI-MP2 NMR
   Willem Van den Heuvel  : Paramagnetic NMR
   Boris Wezisla          : Elementary symmetry handling
   Frank Wennmohs         : Technical directorship


 We gratefully acknowledge several colleagues who have allowed us to
 interface, adapt or use parts of their codes:
   Stefan Grimme, W. Hujo, H. Kruse, P. Pracht,  : VdW corrections, initial TS optimization,
                  C. Bannwarth, S. Ehlert          DFT functionals, gCP, sTDA/sTD-DF
   Ed Valeev, F. Pavosevic, A. Kumar             : LibInt (2-el integral package), F12 methods
   Garnet Chan, S. Sharma, J. Yang, R. Olivares  : DMRG
   Ulf Ekstrom                                   : XCFun DFT Library
   Mihaly Kallay                                 : mrcc  (arbitrary order and MRCC methods)
   Jiri Pittner, Ondrej Demel                    : Mk-CCSD
   Frank Weinhold                                : gennbo (NPA and NBO analysis)
   Christopher J. Cramer and Donald G. Truhlar   : smd solvation model
   Lars Goerigk                                  : TD-DFT with DH, B97 family of functionals
   V. Asgeirsson, H. Jonsson                     : NEB implementation
   FAccTs GmbH                                   : IRC, NEB, NEB-TS, DLPNO-Multilevel, CI-OPT
                                                   MM, QMMM, 2- and 3-layer-ONIOM, Crystal-QMMM,
                                                   LR-CPCM, SF, NACMEs, symmetry and pop. for TD-DFT,
                                                   nearIR, NL-DFT gradient (VV10), updates on ESD,
                                                   ML-optimized integration grids
   S Lehtola, MJT Oliveira, MAL Marques          : LibXC Library
   Liviu Ungur et al                             : ANISO software


 Your calculation uses the libint2 library for the computation of 2-el integrals
 For citations please refer to: http://libint.valeyev.net

 Your ORCA version has been built with support for libXC version: 5.1.0
 For citations please refer to: https://tddft.org/programs/libxc/

 This ORCA versions uses:
   CBLAS   interface :  Fast vector & matrix operations
   LAPACKE interface :  Fast linear algebra routines
   SCALAPACK package :  Parallel linear algebra routines
   Shared memory     :  Shared parallel matrices
   BLAS/LAPACK       :  OpenBLAS 0.3.15  USE64BITINT DYNAMIC_ARCH NO_AFFINITY Haswell SINGLE_THREADED
        Core in use  :  Haswell
   Copyright (c) 2011-2014, The OpenBLAS Project


================================================================================

----- Orbital basis set information -----
Your calculation utilizes the basis: def2-SVPD
   F. Weigend and R. Ahlrichs, Phys. Chem. Chem. Phys. 7, 3297 (2005).
   D. Rappoport and F. Furche, J. Chem. Phys. 133 134105 (2010).

----- AuxJ basis set information -----
Your calculation utilizes the auxiliary basis: def2/J
   F. Weigend, Phys. Chem. Chem. Phys. 8, 1057 (2006).

================================================================================
                                        WARNINGS
                       Please study these warnings very carefully!
================================================================================


INFO   : the flag for use of the SHARK integral package has been found!

================================================================================
                                       INPUT FILE
================================================================================
NAME = 14Feb_SVPD_LC_PBE_A_wt_wb97_typ1_neg.com
|  1> !LC-PBE RIJCOSX def2-SVPD def2/J TightSCF 
|  2> *xyz -1 1
|  3> C         -0.01741        0.08059       -2.77841
|  4> C         -0.90349       -0.87394       -1.98739
|  5> H         -0.50255       -1.89210       -2.08120
|  6> H         -1.91704       -0.89543       -2.40628
|  7> C         -0.96015       -0.52236       -0.48987
|  8> H         -1.69039       -1.20813       -0.02168
|  9> H         -1.41449        0.48633       -0.40668
| 10> O          0.26170       -0.58031        0.13861
| 11> H         -0.01329       -0.20776       -3.80881
| 12> H          0.98025        0.04284       -2.39348
| 13> H         -0.39697        1.07694       -2.68836
| 14> *
| 15> 
| 16> %MaxCore 64000
| 17> 
| 18> %pal nprocs 4
| 19> end  
| 20> 
| 21> %scf
| 22>   MaxIter 150
| 23> end
| 24> 
| 25> 
| 26>                          ****END OF INPUT****
================================================================================

                       ****************************
                       * Single Point Calculation *
                       ****************************

---------------------------------
CARTESIAN COORDINATES (ANGSTROEM)
---------------------------------
  C     -0.017410    0.080590   -2.778410
  C     -0.903490   -0.873940   -1.987390
  H     -0.502550   -1.892100   -2.081200
  H     -1.917040   -0.895430   -2.406280
  C     -0.960150   -0.522360   -0.489870
  H     -1.690390   -1.208130   -0.021680
  H     -1.414490    0.486330   -0.406680
  O      0.261700   -0.580310    0.138610
  H     -0.013290   -0.207760   -3.808810
  H      0.980250    0.042840   -2.393480
  H     -0.396970    1.076940   -2.688360

----------------------------
CARTESIAN COORDINATES (A.U.)
----------------------------
  NO LB      ZA    FRAG     MASS         X           Y           Z
   0 C     6.0000    0    12.011   -0.032900    0.152293   -5.250434
   1 C     6.0000    0    12.011   -1.707349   -1.651507   -3.755623
   2 H     1.0000    0     1.008   -0.949682   -3.575551   -3.932898
   3 H     1.0000    0     1.008   -3.622681   -1.692117   -4.547210
   4 C     6.0000    0    12.011   -1.814421   -0.987117   -0.925720
   5 H     1.0000    0     1.008   -3.194374   -2.283035   -0.040969
   6 H     1.0000    0     1.008   -2.672999    0.919031   -0.768514
   7 O     8.0000    0    15.999    0.494541   -1.096627    0.261935
   8 H     1.0000    0     1.008   -0.025114   -0.392610   -7.197608
   9 H     1.0000    0     1.008    1.852404    0.080956   -4.523022
  10 H     1.0000    0     1.008   -0.750165    2.035122   -5.080264

--------------------------------
INTERNAL COORDINATES (ANGSTROEM)
--------------------------------
 C      0   0   0     0.000000000000     0.00000000     0.00000000
 C      1   0   0     1.523803769420     0.00000000     0.00000000
 H      2   1   0     1.098272728105   108.91089557     0.00000000
 H      2   1   3     1.096911233738   110.56900344   243.12332736
 C      2   1   3     1.539280676940   112.54157789   119.67119010
 H      5   2   1     1.105772502190   107.13211972   175.07566311
 H      5   2   1     1.109414678017   107.19915763    62.61491043
 O      5   2   1     1.375231884229   113.72030747   298.78936050
 H      1   2   3     1.069993858347   109.47092397    60.32872428
 H      1   2   3     1.070010113504   109.47086985   300.32901996
 H      1   2   3     1.069994447930   109.47147777   180.32997863

---------------------------
INTERNAL COORDINATES (A.U.)
---------------------------
 C      0   0   0     0.000000000000     0.00000000     0.00000000
 C      1   0   0     2.879571806042     0.00000000     0.00000000
 H      2   1   0     2.075434676474   108.91089557     0.00000000
 H      2   1   3     2.072861824986   110.56900344   243.12332736
 C      2   1   3     2.908818922653   112.54157789   119.67119010
 H      5   2   1     2.089607195560   107.13211972   175.07566311
 H      5   2   1     2.096489910405   107.19915763    62.61491043
 O      5   2   1     2.598811631829   113.72030747   298.78936050
 H      1   2   3     2.021995357253   109.47092397    60.32872428
 H      1   2   3     2.022026075048   109.47086985   300.32901996
 H      1   2   3     2.021996471403   109.47147777   180.32997863

---------------------
BASIS SET INFORMATION
---------------------
There are 3 groups of distinct atoms

 Group   1 Type C   : 8s4p2d contracted to 4s2p2d pattern {5111/31/11}
 Group   2 Type H   : 4s2p contracted to 2s2p pattern {31/11}
 Group   3 Type O   : 8s5p2d contracted to 4s3p2d pattern {5111/311/11}

Atom   0C    basis set group =>   1
Atom   1C    basis set group =>   1
Atom   2H    basis set group =>   2
Atom   3H    basis set group =>   2
Atom   4C    basis set group =>   1
Atom   5H    basis set group =>   2
Atom   6H    basis set group =>   2
Atom   7O    basis set group =>   3
Atom   8H    basis set group =>   2
Atom   9H    basis set group =>   2
Atom  10H    basis set group =>   2
---------------------------------
AUXILIARY/J BASIS SET INFORMATION
---------------------------------
There are 3 groups of distinct atoms

 Group   1 Type C   : 12s5p4d2f1g contracted to 6s4p3d1f1g pattern {711111/2111/211/2/1}
 Group   2 Type H   : 5s2p1d contracted to 3s1p1d pattern {311/2/1}
 Group   3 Type O   : 12s5p4d2f1g contracted to 6s4p3d1f1g pattern {711111/2111/211/2/1}

Atom   0C    basis set group =>   1
Atom   1C    basis set group =>   1
Atom   2H    basis set group =>   2
Atom   3H    basis set group =>   2
Atom   4C    basis set group =>   1
Atom   5H    basis set group =>   2
Atom   6H    basis set group =>   2
Atom   7O    basis set group =>   3
Atom   8H    basis set group =>   2
Atom   9H    basis set group =>   2
Atom  10H    basis set group =>   2


           ************************************************************
           *        Program running with 4 parallel MPI-processes     *
           *              working on a common directory               *
           ************************************************************
------------------------------------------------------------------------------
                           ORCA GTO INTEGRAL CALCULATION
                           -- RI-GTO INTEGRALS CHOSEN --
------------------------------------------------------------------------------
------------------------------------------------------------------------------
                   ___                                                        
                  /   \      - P O W E R E D   B Y -                         
                 /     \                                                     
                 |  |  |   _    _      __       _____    __    __             
                 |  |  |  | |  | |    /  \     |  _  \  |  |  /  |          
                  \  \/   | |  | |   /    \    | | | |  |  | /  /          
                 / \  \   | |__| |  /  /\  \   | |_| |  |  |/  /          
                |  |  |   |  __  | /  /__\  \  |    /   |      \           
                |  |  |   | |  | | |   __   |  |    \   |  |\   \          
                \     /   | |  | | |  |  |  |  | |\  \  |  | \   \       
                 \___/    |_|  |_| |__|  |__|  |_| \__\ |__|  \__/        
                                                                              
                      - O R C A' S   B I G   F R I E N D -                    
                                      &                                       
                       - I N T E G R A L  F E E D E R -                       
                                                                              
 v1 FN, 2020, v2 2021                                                         
------------------------------------------------------------------------------


Reading SHARK input file 14Feb_SVPD_LC_PBE_A_wt_wb97_typ1_neg.SHARKINP.tmp ... ok
----------------------
SHARK INTEGRAL PACKAGE
----------------------

Number of atoms                             ...     11
Number of basis functions                   ...    139
Number of shells                            ...     61
Maximum angular momentum                    ...      2
Integral batch strategy                     ... SHARK/LIBINT Hybrid
RI-J (if used) integral strategy            ... SPLIT-RIJ (Revised 2003 algorithm where possible)
Printlevel                                  ...      1
Contraction scheme used                     ... SEGMENTED contraction
Coulomb Range Separation                    ... NOT USED
Exchange Range Separation                   ... Long Range
   Mu parameter                             ...  0.470000
   Scaling (regular/separated)              ...  0.000000  1.000000
Finite Nucleus Model                        ... NOT USED
Auxiliary Coulomb fitting basis             ... AVAILABLE
   # of basis functions in Aux-J            ...    273
   # of shells in Aux-J                     ...     95
   Maximum angular momentum in Aux-J        ...      4
Auxiliary J/K fitting basis                 ... NOT available
Auxiliary Correlation fitting basis         ... NOT available
Auxiliary 'external' fitting basis          ... NOT available
Integral threshold                          ...     2.500000e-11
Primitive cut-off                           ...     2.500000e-12
Primitive pair pre-selection threshold      ...     2.500000e-12

Calculating pre-screening integrals         ... done (  0.0 sec) Dimension = 61
Organizing shell pair data                  ... done (  0.0 sec)
Shell pair information
Total number of shell pairs                 ...      1891
Shell pairs after pre-screening             ...      1883
Total number of primitive shell pairs       ...      5023
Primitive shell pairs kept                  ...      4392
          la=0 lb=0:    462 shell pairs
          la=1 lb=0:    685 shell pairs
          la=1 lb=1:    276 shell pairs
          la=2 lb=0:    240 shell pairs
          la=2 lb=1:    184 shell pairs
          la=2 lb=2:     36 shell pairs

Calculating one electron integrals          ... done (  0.0 sec)
Calculating RI/J V-Matrix + Cholesky decomp.... done (  0.0 sec)
Calculating Nuclear repulsion               ... done (  0.0 sec) ENN=    123.964440147218 Eh

SHARK setup successfully completed in   0.1 seconds

Maximum memory used throughout the entire GTOINT-calculation: 8.8 MB


           ************************************************************
           *        Program running with 4 parallel MPI-processes     *
           *              working on a common directory               *
           ************************************************************
-------------------------------------------------------------------------------
                                 ORCA SCF
-------------------------------------------------------------------------------

------------
SCF SETTINGS
------------
Hamiltonian:
 Density Functional     Method          .... DFT(GTOs)
 Exchange Functional    Exchange        .... LC-PBE
 Correlation Functional Correlation     .... PBE
   PBE beta parameter  CBetaPBE         ....  0.066725
 LDA part of GGA corr.  LDAOpt          .... PW91-LDA
 Gradients option       PostSCFGGA      .... off
   Density functional embedding theory  .... OFF
 Long-range corrected/Screened/Range-Separated Hybrid DFT is turned on
   Amount of maximum screened exact exchange              ....  1.000000
   Range separation parameter mu (erf(mu*r12)/r12)        ....  0.470000
   NL short-range parameter             ....  6.400000
 RI-approximation to the Coulomb term is turned on
   Number of AuxJ basis functions       .... 273
   RIJ-COSX (HFX calculated with COS-X)).... on


General Settings:
 Integral files         IntName         .... 14Feb_SVPD_LC_PBE_A_wt_wb97_typ1_neg
 Hartree-Fock type      HFTyp           .... RHF
 Total Charge           Charge          ....   -1
 Multiplicity           Mult            ....    1
 Number of Electrons    NEL             ....   34
 Basis Dimension        Dim             ....  139
 Nuclear Repulsion      ENuc            ....    123.9644401472 Eh

Convergence Acceleration:
 DIIS                   CNVDIIS         .... on
   Start iteration      DIISMaxIt       ....    12
   Startup error        DIISStart       ....  0.200000
   # of expansion vecs  DIISMaxEq       ....     5
   Bias factor          DIISBfac        ....   1.050
   Max. coefficient     DIISMaxC        ....  10.000
 Trust-Rad. Augm. Hess. CNVTRAH         .... auto
   Auto Start mean grad. ratio tolernc. ....  1.125000
   Auto Start start iteration           ....    20
   Auto Start num. interpolation iter.  ....    10
   Max. Number of Micro iterations      ....    16
   Max. Number of Macro iterations      .... Maxiter - #DIIS iter
   Number of Davidson start vectors     ....     2
   Converg. threshold I  (grad. norm)   ....   1.000e-05
   Converg. threshold II (energy diff.) ....   1.000e-08
   Grad. Scal. Fac. for Micro threshold ....   0.100
   Minimum threshold for Micro iter.    ....   0.010
   NR start threshold (gradient norm)   ....   0.001
   Initial trust radius                 ....   0.400
   Minimum AH scaling param. (alpha)    ....   1.000
   Maximum AH scaling param. (alpha)    .... 1000.000
   Orbital update algorithm             .... Taylor
   White noise on init. David. guess    .... on
   Maximum white noise                  ....   0.010
   Quad. conv. algorithm                .... NR
 SOSCF                  CNVSOSCF        .... on
   Start iteration      SOSCFMaxIt      ....   150
   Startup grad/error   SOSCFStart      ....  0.003300
 Level Shifting         CNVShift        .... on
   Level shift para.    LevelShift      ....    0.2500
   Turn off err/grad.   ShiftErr        ....    0.0010
 Zerner damping         CNVZerner       .... off
 Static damping         CNVDamp         .... on
   Fraction old density DampFac         ....    0.7000
   Max. Damping (<1)    DampMax         ....    0.9800
   Min. Damping (>=0)   DampMin         ....    0.0000
   Turn off err/grad.   DampErr         ....    0.1000
 Fernandez-Rico         CNVRico         .... off

SCF Procedure:
 Maximum # iterations   MaxIter         ....   150
 SCF integral mode      SCFMode         .... Direct
   Integral package                     .... SHARK and LIBINT hybrid scheme
 Reset frequency        DirectResetFreq ....    20
 Integral Threshold     Thresh          ....  2.500e-11 Eh
 Primitive CutOff       TCut            ....  2.500e-12 Eh

Convergence Tolerance:
 Convergence Check Mode ConvCheckMode   .... Total+1el-Energy
 Convergence forced     ConvForced      .... 0
 Energy Change          TolE            ....  1.000e-08 Eh
 1-El. energy change                    ....  1.000e-05 Eh
 Orbital Gradient       TolG            ....  1.000e-05
 Orbital Rotation angle TolX            ....  1.000e-05
 DIIS Error             TolErr          ....  5.000e-07


Diagonalization of the overlap matrix:
Smallest eigenvalue                        ... 2.381e-04
Time for diagonalization                   ...    0.006 sec
Threshold for overlap eigenvalues          ... 1.000e-08
Number of eigenvalues below threshold      ... 0
Time for construction of square roots      ...    0.004 sec
Total time needed                          ...    0.010 sec

Time for model grid setup =    0.053 sec

------------------------------
INITIAL GUESS: MODEL POTENTIAL
------------------------------
Loading Hartree-Fock densities                     ... done
Calculating cut-offs                               ... done
Initializing the effective Hamiltonian             ... done
Setting up the integral package (SHARK)            ... done
Starting the Coulomb interaction                   ... done (   0.0 sec)
Reading the grid                                   ... done
Mapping shells                                     ... done
Starting the XC term evaluation                    ... done (   0.0 sec)
  promolecular density results
     # of electrons  =     32.996748189
     EX              =    -17.828644102
     EC              =     -1.064110670
     EX+EC           =    -18.892754772
Transforming the Hamiltonian                       ... done (   0.0 sec)
Diagonalizing the Hamiltonian                      ... done (   0.0 sec)
Back transforming the eigenvectors                 ... done (   0.0 sec)
Now organizing SCF variables                       ... done
                      ------------------
                      INITIAL GUESS DONE (   0.1 sec)
                      ------------------
-------------------
DFT GRID GENERATION
-------------------

General Integration Accuracy     IntAcc      ... 4.388
Radial Grid Type                 RadialGrid  ... OptM3 with GC (2021)
Angular Grid (max. ang.)         AngularGrid ... 4 (Lebedev-302)
Angular grid pruning method      GridPruning ... 4 (adaptive)
Weight generation scheme         WeightScheme... Becke
Basis function cutoff            BFCut       ... 1.0000e-11
Integration weight cutoff        WCut        ... 1.0000e-14
Angular grids for H and He will be reduced by one unit
Partially contracted basis set               ... off
Rotationally invariant grid construction     ... off

Total number of grid points                  ...    48558
Total number of batches                      ...      765
Average number of points per batch           ...       63
Average number of grid points per atom       ...     4414
Time for grid setup =    0.266 sec

--------------------
COSX GRID GENERATION
--------------------

GRIDX 1
-------
General Integration Accuracy     IntAcc      ... 3.816
Radial Grid Type                 RadialGrid  ... OptM3 with GC (2021)
Angular Grid (max. ang.)         AngularGrid ... 1 (Lebedev-50)
Angular grid pruning method      GridPruning ... 4 (adaptive)
Weight generation scheme         WeightScheme... Becke
Basis function cutoff            BFCut       ... 1.0000e-11
Integration weight cutoff        WCut        ... 1.0000e-14
Angular grids for H and He will be reduced by one unit
Partially contracted basis set               ... on
Rotationally invariant grid construction     ... off

Total number of grid points                  ...     6084
Total number of batches                      ...      103
Average number of points per batch           ...       59
Average number of grid points per atom       ...      553
UseSFitting                                  ... on

GRIDX 2
-------
General Integration Accuracy     IntAcc      ... 4.020
Radial Grid Type                 RadialGrid  ... OptM3 with GC (2021)
Angular Grid (max. ang.)         AngularGrid ... 2 (Lebedev-110)
Angular grid pruning method      GridPruning ... 4 (adaptive)
Weight generation scheme         WeightScheme... Becke
Basis function cutoff            BFCut       ... 1.0000e-11
Integration weight cutoff        WCut        ... 1.0000e-14
Angular grids for H and He will be reduced by one unit
Partially contracted basis set               ... on
Rotationally invariant grid construction     ... off

Total number of grid points                  ...    13723
Total number of batches                      ...      220
Average number of points per batch           ...       62
Average number of grid points per atom       ...     1248
UseSFitting                                  ... on

GRIDX 3
-------
General Integration Accuracy     IntAcc      ... 4.338
Radial Grid Type                 RadialGrid  ... OptM3 with GC (2021)
Angular Grid (max. ang.)         AngularGrid ... 3 (Lebedev-194)
Angular grid pruning method      GridPruning ... 4 (adaptive)
Weight generation scheme         WeightScheme... Becke
Basis function cutoff            BFCut       ... 1.0000e-11
Integration weight cutoff        WCut        ... 1.0000e-14
Angular grids for H and He will be reduced by one unit
Partially contracted basis set               ... on
Rotationally invariant grid construction     ... off

Total number of grid points                  ...    31359
Total number of batches                      ...      495
Average number of points per batch           ...       63
Average number of grid points per atom       ...     2851
UseSFitting                                  ... on

Time for X-Grid setup             =    0.256 sec

--------------
SCF ITERATIONS
--------------
ITER       Energy         Delta-E        Max-DP      RMS-DP      [F,P]     Damp
               ***  Starting incremental Fock matrix formation  ***
  0   -192.8882999542   0.000000000000 0.07208250  0.00210367  0.1950164 0.7000
  1   -192.9343095732  -0.046009619012 0.04512480  0.00147134  0.0847802 0.7000
                               ***Turning on DIIS***
  2   -192.9559392874  -0.021629714204 0.08185833  0.00282728  0.0449952 0.0000
  3   -192.9922672081  -0.036327920672 0.05532398  0.00131509  0.0564105 0.0000
  4   -192.9983430098  -0.006075801677 0.02047478  0.00049532  0.0113737 0.0000
  5   -192.9986623625  -0.000319352757 0.01498099  0.00031951  0.0053343 0.0000
                      *** Initiating the SOSCF procedure ***
                           *** Shutting down DIIS ***
                      *** Re-Reading the Fockian *** 
                      *** Removing any level shift *** 
ITER      Energy       Delta-E        Grad      Rot      Max-DP    RMS-DP
  6   -192.99875311  -0.0000907446  0.000593  0.000593  0.011617  0.000319
               *** Restarting incremental Fock matrix formation ***
  7   -192.99873149   0.0000216196  0.000151  0.000460  0.002307  0.000078
  8   -192.99873248  -0.0000009956  0.000077  0.000433  0.001856  0.000061
  9   -192.99873272  -0.0000002408  0.000041  0.000053  0.000383  0.000013
 10   -192.99873275  -0.0000000224  0.000021  0.000021  0.000176  0.000006
 11   -192.99873275  -0.0000000039  0.000004  0.000014  0.000078  0.000002
                  ***Gradient check signals convergence***
              ***Rediagonalizing the Fockian in SOSCF/NRSCF***

               *****************************************************
               *                     SUCCESS                       *
               *           SCF CONVERGED AFTER  12 CYCLES          *
               *****************************************************


----------------
TOTAL SCF ENERGY
----------------

Total Energy       :         -192.99873275 Eh           -5251.76251 eV

Components:
Nuclear Repulsion  :          123.96444015 Eh            3373.24391 eV
Electronic Energy  :         -316.96317290 Eh           -8625.00642 eV
One Electron Energy:         -514.73661915 Eh          -14006.69549 eV
Two Electron Energy:          197.77344625 Eh            5381.68907 eV
Max COSX asymmetry :            0.00000742 Eh               0.00020 eV

Virial components:
Potential Energy   :         -384.06582884 Eh          -10450.96252 eV
Kinetic Energy     :          191.06709608 Eh            5199.20001 eV
Virial Ratio       :            2.01010973


DFT components:
N(Alpha)           :       17.000130094407 electrons
N(Beta)            :       17.000130094407 electrons
N(Total)           :       34.000260188815 electrons
E(X)               :      -18.288894635005 Eh       
E(C)               :       -1.105743062641 Eh       
E(XC)              :      -19.394637697646 Eh       
DFET-embed. en.    :        0.000000000000 Eh       

---------------
SCF CONVERGENCE
---------------

  Last Energy change         ...   -3.0666e-09  Tolerance :   1.0000e-08
  Last MAX-Density change    ...    1.9197e-05  Tolerance :   1.0000e-07
  Last RMS-Density change    ...    4.1938e-07  Tolerance :   5.0000e-09
  Last Orbital Gradient      ...    8.3275e-07  Tolerance :   1.0000e-05
  Last Orbital Rotation      ...    2.8868e-06  Tolerance :   1.0000e-05

             **** THE GBW FILE WAS UPDATED (14Feb_SVPD_LC_PBE_A_wt_wb97_typ1_neg.gbw) ****
             **** DENSITY 14Feb_SVPD_LC_PBE_A_wt_wb97_typ1_neg.scfp WAS UPDATED ****
             **** ENERGY FILE WAS UPDATED (14Feb_SVPD_LC_PBE_A_wt_wb97_typ1_neg.en.tmp) ****
             **** THE GBW FILE WAS UPDATED (14Feb_SVPD_LC_PBE_A_wt_wb97_typ1_neg.gbw) ****
             **** DENSITY 14Feb_SVPD_LC_PBE_A_wt_wb97_typ1_neg.scfp WAS UPDATED ****
----------------
ORBITAL ENERGIES
----------------

  NO   OCC          E(Eh)            E(eV) 
   0   2.0000     -18.651464      -507.5321 
   1   2.0000      -9.943624      -270.5798 
   2   2.0000      -9.940951      -270.5070 
   3   2.0000      -9.936567      -270.3877 
   4   2.0000      -0.838522       -22.8174 
   5   2.0000      -0.751460       -20.4483 
   6   2.0000      -0.625980       -17.0338 
   7   2.0000      -0.516811       -14.0631 
   8   2.0000      -0.419494       -11.4150 
   9   2.0000      -0.411850       -11.2070 
  10   2.0000      -0.358543        -9.7565 
  11   2.0000      -0.320167        -8.7122 
  12   2.0000      -0.293996        -8.0000 
  13   2.0000      -0.282762        -7.6943 
  14   2.0000      -0.241124        -6.5613 
  15   2.0000      -0.096771        -2.6333 
  16   2.0000      -0.092593        -2.5196 
  17   0.0000       0.230988         6.2855 
  18   0.0000       0.256094         6.9687 
  19   0.0000       0.273586         7.4447 
  20   0.0000       0.308471         8.3939 
  21   0.0000       0.325041         8.8448 
  22   0.0000       0.331821         9.0293 
  23   0.0000       0.340230         9.2581 
  24   0.0000       0.351140         9.5550 
  25   0.0000       0.356984         9.7140 
  26   0.0000       0.387224        10.5369 
  27   0.0000       0.398551        10.8451 
  28   0.0000       0.402966        10.9652 
  29   0.0000       0.411547        11.1988 
  30   0.0000       0.421804        11.4779 
  31   0.0000       0.434664        11.8278 
  32   0.0000       0.444335        12.0910 
  33   0.0000       0.477482        12.9929 
  34   0.0000       0.501039        13.6340 
  35   0.0000       0.520906        14.1746 
  36   0.0000       0.537461        14.6250 
  37   0.0000       0.546292        14.8654 
  38   0.0000       0.561212        15.2713 
  39   0.0000       0.563178        15.3248 
  40   0.0000       0.574995        15.6464 
  41   0.0000       0.587511        15.9870 
  42   0.0000       0.594750        16.1840 
  43   0.0000       0.608049        16.5459 
  44   0.0000       0.609040        16.5728 
  45   0.0000       0.619427        16.8555 
  46   0.0000       0.628689        17.1075 
  47   0.0000       0.641767        17.4634 
  48   0.0000       0.645729        17.5712 
  49   0.0000       0.656596        17.8669 
  50   0.0000       0.663115        18.0443 
  51   0.0000       0.667956        18.1760 
  52   0.0000       0.680340        18.5130 
  53   0.0000       0.699828        19.0433 
  54   0.0000       0.710855        19.3434 
  55   0.0000       0.719114        19.5681 
  56   0.0000       0.727942        19.8083 
  57   0.0000       0.741091        20.1661 
  58   0.0000       0.752730        20.4828 
  59   0.0000       0.761868        20.7315 
  60   0.0000       0.778570        21.1860 
  61   0.0000       0.796215        21.6661 
  62   0.0000       0.807289        21.9674 
  63   0.0000       0.811003        22.0685 
  64   0.0000       0.821183        22.3455 
  65   0.0000       0.846297        23.0289 
  66   0.0000       0.856684        23.3116 
  67   0.0000       0.872021        23.7289 
  68   0.0000       0.889280        24.1985 
  69   0.0000       0.910496        24.7758 
  70   0.0000       0.974858        26.5272 
  71   0.0000       0.987752        26.8781 
  72   0.0000       1.012944        27.5636 
  73   0.0000       1.049647        28.5623 
  74   0.0000       1.085793        29.5459 
  75   0.0000       1.135358        30.8947 
  76   0.0000       1.197997        32.5992 
  77   0.0000       1.212637        32.9975 
  78   0.0000       1.225798        33.3557 
  79   0.0000       1.268622        34.5210 
  80   0.0000       1.293622        35.2012 
  81   0.0000       1.300721        35.3944 
  82   0.0000       1.311341        35.6834 
  83   0.0000       1.315283        35.7907 
  84   0.0000       1.332201        36.2510 
  85   0.0000       1.370395        37.2903 
  86   0.0000       1.406213        38.2650 
  87   0.0000       1.420078        38.6423 
  88   0.0000       1.458919        39.6992 
  89   0.0000       1.557230        42.3744 
  90   0.0000       1.562956        42.5302 
  91   0.0000       1.574918        42.8557 
  92   0.0000       1.624982        44.2180 
  93   0.0000       1.654814        45.0298 
  94   0.0000       1.858234        50.5651 
  95   0.0000       1.871999        50.9397 
  96   0.0000       1.896628        51.6099 
  97   0.0000       1.926965        52.4354 
  98   0.0000       1.944558        52.9141 
  99   0.0000       1.979227        53.8575 
 100   0.0000       2.008430        54.6521 
 101   0.0000       2.039560        55.4992 
 102   0.0000       2.068927        56.2984 
 103   0.0000       2.141345        58.2690 
 104   0.0000       2.178332        59.2754 
 105   0.0000       2.209100        60.1127 
 106   0.0000       2.251648        61.2705 
 107   0.0000       2.282327        62.1053 
 108   0.0000       2.313299        62.9481 
 109   0.0000       2.331485        63.4429 
 110   0.0000       2.346455        63.8503 
 111   0.0000       2.361081        64.2483 
 112   0.0000       2.377026        64.6822 
 113   0.0000       2.413270        65.6684 
 114   0.0000       2.426197        66.0202 
 115   0.0000       2.506793        68.2133 
 116   0.0000       2.521150        68.6040 
 117   0.0000       2.602753        70.8245 
 118   0.0000       2.636362        71.7391 
 119   0.0000       2.713466        73.8372 
 120   0.0000       2.756294        75.0026 
 121   0.0000       2.827277        76.9341 
 122   0.0000       2.868777        78.0634 
 123   0.0000       2.888273        78.5939 
 124   0.0000       2.982998        81.1715 
 125   0.0000       3.003790        81.7373 
 126   0.0000       3.040751        82.7430 
 127   0.0000       3.173956        86.3677 
 128   0.0000       3.295258        89.6685 
 129   0.0000       3.320287        90.3496 
 130   0.0000       3.343390        90.9783 
 131   0.0000       3.384936        92.1088 
 132   0.0000       3.418022        93.0091 
 133   0.0000       3.465791        94.3090 
 134   0.0000       3.501117        95.2702 
 135   0.0000       3.511795        95.5608 
 136   0.0000       3.600113        97.9641 
 137   0.0000       3.613881        98.3387 
 138   0.0000       3.991700       108.6197 

                    ********************************
                    * MULLIKEN POPULATION ANALYSIS *
                    ********************************

-----------------------
MULLIKEN ATOMIC CHARGES
-----------------------
   0 C :    0.383548
   1 C :   -0.575766
   2 H :    0.010266
   3 H :   -0.021038
   4 C :    0.234760
   5 H :   -0.096251
   6 H :   -0.056937
   7 O :   -0.864047
   8 H :   -0.026789
   9 H :    0.032530
  10 H :   -0.020275
Sum of atomic charges:   -1.0000000

--------------------------------
MULLIKEN REDUCED ORBITAL CHARGES
--------------------------------
  0 C s       :     2.562657  s :     2.562657
      pz      :     0.920184  p :     2.925396
      px      :     1.021320
      py      :     0.983892
      dz2     :     0.050857  d :     0.128399
      dxz     :    -0.013425
      dyz     :     0.008122
      dx2y2   :     0.066136
      dxy     :     0.016709
  1 C s       :     2.966228  s :     2.966228
      pz      :     1.096661  p :     3.099977
      px      :     0.974659
      py      :     1.028657
      dz2     :     0.129527  d :     0.509560
      dxz     :     0.105503
      dyz     :     0.101501
      dx2y2   :     0.146796
      dxy     :     0.026233
  2 H s       :     0.949979  s :     0.949979
      pz      :    -0.010921  p :     0.039755
      px      :    -0.009561
      py      :     0.060237
  3 H s       :     0.987248  s :     0.987248
      pz      :    -0.009625  p :     0.033790
      px      :     0.055778
      py      :    -0.012362
  4 C s       :     2.851824  s :     2.851824
      pz      :     0.878675  p :     2.628909
      px      :     0.840647
      py      :     0.909587
      dz2     :     0.022710  d :     0.284507
      dxz     :     0.089855
      dyz     :     0.054550
      dx2y2   :     0.035199
      dxy     :     0.082193
  5 H s       :     1.054944  s :     1.054944
      pz      :    -0.005317  p :     0.041307
      px      :     0.024980
      py      :     0.021644
  6 H s       :     1.014394  s :     1.014394
      pz      :    -0.008864  p :     0.042543
      px      :     0.001697
      py      :     0.049710
  7 O s       :     3.889355  s :     3.889355
      pz      :     1.738815  p :     4.950251
      px      :     1.339429
      py      :     1.872007
      dz2     :     0.004464  d :     0.024441
      dxz     :     0.003828
      dyz     :    -0.000647
      dx2y2   :     0.005060
      dxy     :     0.011736
  8 H s       :     1.005060  s :     1.005060
      pz      :     0.039546  p :     0.021729
      px      :    -0.016480
      py      :    -0.001337
  9 H s       :     0.906009  s :     0.906009
      pz      :     0.015521  p :     0.061462
      px      :     0.052280
      py      :    -0.006339
 10 H s       :     0.969878  s :     0.969878
      pz      :    -0.014873  p :     0.050397
      px      :     0.016756
      py      :     0.048514


                     *******************************
                     * LOEWDIN POPULATION ANALYSIS *
                     *******************************

----------------------
LOEWDIN ATOMIC CHARGES
----------------------
   0 C :    0.054840
   1 C :   -0.142301
   2 H :    0.017515
   3 H :    0.003275
   4 C :   -0.248960
   5 H :   -0.017568
   6 H :   -0.012256
   7 O :   -0.579139
   8 H :   -0.035557
   9 H :   -0.018487
  10 H :   -0.021361

-------------------------------
LOEWDIN REDUCED ORBITAL CHARGES
-------------------------------
  0 C s       :     2.703587  s :     2.703587
      pz      :     0.918814  p :     2.806881
      px      :     0.954586
      py      :     0.933481
      dz2     :     0.133530  d :     0.434693
      dxz     :     0.055790
      dyz     :     0.048766
      dx2y2   :     0.131264
      dxy     :     0.065343
  1 C s       :     2.706116  s :     2.706116
      pz      :     0.928872  p :     2.738378
      px      :     0.897295
      py      :     0.912211
      dz2     :     0.173214  d :     0.697807
      dxz     :     0.152803
      dyz     :     0.140537
      dx2y2   :     0.149044
      dxy     :     0.082208
  2 H s       :     0.726976  s :     0.726976
      pz      :     0.065461  p :     0.255509
      px      :     0.079422
      py      :     0.110626
  3 H s       :     0.741229  s :     0.741229
      pz      :     0.071939  p :     0.255495
      px      :     0.114887
      py      :     0.068669
  4 C s       :     2.697594  s :     2.697594
      pz      :     0.858708  p :     2.601474
      px      :     0.860768
      py      :     0.881998
      dz2     :     0.222090  d :     0.949892
      dxz     :     0.228935
      dyz     :     0.120226
      dx2y2   :     0.132063
      dxy     :     0.246578
  5 H s       :     0.754855  s :     0.754855
      pz      :     0.069663  p :     0.262714
      px      :     0.095541
      py      :     0.097509
  6 H s       :     0.750544  s :     0.750544
      pz      :     0.062379  p :     0.261712
      px      :     0.073985
      py      :     0.125349
  7 O s       :     3.503646  s :     3.503646
      pz      :     1.650682  p :     4.823574
      px      :     1.450392
      py      :     1.722500
      dz2     :     0.051775  d :     0.251918
      dxz     :     0.063408
      dyz     :     0.014222
      dx2y2   :     0.050496
      dxy     :     0.072018
  8 H s       :     0.750411  s :     0.750411
      pz      :     0.126056  p :     0.285146
      px      :     0.078370
      py      :     0.080719
  9 H s       :     0.721208  s :     0.721208
      pz      :     0.104701  p :     0.297279
      px      :     0.119028
      py      :     0.073550
 10 H s       :     0.739432  s :     0.739432
      pz      :     0.078548  p :     0.281929
      px      :     0.084047
      py      :     0.119334


                      *****************************
                      * MAYER POPULATION ANALYSIS *
                      *****************************

  NA   - Mulliken gross atomic population
  ZA   - Total nuclear charge
  QA   - Mulliken gross atomic charge
  VA   - Mayer's total valence
  BVA  - Mayer's bonded valence
  FA   - Mayer's free valence

  ATOM       NA         ZA         QA         VA         BVA        FA
  0 C      5.6165     6.0000     0.3835     3.9674     3.9674     0.0000
  1 C      6.5758     6.0000    -0.5758     4.9984     4.9984     0.0000
  2 H      0.9897     1.0000     0.0103     1.1171     1.1171     0.0000
  3 H      1.0210     1.0000    -0.0210     1.1287     1.1287     0.0000
  4 C      5.7652     6.0000     0.2348     4.5147     4.5147     0.0000
  5 H      1.0963     1.0000    -0.0963     1.0912     1.0912     0.0000
  6 H      1.0569     1.0000    -0.0569     1.0720     1.0720    -0.0000
  7 O      8.8640     8.0000    -0.8640     1.2740     1.2740    -0.0000
  8 H      1.0268     1.0000    -0.0268     1.0318     1.0318     0.0000
  9 H      0.9675     1.0000     0.0325     1.1096     1.1096     0.0000
 10 H      1.0203     1.0000    -0.0203     1.1058     1.1058     0.0000

  Mayer bond orders larger than 0.100000
B(  0-C ,  1-C ) :   1.2679 B(  0-C ,  8-H ) :   0.8403 B(  0-C ,  9-H ) :   0.8659 
B(  0-C , 10-H ) :   0.8652 B(  1-C ,  2-H ) :   0.9903 B(  1-C ,  3-H ) :   1.0077 
B(  1-C ,  4-C ) :   1.0507 B(  1-C ,  5-H ) :   0.1030 B(  1-C ,  8-H ) :   0.1549 
B(  1-C ,  9-H ) :   0.1699 B(  1-C , 10-H ) :   0.1485 B(  2-H ,  4-C ) :   0.1040 
B(  4-C ,  5-H ) :   0.9826 B(  4-C ,  6-H ) :   0.9700 B(  4-C ,  7-O ) :   1.3049 


-------
TIMINGS
-------

Total SCF time: 0 days 0 hours 0 min 10 sec 

Total time                  ....      10.154 sec
Sum of individual times     ....      10.014 sec  ( 98.6%)

Fock matrix formation       ....       9.284 sec  ( 91.4%)
  Split-RI-J                ....       0.428 sec  (  4.6% of F)
  Chain of spheres X        ....       6.940 sec  ( 74.8% of F)
  XC integration            ....       1.873 sec  ( 20.2% of F)
    Basis function eval.    ....       0.633 sec  ( 33.8% of XC)
    Density eval.           ....       0.402 sec  ( 21.4% of XC)
    XC-Functional eval.     ....       0.210 sec  ( 11.2% of XC)
    XC-Potential eval.      ....       0.520 sec  ( 27.8% of XC)
Diagonalization             ....       0.031 sec  (  0.3%)
Density matrix formation    ....       0.002 sec  (  0.0%)
Population analysis         ....       0.004 sec  (  0.0%)
Initial guess               ....       0.072 sec  (  0.7%)
Orbital Transformation      ....       0.000 sec  (  0.0%)
Orbital Orthonormalization  ....       0.000 sec  (  0.0%)
DIIS solution               ....       0.024 sec  (  0.2%)
SOSCF solution              ....       0.021 sec  (  0.2%)
Grid generation             ....       0.575 sec  (  5.7%)

Maximum memory used throughout the entire SCF-calculation: 18.1 MB

-------------------------   --------------------
FINAL SINGLE POINT ENERGY      -192.998732753131
-------------------------   --------------------


                            ***************************************
                            *     ORCA property calculations      *
                            ***************************************

                                    ---------------------
                                    Active property flags
                                    ---------------------
   (+) Dipole Moment


------------------------------------------------------------------------------
                       ORCA ELECTRIC PROPERTIES CALCULATION
------------------------------------------------------------------------------

Dipole Moment Calculation                       ... on
Quadrupole Moment Calculation                   ... off
Polarizability Calculation                      ... off
GBWName                                         ... 14Feb_SVPD_LC_PBE_A_wt_wb97_typ1_neg.gbw
Electron density file                           ... 14Feb_SVPD_LC_PBE_A_wt_wb97_typ1_neg.scfp
The origin for moment calculation is the CENTER OF MASS  = (-0.748383, -0.886064 -2.393025)

-------------
DIPOLE MOMENT
-------------
                                X             Y             Z
Electronic contribution:      1.08854      -0.49049       2.56502
Nuclear contribution   :     -2.03764       0.64089      -4.61583
                        -----------------------------------------
Total Dipole Moment    :     -0.94910       0.15041      -2.05081
                        -----------------------------------------
Magnitude (a.u.)       :      2.26478
Magnitude (Debye)      :      5.75661



--------------------
Rotational spectrum 
--------------------
 
Rotational constants in cm-1:     0.508897     0.174909     0.148249 
Rotational constants in MHz : 15256.351998  5243.652192  4444.387232 

 Dipole components along the rotational axes: 
x,y,z [a.u.] :    -2.091571     0.845202    -0.200485 
x,y,z [Debye]:    -5.316351     2.148334    -0.509592 

 

Timings for individual modules:

Sum of individual times         ...       10.700 sec (=   0.178 min)
GTO integral calculation        ...        0.337 sec (=   0.006 min)   3.1 %
SCF iterations                  ...       10.363 sec (=   0.173 min)  96.9 %
                             ****ORCA TERMINATED NORMALLY****
TOTAL RUN TIME: 0 days 0 hours 0 minutes 11 seconds 12 msec
