
                                        *****************
                                        * O   R   C   A *
                                        *****************

                                            #,                                       
                                            ###                                      
                                            ####                                     
                                            #####                                    
                                            ######                                   
                                           ########,                                 
                                     ,,################,,,,,                         
                               ,,#################################,,                 
                          ,,##########################################,,             
                       ,#########################################, ''#####,          
                    ,#############################################,,   '####,        
                  ,##################################################,,,,####,       
                ,###########''''           ''''###############################       
              ,#####''   ,,,,##########,,,,          '''####'''          '####       
            ,##' ,,,,###########################,,,                        '##       
           ' ,,###''''                  '''############,,,                           
         ,,##''                                '''############,,,,        ,,,,,,###''
      ,#''                                            '''#######################'''  
     '                                                          ''''####''''         
             ,#######,   #######,   ,#######,      ##                                
            ,#'     '#,  ##    ##  ,#'     '#,    #''#        ######   ,####,        
            ##       ##  ##   ,#'  ##            #'  '#       #        #'  '#        
            ##       ##  #######   ##           ,######,      #####,   #    #        
            '#,     ,#'  ##    ##  '#,     ,#' ,#      #,         ##   #,  ,#        
             '#######'   ##     ##  '#######'  #'      '#     #####' # '####'        



                  #######################################################
                  #                        -***-                        #
                  #          Department of theory and spectroscopy      #
                  #    Directorship and core code : Frank Neese         #
                  #        Max Planck Institute fuer Kohlenforschung    #
                  #                Kaiser Wilhelm Platz 1               #
                  #                 D-45470 Muelheim/Ruhr               #
                  #                      Germany                        #
                  #                                                     #
                  #                  All rights reserved                #
                  #                        -***-                        #
                  #######################################################


                         Program Version 5.0.0 -  RELEASE  -
                                (SVN: $Rev: 19529$)
                ($Date: 2021-06-28 11:36:33 +0200 (Mo, 28 Jun 2021) $)


 With contributions from (in alphabetic order):
   Daniel Aravena         : Magnetic Suceptibility
   Michael Atanasov       : Ab Initio Ligand Field Theory (pilot matlab implementation)
   Alexander A. Auer      : GIAO ZORA, VPT2 properties, NMR spectrum
   Ute Becker             : Parallelization
   Giovanni Bistoni       : ED, misc. LED, open-shell LED, HFLD
   Martin Brehm           : Molecular dynamics
   Dmytro Bykov           : SCF Hessian
   Vijay G. Chilkuri      : MRCI spin determinant printing, contributions to CSF-ICE
   Dipayan Datta          : RHF DLPNO-CCSD density
   Achintya Kumar Dutta   : EOM-CC, STEOM-CC
   Dmitry Ganyushin       : Spin-Orbit,Spin-Spin,Magnetic field MRCI
   Miquel Garcia          : C-PCM Hessian, Gaussian charge scheme
   Yang Guo               : DLPNO-NEVPT2, F12-NEVPT2, CIM, IAO-localization
   Andreas Hansen         : Spin unrestricted coupled pair/coupled cluster methods
   Benjamin Helmich-Paris : MC-RPA, TRAH-SCF, COSX integrals
   Lee Huntington         : MR-EOM, pCC
   Robert Izsak           : Overlap fitted RIJCOSX, COSX-SCS-MP3, EOM
   Marcus Kettner         : VPT2
   Christian Kollmar      : KDIIS, OOCD, Brueckner-CCSD(T), CCSD density, CASPT2, CASPT2-K
   Simone Kossmann        : Meta GGA functionals, TD-DFT gradient, OOMP2, MP2 Hessian
   Martin Krupicka        : Initial AUTO-CI
   Lucas Lang             : DCDCAS
   Marvin Lechner         : AUTO-CI (C++ implementation), FIC-MRCC
   Dagmar Lenk            : GEPOL surface, SMD
   Dimitrios Liakos       : Extrapolation schemes; Compound Job, initial MDCI parallelization
   Dimitrios Manganas     : Further ROCIS development; embedding schemes
   Dimitrios Pantazis     : SARC Basis sets
   Anastasios Papadopoulos: AUTO-CI, single reference methods and gradients
   Taras Petrenko         : DFT Hessian,TD-DFT gradient, ASA, ECA, R-Raman, ABS, FL, XAS/XES, NRVS
   Peter Pinski           : DLPNO-MP2, DLPNO-MP2 Gradient
   Christoph Reimann      : Effective Core Potentials
   Marius Retegan         : Local ZFS, SOC
   Christoph Riplinger    : Optimizer, TS searches, QM/MM, DLPNO-CCSD(T), (RO)-DLPNO pert. Triples
   Tobias Risthaus        : Range-separated hybrids, TD-DFT gradient, RPA, STAB
   Michael Roemelt        : Original ROCIS implementation
   Masaaki Saitow         : Open-shell DLPNO-CCSD energy and density
   Barbara Sandhoefer     : DKH picture change effects
   Avijit Sen             : IP-ROCIS
   Kantharuban Sivalingam : CASSCF convergence, NEVPT2, FIC-MRCI
   Bernardo de Souza      : ESD, SOC TD-DFT
   Georgi Stoychev        : AutoAux, RI-MP2 NMR
   Willem Van den Heuvel  : Paramagnetic NMR
   Boris Wezisla          : Elementary symmetry handling
   Frank Wennmohs         : Technical directorship


 We gratefully acknowledge several colleagues who have allowed us to
 interface, adapt or use parts of their codes:
   Stefan Grimme, W. Hujo, H. Kruse, P. Pracht,  : VdW corrections, initial TS optimization,
                  C. Bannwarth, S. Ehlert          DFT functionals, gCP, sTDA/sTD-DF
   Ed Valeev, F. Pavosevic, A. Kumar             : LibInt (2-el integral package), F12 methods
   Garnet Chan, S. Sharma, J. Yang, R. Olivares  : DMRG
   Ulf Ekstrom                                   : XCFun DFT Library
   Mihaly Kallay                                 : mrcc  (arbitrary order and MRCC methods)
   Jiri Pittner, Ondrej Demel                    : Mk-CCSD
   Frank Weinhold                                : gennbo (NPA and NBO analysis)
   Christopher J. Cramer and Donald G. Truhlar   : smd solvation model
   Lars Goerigk                                  : TD-DFT with DH, B97 family of functionals
   V. Asgeirsson, H. Jonsson                     : NEB implementation
   FAccTs GmbH                                   : IRC, NEB, NEB-TS, DLPNO-Multilevel, CI-OPT
                                                   MM, QMMM, 2- and 3-layer-ONIOM, Crystal-QMMM,
                                                   LR-CPCM, SF, NACMEs, symmetry and pop. for TD-DFT,
                                                   nearIR, NL-DFT gradient (VV10), updates on ESD,
                                                   ML-optimized integration grids
   S Lehtola, MJT Oliveira, MAL Marques          : LibXC Library
   Liviu Ungur et al                             : ANISO software


 Your calculation uses the libint2 library for the computation of 2-el integrals
 For citations please refer to: http://libint.valeyev.net

 Your ORCA version has been built with support for libXC version: 5.1.0
 For citations please refer to: https://tddft.org/programs/libxc/

 This ORCA versions uses:
   CBLAS   interface :  Fast vector & matrix operations
   LAPACKE interface :  Fast linear algebra routines
   SCALAPACK package :  Parallel linear algebra routines
   Shared memory     :  Shared parallel matrices
   BLAS/LAPACK       :  OpenBLAS 0.3.15  USE64BITINT DYNAMIC_ARCH NO_AFFINITY Haswell SINGLE_THREADED
        Core in use  :  Haswell
   Copyright (c) 2011-2014, The OpenBLAS Project


Your calculation utilizes the atom-pairwise dispersion correction
with the zero-damping scheme (D30)
Cite in your paper:
S.Grimme, J.Antony, S.Ehrlich and H.Krieg, J.Chem.Phys., 132, (2010), 154104 
   

XCFun DFT library Copyright 2009-2010 Ulf Ekstrom and contributors.
See http://admol.org/xcfun for more information.
This is free software; see the source code for copying conditions.
There is ABSOLUTELY NO WARRANTY; not even for MERCHANTABILITY or FITNESS FOR A PARTICULAR PURPOSE.
For details see the documentation.
Scientific users of this library should cite U. Ekstrom, L. Visscher, R. Bast, A. J. Thorvaldsen and K. Ruud;
J.Chem.Theor.Comp. 2010, DOI: 10.1021/ct100117s
XCFun Version 0.99 

================================================================================

----- Orbital basis set information -----
Your calculation utilizes the basis: def2-TZVP
   F. Weigend and R. Ahlrichs, Phys. Chem. Chem. Phys. 7, 3297 (2005).

----- AuxJ basis set information -----
Your calculation utilizes the auxiliary basis: def2/J
   F. Weigend, Phys. Chem. Chem. Phys. 8, 1057 (2006).

================================================================================
                                        WARNINGS
                       Please study these warnings very carefully!
================================================================================


INFO   : the flag for use of the SHARK integral package has been found!

================================================================================
                                       INPUT FILE
================================================================================
NAME = C3_pos.com
|  1> !wB97X-D3 RIJCOSX def2-TZVP def2/J TightSCF 
|  2> *xyz 0 1
|  3> C          1.96337       -1.74915       -1.89689
|  4> N          2.73849       -2.01517       -3.09711
|  5> C          4.04974       -2.15472       -3.15204
|  6> N          4.65821       -1.98629       -4.31866
|  7> C          4.76423       -2.45444       -2.05049
|  8> H          4.28736       -2.77626       -1.21750
|  9> H          5.75082       -2.65835       -2.12599
| 10> H          2.34518       -1.69027       -3.97145
| 11> H          4.10900       -1.59268       -5.07176
| 12> H          5.64910       -2.15646       -4.42724
| 13> H          0.92556       -1.68522       -2.14942
| 14> H          2.28268       -0.82430       -1.46378
| 15> H          2.11118       -2.54207       -1.19381
| 16> *
| 17> %MaxCore 64000
| 18> 
| 19> %pal nprocs 8
| 20> end  
| 21> 
| 22> %scf
| 23>   MaxIter 150
| 24> end
| 25> 
| 26> 
| 27>                          ****END OF INPUT****
================================================================================

                       ****************************
                       * Single Point Calculation *
                       ****************************

---------------------------------
CARTESIAN COORDINATES (ANGSTROEM)
---------------------------------
  C      1.963370   -1.749150   -1.896890
  N      2.738490   -2.015170   -3.097110
  C      4.049740   -2.154720   -3.152040
  N      4.658210   -1.986290   -4.318660
  C      4.764230   -2.454440   -2.050490
  H      4.287360   -2.776260   -1.217500
  H      5.750820   -2.658350   -2.125990
  H      2.345180   -1.690270   -3.971450
  H      4.109000   -1.592680   -5.071760
  H      5.649100   -2.156460   -4.427240
  H      0.925560   -1.685220   -2.149420
  H      2.282680   -0.824300   -1.463780
  H      2.111180   -2.542070   -1.193810

----------------------------
CARTESIAN COORDINATES (A.U.)
----------------------------
  NO LB      ZA    FRAG     MASS         X           Y           Z
   0 C     6.0000    0    12.011    3.710232   -3.305414   -3.584603
   1 N     7.0000    0    14.007    5.174996   -3.808119   -5.852690
   2 C     6.0000    0    12.011    7.652900   -4.071831   -5.956492
   3 N     7.0000    0    14.007    8.802741   -3.753544   -8.161085
   4 C     6.0000    0    12.011    9.003090   -4.638219   -3.874865
   5 H     1.0000    0     1.008    8.101936   -5.246371   -2.300742
   6 H     1.0000    0     1.008   10.867475   -5.023553   -4.017539
   7 H     1.0000    0     1.008    4.431748   -3.194147   -7.504953
   8 H     1.0000    0     1.008    7.764885   -3.009729   -9.584237
   9 H     1.0000    0     1.008   10.675252   -4.075119   -8.366271
  10 H     1.0000    0     1.008    1.749055   -3.184604   -4.061815
  11 H     1.0000    0     1.008    4.313640   -1.557701   -2.766143
  12 H     1.0000    0     1.008    3.989552   -4.803816   -2.255974

--------------------------------
INTERNAL COORDINATES (ANGSTROEM)
--------------------------------
 C      0   0   0     0.000000000000     0.00000000     0.00000000
 N      1   0   0     1.453308536822     0.00000000     0.00000000
 C      2   1   0     1.319798495945   125.70558414     0.00000000
 N      3   2   1     1.326501651036   118.61421616   200.38175597
 C      3   2   1     1.346751811211   121.10321023    20.01727886
 H      5   3   2     1.012346506588   119.59453702    13.56866466
 H      5   3   2     1.010266977685   120.12495650   173.22985716
 H      2   1   3     1.012286126399   116.57303880   207.34688220
 H      4   3   2     1.011790524862   117.06612917    10.99918763
 H      4   3   2     1.011242027113   121.50248980   185.08027543
 H      1   2   3     1.070003757891   109.47098058   179.99987936
 H      1   2   3     1.069995640505   109.47152212    59.99999776
 H      1   2   3     1.069995985460   109.47133183   300.00016595

---------------------------
INTERNAL COORDINATES (A.U.)
---------------------------
 C      0   0   0     0.000000000000     0.00000000     0.00000000
 N      1   0   0     2.746355122684     0.00000000     0.00000000
 C      2   1   0     2.494057709298   125.70558414     0.00000000
 N      3   2   1     2.506724836652   118.61421616   200.38175597
 C      3   2   1     2.544992093551   121.10321023    20.01727886
 H      5   3   2     1.913057650082   119.59453702    13.56866466
 H      5   3   2     1.909127909968   120.12495650   173.22985716
 H      2   1   3     1.912943548062   116.57303880   207.34688220
 H      4   3   2     1.912006996885   117.06612917    10.99918763
 H      4   3   2     1.910970486355   121.50248980   185.08027543
 H      1   2   3     2.022014064680   109.47098058   179.99987936
 H      1   2   3     2.021998725044   109.47152212    59.99999776
 H      1   2   3     2.021999376914   109.47133183   300.00016595

---------------------
BASIS SET INFORMATION
---------------------
There are 3 groups of distinct atoms

 Group   1 Type C   : 11s6p2d1f contracted to 5s3p2d1f pattern {62111/411/11/1}
 Group   2 Type N   : 11s6p2d1f contracted to 5s3p2d1f pattern {62111/411/11/1}
 Group   3 Type H   : 5s1p contracted to 3s1p pattern {311/1}

Atom   0C    basis set group =>   1
Atom   1N    basis set group =>   2
Atom   2C    basis set group =>   1
Atom   3N    basis set group =>   2
Atom   4C    basis set group =>   1
Atom   5H    basis set group =>   3
Atom   6H    basis set group =>   3
Atom   7H    basis set group =>   3
Atom   8H    basis set group =>   3
Atom   9H    basis set group =>   3
Atom  10H    basis set group =>   3
Atom  11H    basis set group =>   3
Atom  12H    basis set group =>   3
---------------------------------
AUXILIARY/J BASIS SET INFORMATION
---------------------------------
There are 3 groups of distinct atoms

 Group   1 Type C   : 12s5p4d2f1g contracted to 6s4p3d1f1g pattern {711111/2111/211/2/1}
 Group   2 Type N   : 12s5p4d2f1g contracted to 6s4p3d1f1g pattern {711111/2111/211/2/1}
 Group   3 Type H   : 5s2p1d contracted to 3s1p1d pattern {311/2/1}

Atom   0C    basis set group =>   1
Atom   1N    basis set group =>   2
Atom   2C    basis set group =>   1
Atom   3N    basis set group =>   2
Atom   4C    basis set group =>   1
Atom   5H    basis set group =>   3
Atom   6H    basis set group =>   3
Atom   7H    basis set group =>   3
Atom   8H    basis set group =>   3
Atom   9H    basis set group =>   3
Atom  10H    basis set group =>   3
Atom  11H    basis set group =>   3
Atom  12H    basis set group =>   3


           ************************************************************
           *        Program running with 8 parallel MPI-processes     *
           *              working on a common directory               *
           ************************************************************
------------------------------------------------------------------------------
                           ORCA GTO INTEGRAL CALCULATION
                           -- RI-GTO INTEGRALS CHOSEN --
------------------------------------------------------------------------------
------------------------------------------------------------------------------
                   ___                                                        
                  /   \      - P O W E R E D   B Y -                         
                 /     \                                                     
                 |  |  |   _    _      __       _____    __    __             
                 |  |  |  | |  | |    /  \     |  _  \  |  |  /  |          
                  \  \/   | |  | |   /    \    | | | |  |  | /  /          
                 / \  \   | |__| |  /  /\  \   | |_| |  |  |/  /          
                |  |  |   |  __  | /  /__\  \  |    /   |      \           
                |  |  |   | |  | | |   __   |  |    \   |  |\   \          
                \     /   | |  | | |  |  |  |  | |\  \  |  | \   \       
                 \___/    |_|  |_| |__|  |__|  |_| \__\ |__|  \__/        
                                                                              
                      - O R C A' S   B I G   F R I E N D -                    
                                      &                                       
                       - I N T E G R A L  F E E D E R -                       
                                                                              
 v1 FN, 2020, v2 2021                                                         
------------------------------------------------------------------------------


Reading SHARK input file C3_pos.SHARKINP.tmp ... ok
----------------------
SHARK INTEGRAL PACKAGE
----------------------

Number of atoms                             ...     13
Number of basis functions                   ...    203
Number of shells                            ...     87
Maximum angular momentum                    ...      3
Integral batch strategy                     ... SHARK/LIBINT Hybrid
RI-J (if used) integral strategy            ... SPLIT-RIJ (Revised 2003 algorithm where possible)
Printlevel                                  ...      1
Contraction scheme used                     ... SEGMENTED contraction
Coulomb Range Separation                    ... NOT USED
Exchange Range Separation                   ... Long Range
   Mu parameter                             ...  0.250000
   Scaling (regular/separated)              ...  0.195728  0.804272
Finite Nucleus Model                        ... NOT USED
Auxiliary Coulomb fitting basis             ... AVAILABLE
   # of basis functions in Aux-J            ...    333
   # of shells in Aux-J                     ...    115
   Maximum angular momentum in Aux-J        ...      4
Auxiliary J/K fitting basis                 ... NOT available
Auxiliary Correlation fitting basis         ... NOT available
Auxiliary 'external' fitting basis          ... NOT available
Integral threshold                          ...     2.500000e-11
Primitive cut-off                           ...     2.500000e-12
Primitive pair pre-selection threshold      ...     2.500000e-12

Calculating pre-screening integrals         ... done (  0.1 sec) Dimension = 87
Organizing shell pair data                  ... done (  0.0 sec)
Shell pair information
Total number of shell pairs                 ...      3828
Shell pairs after pre-screening             ...      3683
Total number of primitive shell pairs       ...     11160
Primitive shell pairs kept                  ...      8596
          la=0 lb=0:   1146 shell pairs
          la=1 lb=0:   1087 shell pairs
          la=1 lb=1:    271 shell pairs
          la=2 lb=0:    478 shell pairs
          la=2 lb=1:    227 shell pairs
          la=2 lb=2:     55 shell pairs
          la=3 lb=0:    239 shell pairs
          la=3 lb=1:    115 shell pairs
          la=3 lb=2:     50 shell pairs
          la=3 lb=3:     15 shell pairs

Calculating one electron integrals          ... done (  0.0 sec)
Calculating RI/J V-Matrix + Cholesky decomp.... done (  0.0 sec)
Calculating Nuclear repulsion               ... done (  0.0 sec) ENN=    185.231664504046 Eh

SHARK setup successfully completed in   0.2 seconds

Maximum memory used throughout the entire GTOINT-calculation: 13.9 MB


           ************************************************************
           *        Program running with 8 parallel MPI-processes     *
           *              working on a common directory               *
           ************************************************************
-------------------------------------------------------------------------------
                                 ORCA SCF
-------------------------------------------------------------------------------

------------
SCF SETTINGS
------------
Hamiltonian:
 Density Functional     Method          .... DFT(GTOs)
 Exchange Functional    Exchange        .... WB97X-D3
 Correlation Functional Correlation     .... WB97X-D3
 Gradients option       PostSCFGGA      .... off
 Hybrid DFT is turned on
   Fraction HF Exchange ScalHFX         ....  0.195728
   Scaling of DF-GGA-X  ScalDFX         ....  0.000000
   Scaling of DF-GGA-C  ScalDFC         ....  1.000000
   Scaling of DF-LDA-C  ScalLDAC        ....  1.000000
   Perturbative correction              ....  0.000000
   Density functional embedding theory  .... OFF
 Long-range corrected/Screened/Range-Separated Hybrid DFT is turned on
   Amount of maximum screened exact exchange              ....  0.804272
   Range separation parameter mu (erf(mu*r12)/r12)        ....  0.250000
 RI-approximation to the Coulomb term is turned on
   Number of AuxJ basis functions       .... 333
   RIJ-COSX (HFX calculated with COS-X)).... on


General Settings:
 Integral files         IntName         .... C3_pos
 Hartree-Fock type      HFTyp           .... RHF
 Total Charge           Charge          ....    0
 Multiplicity           Mult            ....    1
 Number of Electrons    NEL             ....   40
 Basis Dimension        Dim             ....  203
 Nuclear Repulsion      ENuc            ....    185.2316645040 Eh

Convergence Acceleration:
 DIIS                   CNVDIIS         .... on
   Start iteration      DIISMaxIt       ....    12
   Startup error        DIISStart       ....  0.200000
   # of expansion vecs  DIISMaxEq       ....     5
   Bias factor          DIISBfac        ....   1.050
   Max. coefficient     DIISMaxC        ....  10.000
 Trust-Rad. Augm. Hess. CNVTRAH         .... auto
   Auto Start mean grad. ratio tolernc. ....  1.125000
   Auto Start start iteration           ....    20
   Auto Start num. interpolation iter.  ....    10
   Max. Number of Micro iterations      ....    16
   Max. Number of Macro iterations      .... Maxiter - #DIIS iter
   Number of Davidson start vectors     ....     2
   Converg. threshold I  (grad. norm)   ....   1.000e-05
   Converg. threshold II (energy diff.) ....   1.000e-08
   Grad. Scal. Fac. for Micro threshold ....   0.100
   Minimum threshold for Micro iter.    ....   0.010
   NR start threshold (gradient norm)   ....   0.001
   Initial trust radius                 ....   0.400
   Minimum AH scaling param. (alpha)    ....   1.000
   Maximum AH scaling param. (alpha)    .... 1000.000
   Orbital update algorithm             .... Taylor
   White noise on init. David. guess    .... on
   Maximum white noise                  ....   0.010
   Quad. conv. algorithm                .... NR
 SOSCF                  CNVSOSCF        .... on
   Start iteration      SOSCFMaxIt      ....   150
   Startup grad/error   SOSCFStart      ....  0.003300
 Level Shifting         CNVShift        .... on
   Level shift para.    LevelShift      ....    0.2500
   Turn off err/grad.   ShiftErr        ....    0.0010
 Zerner damping         CNVZerner       .... off
 Static damping         CNVDamp         .... on
   Fraction old density DampFac         ....    0.7000
   Max. Damping (<1)    DampMax         ....    0.9800
   Min. Damping (>=0)   DampMin         ....    0.0000
   Turn off err/grad.   DampErr         ....    0.1000
 Fernandez-Rico         CNVRico         .... off

SCF Procedure:
 Maximum # iterations   MaxIter         ....   150
 SCF integral mode      SCFMode         .... Direct
   Integral package                     .... SHARK and LIBINT hybrid scheme
 Reset frequency        DirectResetFreq ....    20
 Integral Threshold     Thresh          ....  2.500e-11 Eh
 Primitive CutOff       TCut            ....  2.500e-12 Eh

Convergence Tolerance:
 Convergence Check Mode ConvCheckMode   .... Total+1el-Energy
 Convergence forced     ConvForced      .... 0
 Energy Change          TolE            ....  1.000e-08 Eh
 1-El. energy change                    ....  1.000e-05 Eh
 Orbital Gradient       TolG            ....  1.000e-05
 Orbital Rotation angle TolX            ....  1.000e-05
 DIIS Error             TolErr          ....  5.000e-07


Diagonalization of the overlap matrix:
Smallest eigenvalue                        ... 1.687e-04
Time for diagonalization                   ...    0.010 sec
Threshold for overlap eigenvalues          ... 1.000e-08
Number of eigenvalues below threshold      ... 0
Time for construction of square roots      ...    0.010 sec
Total time needed                          ...    0.021 sec

Time for model grid setup =    0.055 sec

------------------------------
INITIAL GUESS: MODEL POTENTIAL
------------------------------
Loading Hartree-Fock densities                     ... done
Calculating cut-offs                               ... done
Initializing the effective Hamiltonian             ... done
Setting up the integral package (SHARK)            ... done
Starting the Coulomb interaction                   ... done (   0.0 sec)
Reading the grid                                   ... done
Mapping shells                                     ... done
Starting the XC term evaluation                    ... done (   0.0 sec)
  promolecular density results
     # of electrons  =     39.995551303
     EX              =    -30.870438072
     EC              =     -1.313730372
     EX+EC           =    -32.184168444
Transforming the Hamiltonian                       ... done (   0.0 sec)
Diagonalizing the Hamiltonian                      ... done (   0.0 sec)
Back transforming the eigenvectors                 ... done (   0.0 sec)
Now organizing SCF variables                       ... done
                      ------------------
                      INITIAL GUESS DONE (   0.1 sec)
                      ------------------
-------------------
DFT GRID GENERATION
-------------------

General Integration Accuracy     IntAcc      ... 4.388
Radial Grid Type                 RadialGrid  ... OptM3 with GC (2021)
Angular Grid (max. ang.)         AngularGrid ... 4 (Lebedev-302)
Angular grid pruning method      GridPruning ... 4 (adaptive)
Weight generation scheme         WeightScheme... Becke
Basis function cutoff            BFCut       ... 1.0000e-11
Integration weight cutoff        WCut        ... 1.0000e-14
Angular grids for H and He will be reduced by one unit
Partially contracted basis set               ... off
Rotationally invariant grid construction     ... off

Total number of grid points                  ...    56073
Total number of batches                      ...      883
Average number of points per batch           ...       63
Average number of grid points per atom       ...     4313
Time for grid setup =    0.308 sec

--------------------
COSX GRID GENERATION
--------------------

GRIDX 1
-------
General Integration Accuracy     IntAcc      ... 3.816
Radial Grid Type                 RadialGrid  ... OptM3 with GC (2021)
Angular Grid (max. ang.)         AngularGrid ... 1 (Lebedev-50)
Angular grid pruning method      GridPruning ... 4 (adaptive)
Weight generation scheme         WeightScheme... Becke
Basis function cutoff            BFCut       ... 1.0000e-11
Integration weight cutoff        WCut        ... 1.0000e-14
Angular grids for H and He will be reduced by one unit
Partially contracted basis set               ... on
Rotationally invariant grid construction     ... off

Total number of grid points                  ...     7218
Total number of batches                      ...      121
Average number of points per batch           ...       59
Average number of grid points per atom       ...      555
UseSFitting                                  ... on

GRIDX 2
-------
General Integration Accuracy     IntAcc      ... 4.020
Radial Grid Type                 RadialGrid  ... OptM3 with GC (2021)
Angular Grid (max. ang.)         AngularGrid ... 2 (Lebedev-110)
Angular grid pruning method      GridPruning ... 4 (adaptive)
Weight generation scheme         WeightScheme... Becke
Basis function cutoff            BFCut       ... 1.0000e-11
Integration weight cutoff        WCut        ... 1.0000e-14
Angular grids for H and He will be reduced by one unit
Partially contracted basis set               ... on
Rotationally invariant grid construction     ... off

Total number of grid points                  ...    15260
Total number of batches                      ...      245
Average number of points per batch           ...       62
Average number of grid points per atom       ...     1174
UseSFitting                                  ... on

GRIDX 3
-------
General Integration Accuracy     IntAcc      ... 4.338
Radial Grid Type                 RadialGrid  ... OptM3 with GC (2021)
Angular Grid (max. ang.)         AngularGrid ... 3 (Lebedev-194)
Angular grid pruning method      GridPruning ... 4 (adaptive)
Weight generation scheme         WeightScheme... Becke
Basis function cutoff            BFCut       ... 1.0000e-11
Integration weight cutoff        WCut        ... 1.0000e-14
Angular grids for H and He will be reduced by one unit
Partially contracted basis set               ... on
Rotationally invariant grid construction     ... off

Total number of grid points                  ...    33428
Total number of batches                      ...      530
Average number of points per batch           ...       63
Average number of grid points per atom       ...     2571
UseSFitting                                  ... on

Time for X-Grid setup             =    0.237 sec

--------------
SCF ITERATIONS
--------------
ITER       Energy         Delta-E        Max-DP      RMS-DP      [F,P]     Damp
               ***  Starting incremental Fock matrix formation  ***
  0   -228.3579439308   0.000000000000 0.04692718  0.00113136  0.2521221 0.7000
  1   -228.4632718671  -0.105327936281 0.03380879  0.00090123  0.1516458 0.7000
                               ***Turning on DIIS***
  2   -228.5167277616  -0.053455894536 0.06464918  0.00179634  0.0776329 0.0000
  3   -228.5995245703  -0.082796808680 0.02430447  0.00058339  0.0609007 0.0000
  4   -228.6135610300  -0.014036459719 0.00560075  0.00015718  0.0117103 0.0000
                      *** Initiating the SOSCF procedure ***
                           *** Shutting down DIIS ***
                      *** Re-Reading the Fockian *** 
                      *** Removing any level shift *** 
ITER      Energy       Delta-E        Grad      Rot      Max-DP    RMS-DP
  5   -228.61399263  -0.0004316036  0.001187  0.001187  0.002411  0.000063
               *** Restarting incremental Fock matrix formation ***
  6   -228.61403074  -0.0000381066  0.000455  0.001093  0.001391  0.000044
  7   -228.61403871  -0.0000079651  0.000469  0.001495  0.000825  0.000029
  8   -228.61404122  -0.0000025133  0.000075  0.000147  0.000279  0.000007
  9   -228.61404137  -0.0000001494  0.000028  0.000043  0.000080  0.000002
 10   -228.61404140  -0.0000000333  0.000011  0.000036  0.000025  0.000001
                  ***Gradient check signals convergence***
              ***Rediagonalizing the Fockian in SOSCF/NRSCF***

               *****************************************************
               *                     SUCCESS                       *
               *           SCF CONVERGED AFTER  11 CYCLES          *
               *****************************************************

Old exchange energy                            =    -10.506017589 Eh
New exchange energy                            =    -10.506017786 Eh
Exchange energy change after final integration =     -0.000000197 Eh
Total energy after final integration           =   -228.614041598 Eh
Final COS-X integration done in                =     2.495 sec

----------------
TOTAL SCF ENERGY
----------------

Total Energy       :         -228.61404160 Eh           -6220.90434 eV

Components:
Nuclear Repulsion  :          185.23166450 Eh            5040.40984 eV
Electronic Energy  :         -413.84570610 Eh          -11261.31418 eV
One Electron Energy:         -674.60704031 Eh          -18356.99082 eV
Two Electron Energy:          260.76133421 Eh            7095.67664 eV
Max COSX asymmetry :            0.00000121 Eh               0.00003 eV

Virial components:
Potential Energy   :         -456.72191934 Eh          -12428.03525 eV
Kinetic Energy     :          228.10787774 Eh            6207.13092 eV
Virial Ratio       :            2.00221897


DFT components:
N(Alpha)           :       20.000008660771 electrons
N(Beta)            :       20.000008660771 electrons
N(Total)           :       40.000017321541 electrons
E(XC)              :      -22.732558188161 Eh       
DFET-embed. en.    :        0.000000000000 Eh       

---------------
SCF CONVERGENCE
---------------

  Last Energy change         ...    1.3557e-10  Tolerance :   1.0000e-08
  Last MAX-Density change    ...    4.4409e-16  Tolerance :   1.0000e-07
  Last RMS-Density change    ...    1.7221e-17  Tolerance :   5.0000e-09
  Last Orbital Gradient      ...    1.6774e-06  Tolerance :   1.0000e-05
  Last Orbital Rotation      ...    6.4827e-06  Tolerance :   1.0000e-05

             **** THE GBW FILE WAS UPDATED (C3_pos.gbw) ****
             **** DENSITY C3_pos.scfp WAS UPDATED ****
             **** ENERGY FILE WAS UPDATED (C3_pos.en.tmp) ****
             **** THE GBW FILE WAS UPDATED (C3_pos.gbw) ****
             **** DENSITY C3_pos.scfp WAS UPDATED ****
----------------
ORBITAL ENERGIES
----------------

  NO   OCC          E(Eh)            E(eV) 
   0   2.0000     -14.425258      -392.5312 
   1   2.0000     -14.420858      -392.4115 
   2   2.0000     -10.321295      -280.8567 
   3   2.0000     -10.297017      -280.1961 
   4   2.0000     -10.182071      -277.0683 
   5   2.0000      -1.090913       -29.6852 
   6   2.0000      -1.000499       -27.2250 
   7   2.0000      -0.833484       -22.6802 
   8   2.0000      -0.807879       -21.9835 
   9   2.0000      -0.674176       -18.3453 
  10   2.0000      -0.647575       -17.6214 
  11   2.0000      -0.627234       -17.0679 
  12   2.0000      -0.552357       -15.0304 
  13   2.0000      -0.545902       -14.8547 
  14   2.0000      -0.513414       -13.9707 
  15   2.0000      -0.478522       -13.0212 
  16   2.0000      -0.469202       -12.7676 
  17   2.0000      -0.462033       -12.5726 
  18   2.0000      -0.344258        -9.3677 
  19   2.0000      -0.251051        -6.8314 
  20   0.0000       0.102198         2.7809 
  21   0.0000       0.138208         3.7608 
  22   0.0000       0.148679         4.0458 
  23   0.0000       0.165485         4.5031 
  24   0.0000       0.176023         4.7898 
  25   0.0000       0.194516         5.2930 
  26   0.0000       0.205215         5.5842 
  27   0.0000       0.223528         6.0825 
  28   0.0000       0.241836         6.5807 
  29   0.0000       0.266220         7.2442 
  30   0.0000       0.272234         7.4079 
  31   0.0000       0.288178         7.8417 
  32   0.0000       0.293577         7.9886 
  33   0.0000       0.345375         9.3981 
  34   0.0000       0.352677         9.5968 
  35   0.0000       0.375037        10.2053 
  36   0.0000       0.390230        10.6187 
  37   0.0000       0.397303        10.8112 
  38   0.0000       0.416224        11.3260 
  39   0.0000       0.427112        11.6223 
  40   0.0000       0.437521        11.9056 
  41   0.0000       0.471258        12.8236 
  42   0.0000       0.482755        13.1364 
  43   0.0000       0.505052        13.7432 
  44   0.0000       0.509778        13.8718 
  45   0.0000       0.534497        14.5444 
  46   0.0000       0.540055        14.6956 
  47   0.0000       0.557889        15.1809 
  48   0.0000       0.565754        15.3950 
  49   0.0000       0.584047        15.8927 
  50   0.0000       0.605703        16.4820 
  51   0.0000       0.608374        16.5547 
  52   0.0000       0.621925        16.9234 
  53   0.0000       0.641871        17.4662 
  54   0.0000       0.658489        17.9184 
  55   0.0000       0.697033        18.9672 
  56   0.0000       0.704865        19.1804 
  57   0.0000       0.726173        19.7602 
  58   0.0000       0.747964        20.3531 
  59   0.0000       0.816142        22.2084 
  60   0.0000       0.827363        22.5137 
  61   0.0000       0.856458        23.3054 
  62   0.0000       0.863672        23.5017 
  63   0.0000       0.930491        25.3199 
  64   0.0000       0.956367        26.0241 
  65   0.0000       0.982649        26.7392 
  66   0.0000       0.996921        27.1276 
  67   0.0000       1.029147        28.0045 
  68   0.0000       1.070464        29.1288 
  69   0.0000       1.123917        30.5833 
  70   0.0000       1.140681        31.0395 
  71   0.0000       1.148049        31.2400 
  72   0.0000       1.219928        33.1959 
  73   0.0000       1.259616        34.2759 
  74   0.0000       1.295825        35.2612 
  75   0.0000       1.318195        35.8699 
  76   0.0000       1.347536        36.6683 
  77   0.0000       1.375608        37.4322 
  78   0.0000       1.414607        38.4934 
  79   0.0000       1.493639        40.6440 
  80   0.0000       1.543292        41.9951 
  81   0.0000       1.555971        42.3401 
  82   0.0000       1.571170        42.7537 
  83   0.0000       1.596005        43.4295 
  84   0.0000       1.614886        43.9433 
  85   0.0000       1.619360        44.0650 
  86   0.0000       1.644670        44.7538 
  87   0.0000       1.659352        45.1533 
  88   0.0000       1.672663        45.5155 
  89   0.0000       1.697483        46.1909 
  90   0.0000       1.726801        46.9886 
  91   0.0000       1.750178        47.6248 
  92   0.0000       1.777645        48.3722 
  93   0.0000       1.784996        48.5722 
  94   0.0000       1.799894        48.9776 
  95   0.0000       1.833056        49.8800 
  96   0.0000       1.858643        50.5762 
  97   0.0000       1.885874        51.3172 
  98   0.0000       1.938122        52.7390 
  99   0.0000       1.986337        54.0510 
 100   0.0000       2.011495        54.7356 
 101   0.0000       2.021872        55.0179 
 102   0.0000       2.050187        55.7884 
 103   0.0000       2.058760        56.0217 
 104   0.0000       2.074025        56.4371 
 105   0.0000       2.120893        57.7124 
 106   0.0000       2.163765        58.8791 
 107   0.0000       2.203703        59.9658 
 108   0.0000       2.261004        61.5251 
 109   0.0000       2.277558        61.9755 
 110   0.0000       2.292897        62.3929 
 111   0.0000       2.366500        64.3957 
 112   0.0000       2.406168        65.4752 
 113   0.0000       2.422281        65.9136 
 114   0.0000       2.457259        66.8654 
 115   0.0000       2.479370        67.4671 
 116   0.0000       2.498450        67.9863 
 117   0.0000       2.535543        68.9956 
 118   0.0000       2.586045        70.3699 
 119   0.0000       2.629256        71.5457 
 120   0.0000       2.652799        72.1863 
 121   0.0000       2.680078        72.9286 
 122   0.0000       2.693823        73.3026 
 123   0.0000       2.748242        74.7835 
 124   0.0000       2.758182        75.0540 
 125   0.0000       2.782410        75.7132 
 126   0.0000       2.804850        76.3238 
 127   0.0000       2.821728        76.7831 
 128   0.0000       2.850329        77.5614 
 129   0.0000       2.895261        78.7841 
 130   0.0000       2.932668        79.8019 
 131   0.0000       3.003234        81.7222 
 132   0.0000       3.013551        82.0029 
 133   0.0000       3.042455        82.7894 
 134   0.0000       3.091241        84.1170 
 135   0.0000       3.098989        84.3278 
 136   0.0000       3.166294        86.1592 
 137   0.0000       3.170343        86.2694 
 138   0.0000       3.177312        86.4590 
 139   0.0000       3.198154        87.0262 
 140   0.0000       3.221668        87.6660 
 141   0.0000       3.293696        89.6260 
 142   0.0000       3.296308        89.6971 
 143   0.0000       3.320154        90.3460 
 144   0.0000       3.379200        91.9527 
 145   0.0000       3.399519        92.5056 
 146   0.0000       3.402603        92.5895 
 147   0.0000       3.422454        93.1297 
 148   0.0000       3.465973        94.3139 
 149   0.0000       3.489194        94.9458 
 150   0.0000       3.497026        95.1589 
 151   0.0000       3.547059        96.5204 
 152   0.0000       3.559866        96.8689 
 153   0.0000       3.612484        98.3007 
 154   0.0000       3.644775        99.1794 
 155   0.0000       3.670717        99.8853 
 156   0.0000       3.733473       101.5930 
 157   0.0000       3.780295       102.8671 
 158   0.0000       3.845500       104.6414 
 159   0.0000       3.857670       104.9725 
 160   0.0000       3.872630       105.3796 
 161   0.0000       3.973489       108.1241 
 162   0.0000       4.011535       109.1594 
 163   0.0000       4.044118       110.0460 
 164   0.0000       4.131413       112.4215 
 165   0.0000       4.258085       115.8684 
 166   0.0000       4.282376       116.5294 
 167   0.0000       4.342499       118.1654 
 168   0.0000       4.409515       119.9890 
 169   0.0000       4.426422       120.4491 
 170   0.0000       4.491105       122.2092 
 171   0.0000       4.518242       122.9476 
 172   0.0000       4.585219       124.7701 
 173   0.0000       4.600128       125.1758 
 174   0.0000       4.653435       126.6264 
 175   0.0000       4.712167       128.2246 
 176   0.0000       4.783724       130.1717 
 177   0.0000       4.867974       132.4643 
 178   0.0000       4.889800       133.0582 
 179   0.0000       5.003700       136.1576 
 180   0.0000       5.023814       136.7049 
 181   0.0000       5.101071       138.8072 
 182   0.0000       5.174289       140.7995 
 183   0.0000       5.182861       141.0328 
 184   0.0000       5.222591       142.1139 
 185   0.0000       5.238222       142.5393 
 186   0.0000       5.297434       144.1505 
 187   0.0000       5.337907       145.2518 
 188   0.0000       5.349663       145.5717 
 189   0.0000       5.400204       146.9470 
 190   0.0000       5.463611       148.6724 
 191   0.0000       5.506782       149.8472 
 192   0.0000       5.579084       151.8146 
 193   0.0000       5.728036       155.8678 
 194   0.0000       5.850541       159.2013 
 195   0.0000       5.970649       162.4696 
 196   0.0000       6.173492       167.9892 
 197   0.0000       6.289074       171.1344 
 198   0.0000      22.575625       614.3140 
 199   0.0000      22.763892       619.4370 
 200   0.0000      23.533399       640.3763 
 201   0.0000      32.107572       873.6915 
 202   0.0000      32.620042       887.6365 

                    ********************************
                    * MULLIKEN POPULATION ANALYSIS *
                    ********************************

-----------------------
MULLIKEN ATOMIC CHARGES
-----------------------
   0 C :   -0.228124
   1 N :   -0.339333
   2 C :    0.375900
   3 N :   -0.510218
   4 C :   -0.529639
   5 H :    0.090561
   6 H :    0.086783
   7 H :    0.191071
   8 H :    0.220838
   9 H :    0.261512
  10 H :    0.121609
  11 H :    0.130612
  12 H :    0.128428
Sum of atomic charges:   -0.0000000

--------------------------------
MULLIKEN REDUCED ORBITAL CHARGES
--------------------------------
  0 C s       :     3.238302  s :     3.238302
      pz      :     0.855039  p :     2.909412
      px      :     0.990088
      py      :     1.064285
      dz2     :     0.013555  d :     0.074808
      dxz     :     0.010098
      dyz     :     0.033168
      dx2y2   :     0.012899
      dxy     :     0.005087
      f0      :     0.000833  f :     0.005603
      f+1     :     0.000852
      f-1     :     0.000800
      f+2     :     0.001405
      f-2     :     0.001122
      f+3     :     0.000475
      f-3     :     0.000115
  1 N s       :     3.435439  s :     3.435439
      pz      :     1.085963  p :     3.837750
      px      :     1.114807
      py      :     1.636980
      dz2     :     0.012156  d :     0.061885
      dxz     :     0.018811
      dyz     :     0.009671
      dx2y2   :     0.009838
      dxy     :     0.011409
      f0      :     0.000629  f :     0.004258
      f+1     :     0.000563
      f-1     :     0.000409
      f+2     :     0.000801
      f-2     :     0.000386
      f+3     :     0.000648
      f-3     :     0.000822
  2 C s       :     2.981688  s :     2.981688
      pz      :     0.823920  p :     2.421737
      px      :     0.743357
      py      :     0.854459
      dz2     :     0.040437  d :     0.201978
      dxz     :     0.042907
      dyz     :     0.050377
      dx2y2   :     0.018266
      dxy     :     0.049992
      f0      :     0.004274  f :     0.018697
      f+1     :     0.001725
      f-1     :     0.002395
      f+2     :     0.003284
      f-2     :     0.002108
      f+3     :     0.001777
      f-3     :     0.003132
  3 N s       :     3.444633  s :     3.444633
      pz      :     1.170078  p :     4.025595
      px      :     1.167288
      py      :     1.688229
      dz2     :     0.009914  d :     0.036305
      dxz     :     0.008867
      dyz     :     0.008787
      dx2y2   :     0.006116
      dxy     :     0.002621
      f0      :     0.000557  f :     0.003685
      f+1     :     0.000550
      f-1     :     0.000607
      f+2     :     0.000514
      f-2     :     0.000470
      f+3     :     0.000560
      f-3     :     0.000426
  4 C s       :     3.265326  s :     3.265326
      pz      :     0.950106  p :     3.230910
      px      :     0.989122
      py      :     1.291682
      dz2     :     0.006516  d :     0.028394
      dxz     :     0.003738
      dyz     :     0.009393
      dx2y2   :     0.004741
      dxy     :     0.004006
      f0      :     0.000970  f :     0.005009
      f+1     :     0.000645
      f-1     :     0.000828
      f+2     :     0.000888
      f-2     :     0.000465
      f+3     :     0.000681
      f-3     :     0.000533
  5 H s       :     0.882382  s :     0.882382
      pz      :     0.011753  p :     0.027058
      px      :     0.006062
      py      :     0.009243
  6 H s       :     0.886971  s :     0.886971
      pz      :     0.004589  p :     0.026245
      px      :     0.012942
      py      :     0.008715
  7 H s       :     0.769986  s :     0.769986
      pz      :     0.016529  p :     0.038944
      px      :     0.008539
      py      :     0.013877
  8 H s       :     0.740995  s :     0.740995
      pz      :     0.014301  p :     0.038166
      px      :     0.009085
      py      :     0.014780
  9 H s       :     0.701267  s :     0.701267
      pz      :     0.005771  p :     0.037221
      px      :     0.018837
      py      :     0.012613
 10 H s       :     0.857162  s :     0.857162
      pz      :     0.003943  p :     0.021229
      px      :     0.012747
      py      :     0.004539
 11 H s       :     0.847822  s :     0.847822
      pz      :     0.005817  p :     0.021567
      px      :     0.004858
      py      :     0.010891
 12 H s       :     0.849670  s :     0.849670
      pz      :     0.008122  p :     0.021902
      px      :     0.004444
      py      :     0.009336


                     *******************************
                     * LOEWDIN POPULATION ANALYSIS *
                     *******************************

----------------------
LOEWDIN ATOMIC CHARGES
----------------------
   0 C :   -0.292164
   1 N :    0.085533
   2 C :   -0.470470
   3 N :   -0.013908
   4 C :   -0.352796
   5 H :    0.095757
   6 H :    0.092534
   7 H :    0.176825
   8 H :    0.162591
   9 H :    0.180094
  10 H :    0.111864
  11 H :    0.109276
  12 H :    0.114865

-------------------------------
LOEWDIN REDUCED ORBITAL CHARGES
-------------------------------
  0 C s       :     2.822809  s :     2.822809
      pz      :     0.971230  p :     3.096863
      px      :     1.029614
      py      :     1.096018
      dz2     :     0.061729  d :     0.331717
      dxz     :     0.058232
      dyz     :     0.126684
      dx2y2   :     0.065782
      dxy     :     0.019289
      f0      :     0.008107  f :     0.040775
      f+1     :     0.007944
      f-1     :     0.004876
      f+2     :     0.005907
      f-2     :     0.008237
      f+3     :     0.003454
      f-3     :     0.002249
  1 N s       :     2.910914  s :     2.910914
      pz      :     1.113654  p :     3.750270
      px      :     1.181024
      py      :     1.455592
      dz2     :     0.050620  d :     0.236488
      dxz     :     0.081399
      dyz     :     0.031246
      dx2y2   :     0.035956
      dxy     :     0.037267
      f0      :     0.003250  f :     0.016796
      f+1     :     0.002017
      f-1     :     0.001684
      f+2     :     0.003065
      f-2     :     0.001771
      f+3     :     0.002310
      f-3     :     0.002699
  2 C s       :     2.697103  s :     2.697103
      pz      :     1.011680  p :     2.791601
      px      :     0.952930
      py      :     0.826992
      dz2     :     0.196270  d :     0.861804
      dxz     :     0.206274
      dyz     :     0.169151
      dx2y2   :     0.110246
      dxy     :     0.179863
      f0      :     0.026737  f :     0.119962
      f+1     :     0.016226
      f-1     :     0.014460
      f+2     :     0.019482
      f-2     :     0.016819
      f+3     :     0.010245
      f-3     :     0.015993
  3 N s       :     2.957734  s :     2.957734
      pz      :     1.199156  p :     3.893939
      px      :     1.157201
      py      :     1.537582
      dz2     :     0.044619  d :     0.150543
      dxz     :     0.046416
      dyz     :     0.031986
      dx2y2   :     0.018750
      dxy     :     0.008771
      f0      :     0.002543  f :     0.011692
      f+1     :     0.001908
      f-1     :     0.001982
      f+2     :     0.001792
      f-2     :     0.001763
      f+3     :     0.000979
      f-3     :     0.000726
  4 C s       :     2.803140  s :     2.803140
      pz      :     1.063235  p :     3.308726
      px      :     1.034991
      py      :     1.210500
      dz2     :     0.070284  d :     0.212817
      dxz     :     0.061869
      dyz     :     0.029512
      dx2y2   :     0.032252
      dxy     :     0.018900
      f0      :     0.005555  f :     0.028114
      f+1     :     0.006556
      f-1     :     0.003813
      f+2     :     0.004490
      f-2     :     0.003905
      f+3     :     0.002183
      f-3     :     0.001612
  5 H s       :     0.825086  s :     0.825086
      pz      :     0.029472  p :     0.079157
      px      :     0.021109
      py      :     0.028576
  6 H s       :     0.828865  s :     0.828865
      pz      :     0.016928  p :     0.078601
      px      :     0.034550
      py      :     0.027123
  7 H s       :     0.717834  s :     0.717834
      pz      :     0.043169  p :     0.105341
      px      :     0.022047
      py      :     0.040125
  8 H s       :     0.728567  s :     0.728567
      pz      :     0.037850  p :     0.108842
      px      :     0.029453
      py      :     0.041539
  9 H s       :     0.711492  s :     0.711492
      pz      :     0.016652  p :     0.108415
      px      :     0.056434
      py      :     0.035329
 10 H s       :     0.824837  s :     0.824837
      pz      :     0.013072  p :     0.063299
      px      :     0.035195
      py      :     0.015032
 11 H s       :     0.825718  s :     0.825718
      pz      :     0.016673  p :     0.065006
      px      :     0.015669
      py      :     0.032664
 12 H s       :     0.820925  s :     0.820925
      pz      :     0.022181  p :     0.064210
      px      :     0.013959
      py      :     0.028070


                      *****************************
                      * MAYER POPULATION ANALYSIS *
                      *****************************

  NA   - Mulliken gross atomic population
  ZA   - Total nuclear charge
  QA   - Mulliken gross atomic charge
  VA   - Mayer's total valence
  BVA  - Mayer's bonded valence
  FA   - Mayer's free valence

  ATOM       NA         ZA         QA         VA         BVA        FA
  0 C      6.2281     6.0000    -0.2281     3.9149     3.9149    -0.0000
  1 N      7.3393     7.0000    -0.3393     3.0956     3.0956    -0.0000
  2 C      5.6241     6.0000     0.3759     3.9527     3.9527    -0.0000
  3 N      7.5102     7.0000    -0.5102     3.0477     3.0477    -0.0000
  4 C      6.5296     6.0000    -0.5296     3.7714     3.7714    -0.0000
  5 H      0.9094     1.0000     0.0906     0.9970     0.9970     0.0000
  6 H      0.9132     1.0000     0.0868     1.0004     1.0004    -0.0000
  7 H      0.8089     1.0000     0.1911     0.9652     0.9652     0.0000
  8 H      0.7792     1.0000     0.2208     0.9631     0.9631    -0.0000
  9 H      0.7385     1.0000     0.2615     0.9441     0.9441    -0.0000
 10 H      0.8784     1.0000     0.1216     0.9693     0.9693    -0.0000
 11 H      0.8694     1.0000     0.1306     0.9676     0.9676    -0.0000
 12 H      0.8716     1.0000     0.1284     0.9605     0.9605     0.0000

  Mayer bond orders larger than 0.100000
B(  0-C ,  1-N ) :   0.9473 B(  0-C , 10-H ) :   0.9701 B(  0-C , 11-H ) :   0.9809 
B(  0-C , 12-H ) :   0.9737 B(  1-N ,  2-C ) :   1.1940 B(  1-N ,  7-H ) :   0.9341 
B(  2-C ,  3-N ) :   1.1373 B(  2-C ,  4-C ) :   1.6324 B(  3-N ,  8-H ) :   0.9260 
B(  3-N ,  9-H ) :   0.9160 B(  4-C ,  5-H ) :   1.0122 B(  4-C ,  6-H ) :   1.0057 


-------
TIMINGS
-------

Total SCF time: 0 days 0 hours 0 min 16 sec 

Total time                  ....      16.716 sec
Sum of individual times     ....      16.511 sec  ( 98.8%)

Fock matrix formation       ....      15.640 sec  ( 93.6%)
  Split-RI-J                ....       0.883 sec  (  5.6% of F)
  Chain of spheres X        ....      12.959 sec  ( 82.9% of F)
  XC integration            ....       1.567 sec  ( 10.0% of F)
    Basis function eval.    ....       0.479 sec  ( 30.6% of XC)
    Density eval.           ....       0.345 sec  ( 22.0% of XC)
    XC-Functional eval.     ....       0.138 sec  (  8.8% of XC)
    XC-Potential eval.      ....       0.459 sec  ( 29.3% of XC)
Diagonalization             ....       0.074 sec  (  0.4%)
Density matrix formation    ....       0.007 sec  (  0.0%)
Population analysis         ....       0.012 sec  (  0.1%)
Initial guess               ....       0.090 sec  (  0.5%)
Orbital Transformation      ....       0.000 sec  (  0.0%)
Orbital Orthonormalization  ....       0.000 sec  (  0.0%)
DIIS solution               ....       0.043 sec  (  0.3%)
SOSCF solution              ....       0.045 sec  (  0.3%)
Grid generation             ....       0.601 sec  (  3.6%)

Maximum memory used throughout the entire SCF-calculation: 68.1 MB


-------------------------------------------------------------------------------
                          DFT DISPERSION CORRECTION                            
                                                                               
                              DFTD3 V3.1  Rev 1                                
                              USING zero damping                               
-------------------------------------------------------------------------------
The omegaB97X-D3 functional is recognized. Fit by Chai et al.
Active option DFTDOPT                   ...         3   

molecular C6(AA) [au] = 1312.088290 


            DFT-D V3
 parameters
 s6 scaling factor         :     1.0000 
 rs6 scaling factor        :     1.2810 
 s8 scaling factor         :     1.0000 
 rs8 scaling factor        :     1.0940 
 Damping factor alpha6     :    14.0000 
 Damping factor alpha8     :    16.0000 
 ad hoc parameters k1-k3   :    16.0000     1.3333    -4.0000 

 Edisp/kcal,au: -1.496922095879  -0.002385496950 
 E6   /kcal   :  -0.592427394 
 E8   /kcal   :  -0.904494702 
 % E8         :  60.423632209 

-------------------------   ----------------
Dispersion correction           -0.002385497
-------------------------   ----------------


-------------------------   --------------------
FINAL SINGLE POINT ENERGY      -228.616427095331
-------------------------   --------------------


                            ***************************************
                            *     ORCA property calculations      *
                            ***************************************

                                    ---------------------
                                    Active property flags
                                    ---------------------
   (+) Dipole Moment


------------------------------------------------------------------------------
                       ORCA ELECTRIC PROPERTIES CALCULATION
------------------------------------------------------------------------------

Dipole Moment Calculation                       ... on
Quadrupole Moment Calculation                   ... off
Polarizability Calculation                      ... off
GBWName                                         ... C3_pos.gbw
Electron density file                           ... C3_pos.scfp
The origin for moment calculation is the CENTER OF MASS  = ( 6.832710, -3.890804 -5.527791)

-------------
DIPOLE MOMENT
-------------
                                X             Y             Z
Electronic contribution:      0.75680      -0.10517      -2.62980
Nuclear contribution   :     -1.37336       0.51269       1.66180
                        -----------------------------------------
Total Dipole Moment    :     -0.61656       0.40752      -0.96800
                        -----------------------------------------
Magnitude (a.u.)       :      1.21788
Magnitude (Debye)      :      3.09561



--------------------
Rotational spectrum 
--------------------
 
Rotational constants in cm-1:     0.331915     0.135033     0.098638 
Rotational constants in MHz :  9950.555862  4048.179255  2957.099162 

 Dipole components along the rotational axes: 
x,y,z [a.u.] :     0.055894    -1.212076    -0.104794 
x,y,z [Debye]:     0.142072    -3.080852    -0.266365 

 

Timings for individual modules:

Sum of individual times         ...       17.627 sec (=   0.294 min)
GTO integral calculation        ...        0.563 sec (=   0.009 min)   3.2 %
SCF iterations                  ...       17.063 sec (=   0.284 min)  96.8 %
                             ****ORCA TERMINATED NORMALLY****
TOTAL RUN TIME: 0 days 0 hours 0 minutes 18 seconds 170 msec
