
                                        *****************
                                        * O   R   C   A *
                                        *****************

                                            #,                                       
                                            ###                                      
                                            ####                                     
                                            #####                                    
                                            ######                                   
                                           ########,                                 
                                     ,,################,,,,,                         
                               ,,#################################,,                 
                          ,,##########################################,,             
                       ,#########################################, ''#####,          
                    ,#############################################,,   '####,        
                  ,##################################################,,,,####,       
                ,###########''''           ''''###############################       
              ,#####''   ,,,,##########,,,,          '''####'''          '####       
            ,##' ,,,,###########################,,,                        '##       
           ' ,,###''''                  '''############,,,                           
         ,,##''                                '''############,,,,        ,,,,,,###''
      ,#''                                            '''#######################'''  
     '                                                          ''''####''''         
             ,#######,   #######,   ,#######,      ##                                
            ,#'     '#,  ##    ##  ,#'     '#,    #''#        ######   ,####,        
            ##       ##  ##   ,#'  ##            #'  '#       #        #'  '#        
            ##       ##  #######   ##           ,######,      #####,   #    #        
            '#,     ,#'  ##    ##  '#,     ,#' ,#      #,         ##   #,  ,#        
             '#######'   ##     ##  '#######'  #'      '#     #####' # '####'        



                  #######################################################
                  #                        -***-                        #
                  #          Department of theory and spectroscopy      #
                  #    Directorship and core code : Frank Neese         #
                  #        Max Planck Institute fuer Kohlenforschung    #
                  #                Kaiser Wilhelm Platz 1               #
                  #                 D-45470 Muelheim/Ruhr               #
                  #                      Germany                        #
                  #                                                     #
                  #                  All rights reserved                #
                  #                        -***-                        #
                  #######################################################


                         Program Version 5.0.0 -  RELEASE  -
                                (SVN: $Rev: 19529$)
                ($Date: 2021-06-28 11:36:33 +0200 (Mo, 28 Jun 2021) $)


 With contributions from (in alphabetic order):
   Daniel Aravena         : Magnetic Suceptibility
   Michael Atanasov       : Ab Initio Ligand Field Theory (pilot matlab implementation)
   Alexander A. Auer      : GIAO ZORA, VPT2 properties, NMR spectrum
   Ute Becker             : Parallelization
   Giovanni Bistoni       : ED, misc. LED, open-shell LED, HFLD
   Martin Brehm           : Molecular dynamics
   Dmytro Bykov           : SCF Hessian
   Vijay G. Chilkuri      : MRCI spin determinant printing, contributions to CSF-ICE
   Dipayan Datta          : RHF DLPNO-CCSD density
   Achintya Kumar Dutta   : EOM-CC, STEOM-CC
   Dmitry Ganyushin       : Spin-Orbit,Spin-Spin,Magnetic field MRCI
   Miquel Garcia          : C-PCM Hessian, Gaussian charge scheme
   Yang Guo               : DLPNO-NEVPT2, F12-NEVPT2, CIM, IAO-localization
   Andreas Hansen         : Spin unrestricted coupled pair/coupled cluster methods
   Benjamin Helmich-Paris : MC-RPA, TRAH-SCF, COSX integrals
   Lee Huntington         : MR-EOM, pCC
   Robert Izsak           : Overlap fitted RIJCOSX, COSX-SCS-MP3, EOM
   Marcus Kettner         : VPT2
   Christian Kollmar      : KDIIS, OOCD, Brueckner-CCSD(T), CCSD density, CASPT2, CASPT2-K
   Simone Kossmann        : Meta GGA functionals, TD-DFT gradient, OOMP2, MP2 Hessian
   Martin Krupicka        : Initial AUTO-CI
   Lucas Lang             : DCDCAS
   Marvin Lechner         : AUTO-CI (C++ implementation), FIC-MRCC
   Dagmar Lenk            : GEPOL surface, SMD
   Dimitrios Liakos       : Extrapolation schemes; Compound Job, initial MDCI parallelization
   Dimitrios Manganas     : Further ROCIS development; embedding schemes
   Dimitrios Pantazis     : SARC Basis sets
   Anastasios Papadopoulos: AUTO-CI, single reference methods and gradients
   Taras Petrenko         : DFT Hessian,TD-DFT gradient, ASA, ECA, R-Raman, ABS, FL, XAS/XES, NRVS
   Peter Pinski           : DLPNO-MP2, DLPNO-MP2 Gradient
   Christoph Reimann      : Effective Core Potentials
   Marius Retegan         : Local ZFS, SOC
   Christoph Riplinger    : Optimizer, TS searches, QM/MM, DLPNO-CCSD(T), (RO)-DLPNO pert. Triples
   Tobias Risthaus        : Range-separated hybrids, TD-DFT gradient, RPA, STAB
   Michael Roemelt        : Original ROCIS implementation
   Masaaki Saitow         : Open-shell DLPNO-CCSD energy and density
   Barbara Sandhoefer     : DKH picture change effects
   Avijit Sen             : IP-ROCIS
   Kantharuban Sivalingam : CASSCF convergence, NEVPT2, FIC-MRCI
   Bernardo de Souza      : ESD, SOC TD-DFT
   Georgi Stoychev        : AutoAux, RI-MP2 NMR
   Willem Van den Heuvel  : Paramagnetic NMR
   Boris Wezisla          : Elementary symmetry handling
   Frank Wennmohs         : Technical directorship


 We gratefully acknowledge several colleagues who have allowed us to
 interface, adapt or use parts of their codes:
   Stefan Grimme, W. Hujo, H. Kruse, P. Pracht,  : VdW corrections, initial TS optimization,
                  C. Bannwarth, S. Ehlert          DFT functionals, gCP, sTDA/sTD-DF
   Ed Valeev, F. Pavosevic, A. Kumar             : LibInt (2-el integral package), F12 methods
   Garnet Chan, S. Sharma, J. Yang, R. Olivares  : DMRG
   Ulf Ekstrom                                   : XCFun DFT Library
   Mihaly Kallay                                 : mrcc  (arbitrary order and MRCC methods)
   Jiri Pittner, Ondrej Demel                    : Mk-CCSD
   Frank Weinhold                                : gennbo (NPA and NBO analysis)
   Christopher J. Cramer and Donald G. Truhlar   : smd solvation model
   Lars Goerigk                                  : TD-DFT with DH, B97 family of functionals
   V. Asgeirsson, H. Jonsson                     : NEB implementation
   FAccTs GmbH                                   : IRC, NEB, NEB-TS, DLPNO-Multilevel, CI-OPT
                                                   MM, QMMM, 2- and 3-layer-ONIOM, Crystal-QMMM,
                                                   LR-CPCM, SF, NACMEs, symmetry and pop. for TD-DFT,
                                                   nearIR, NL-DFT gradient (VV10), updates on ESD,
                                                   ML-optimized integration grids
   S Lehtola, MJT Oliveira, MAL Marques          : LibXC Library
   Liviu Ungur et al                             : ANISO software


 Your calculation uses the libint2 library for the computation of 2-el integrals
 For citations please refer to: http://libint.valeyev.net

 Your ORCA version has been built with support for libXC version: 5.1.0
 For citations please refer to: https://tddft.org/programs/libxc/

 This ORCA versions uses:
   CBLAS   interface :  Fast vector & matrix operations
   LAPACKE interface :  Fast linear algebra routines
   SCALAPACK package :  Parallel linear algebra routines
   Shared memory     :  Shared parallel matrices
   BLAS/LAPACK       :  OpenBLAS 0.3.15  USE64BITINT DYNAMIC_ARCH NO_AFFINITY Haswell SINGLE_THREADED
        Core in use  :  Haswell
   Copyright (c) 2011-2014, The OpenBLAS Project


XCFun DFT library Copyright 2009-2010 Ulf Ekstrom and contributors.
See http://admol.org/xcfun for more information.
This is free software; see the source code for copying conditions.
There is ABSOLUTELY NO WARRANTY; not even for MERCHANTABILITY or FITNESS FOR A PARTICULAR PURPOSE.
For details see the documentation.
Scientific users of this library should cite U. Ekstrom, L. Visscher, R. Bast, A. J. Thorvaldsen and K. Ruud;
J.Chem.Theor.Comp. 2010, DOI: 10.1021/ct100117s
XCFun Version 0.99 

================================================================================

----- Orbital basis set information -----
Your calculation utilizes the basis: def2-TZVPD
   F. Weigend and R. Ahlrichs, Phys. Chem. Chem. Phys. 7, 3297 (2005).
   D. Rappoport and F. Furche, J. Chem. Phys. 133 134105 (2010).

----- AuxJ basis set information -----
Your calculation utilizes the auxiliary basis: def2/J
   F. Weigend, Phys. Chem. Chem. Phys. 8, 1057 (2006).

================================================================================
                                        WARNINGS
                       Please study these warnings very carefully!
================================================================================


INFO   : the flag for use of the SHARK integral package has been found!

================================================================================
                                       INPUT FILE
================================================================================
NAME = TZVPD_LC_BLYP_C1_wt_dlpno_pos.com
|  1> !LC-BLYP RIJCOSX def2-TZVPD def2/J TightSCF
|  2> *xyz 0 1 
|  3> C          4.49059        1.15590       -2.46929
|  4> C          4.30539        1.22276       -3.90832
|  5> C          4.63192        2.24637       -4.67096
|  6> N          4.54169        2.14399       -5.98714
|  7> N          5.08409        3.39358       -4.11855
|  8> H          4.92067        3.57050       -3.13587
|  9> H          5.25465        4.19739       -4.70696
| 10> H          3.82453        0.44911       -4.35093
| 11> H          4.34337        1.24932       -6.41665
| 12> H          4.67671        2.95662       -6.57411
| 13> C          5.94213        0.93950       -2.03689
| 14> H          3.86431        0.32853       -2.13661
| 15> H          4.07623        2.04999       -1.98901
| 16> H          6.32982        0.06401       -2.51451
| 17> H          5.98308        0.81426       -0.97504
| 18> H          6.52865        1.78889       -2.31873
| 19> *
| 20> 
| 21> %MaxCore 64000
| 22> 
| 23> %pal nprocs 4
| 24> end  
| 25> 
| 26> %scf
| 27>   MaxIter 150
| 28> end
| 29> 
| 30> 
| 31>                          ****END OF INPUT****
================================================================================

                       ****************************
                       * Single Point Calculation *
                       ****************************

---------------------------------
CARTESIAN COORDINATES (ANGSTROEM)
---------------------------------
  C      4.490590    1.155900   -2.469290
  C      4.305390    1.222760   -3.908320
  C      4.631920    2.246370   -4.670960
  N      4.541690    2.143990   -5.987140
  N      5.084090    3.393580   -4.118550
  H      4.920670    3.570500   -3.135870
  H      5.254650    4.197390   -4.706960
  H      3.824530    0.449110   -4.350930
  H      4.343370    1.249320   -6.416650
  H      4.676710    2.956620   -6.574110
  C      5.942130    0.939500   -2.036890
  H      3.864310    0.328530   -2.136610
  H      4.076230    2.049990   -1.989010
  H      6.329820    0.064010   -2.514510
  H      5.983080    0.814260   -0.975040
  H      6.528650    1.788890   -2.318730

----------------------------
CARTESIAN COORDINATES (A.U.)
----------------------------
  NO LB      ZA    FRAG     MASS         X           Y           Z
   0 C     6.0000    0    12.011    8.485985    2.184334   -4.666282
   1 C     6.0000    0    12.011    8.136008    2.310682   -7.385654
   2 C     6.0000    0    12.011    8.753060    4.245024   -8.826835
   3 N     7.0000    0    14.007    8.582550    4.051554  -11.314055
   4 N     7.0000    0    14.007    9.607538    6.412937   -7.782932
   5 H     1.0000    0     1.008    9.298719    6.747267   -5.925935
   6 H     1.0000    0     1.008    9.929849    7.931918   -8.894865
   7 H     1.0000    0     1.008    7.227314    0.848695   -8.222066
   8 H     1.0000    0     1.008    8.207780    2.360873  -12.125711
   9 H     1.0000    0     1.008    8.837701    5.587202  -12.423267
  10 C     6.0000    0    12.011   11.228998    1.775398   -3.849164
  11 H     1.0000    0     1.008    7.302488    0.620832   -4.037608
  12 H     1.0000    0     1.008    7.702958    3.873920   -3.758684
  13 H     1.0000    0     1.008   11.961626    0.120961   -4.751735
  14 H     1.0000    0     1.008   11.306383    1.538728   -1.842559
  15 H     1.0000    0     1.008   12.337361    3.380512   -4.381765

--------------------------------
INTERNAL COORDINATES (ANGSTROEM)
--------------------------------
 C      0   0   0     0.000000000000     0.00000000     0.00000000
 C      1   0   0     1.452438170973     0.00000000     0.00000000
 C      2   1   0     1.317580753730   125.28453029     0.00000000
 N      3   2   1     1.323235772529   119.91566171   173.18826598
 N      3   2   1     1.351186627043   120.39112332   354.48821383
 H      5   3   2     1.011764184581   119.43884036   342.13850582
 H      5   3   2     1.010656993149   119.58539031   185.29632085
 H      2   1   3     1.012750845075   117.28263783   184.79039578
 H      4   3   2     1.012049441184   120.25788289   351.78722447
 H      4   3   2     1.011499727237   120.39384801   172.23558929
 C      1   2   3     1.529956565266   114.04780337   285.32676705
 H      1   2   3     1.089698920666   105.31614526   163.90058499
 H      1   2   3     1.096248154434   110.38507371    50.41661390
 H     11   1   2     1.070003336724   109.47101574   305.03093902
 H     11   1   2     1.069994104002   109.47140393   185.03055546
 H     11   1   2     1.070001340233   109.47108837    65.03054338

---------------------------
INTERNAL COORDINATES (A.U.)
---------------------------
 C      0   0   0     0.000000000000     0.00000000     0.00000000
 C      1   0   0     2.744710369593     0.00000000     0.00000000
 C      2   1   0     2.489866783875   125.28453029     0.00000000
 N      3   2   1     2.500553220687   119.91566171   173.18826598
 N      3   2   1     2.553372680928   120.39112332   354.48821383
 H      5   3   2     1.911957220967   119.43884036   342.13850582
 H      5   3   2     1.909864932383   119.58539031   185.29632085
 H      2   1   3     1.913821739089   117.28263783   184.79039578
 H      4   3   2     1.912496277825   120.25788289   351.78722447
 H      4   3   2     1.911457469013   120.39384801   172.23558929
 C      1   2   3     2.891198905147   114.04780337   285.32676705
 H      1   2   3     2.059232528488   105.31614526   163.90058499
 H      1   2   3     2.071608786697   110.38507371    50.41661390
 H     11   1   2     2.022013268790   109.47101574   305.03093902
 H     11   1   2     2.021995821475   109.47140393   185.03055546
 H     11   1   2     2.022009495969   109.47108837    65.03054338

---------------------
BASIS SET INFORMATION
---------------------
There are 3 groups of distinct atoms

 Group   1 Type C   : 12s6p3d1f contracted to 6s3p3d1f pattern {621111/411/111/1}
 Group   2 Type N   : 12s6p3d1f contracted to 6s3p3d1f pattern {621111/411/111/1}
 Group   3 Type H   : 5s2p contracted to 3s2p pattern {311/11}

Atom   0C    basis set group =>   1
Atom   1C    basis set group =>   1
Atom   2C    basis set group =>   1
Atom   3N    basis set group =>   2
Atom   4N    basis set group =>   2
Atom   5H    basis set group =>   3
Atom   6H    basis set group =>   3
Atom   7H    basis set group =>   3
Atom   8H    basis set group =>   3
Atom   9H    basis set group =>   3
Atom  10C    basis set group =>   1
Atom  11H    basis set group =>   3
Atom  12H    basis set group =>   3
Atom  13H    basis set group =>   3
Atom  14H    basis set group =>   3
Atom  15H    basis set group =>   3
---------------------------------
AUXILIARY/J BASIS SET INFORMATION
---------------------------------
There are 3 groups of distinct atoms

 Group   1 Type C   : 12s5p4d2f1g contracted to 6s4p3d1f1g pattern {711111/2111/211/2/1}
 Group   2 Type N   : 12s5p4d2f1g contracted to 6s4p3d1f1g pattern {711111/2111/211/2/1}
 Group   3 Type H   : 5s2p1d contracted to 3s1p1d pattern {311/2/1}

Atom   0C    basis set group =>   1
Atom   1C    basis set group =>   1
Atom   2C    basis set group =>   1
Atom   3N    basis set group =>   2
Atom   4N    basis set group =>   2
Atom   5H    basis set group =>   3
Atom   6H    basis set group =>   3
Atom   7H    basis set group =>   3
Atom   8H    basis set group =>   3
Atom   9H    basis set group =>   3
Atom  10C    basis set group =>   1
Atom  11H    basis set group =>   3
Atom  12H    basis set group =>   3
Atom  13H    basis set group =>   3
Atom  14H    basis set group =>   3
Atom  15H    basis set group =>   3


           ************************************************************
           *        Program running with 4 parallel MPI-processes     *
           *              working on a common directory               *
           ************************************************************
------------------------------------------------------------------------------
                           ORCA GTO INTEGRAL CALCULATION
                           -- RI-GTO INTEGRALS CHOSEN --
------------------------------------------------------------------------------
------------------------------------------------------------------------------
                   ___                                                        
                  /   \      - P O W E R E D   B Y -                         
                 /     \                                                     
                 |  |  |   _    _      __       _____    __    __             
                 |  |  |  | |  | |    /  \     |  _  \  |  |  /  |          
                  \  \/   | |  | |   /    \    | | | |  |  | /  /          
                 / \  \   | |__| |  /  /\  \   | |_| |  |  |/  /          
                |  |  |   |  __  | /  /__\  \  |    /   |      \           
                |  |  |   | |  | | |   __   |  |    \   |  |\   \          
                \     /   | |  | | |  |  |  |  | |\  \  |  | \   \       
                 \___/    |_|  |_| |__|  |__|  |_| \__\ |__|  \__/        
                                                                              
                      - O R C A' S   B I G   F R I E N D -                    
                                      &                                       
                       - I N T E G R A L  F E E D E R -                       
                                                                              
 v1 FN, 2020, v2 2021                                                         
------------------------------------------------------------------------------


Reading SHARK input file TZVPD_LC_BLYP_C1_wt_dlpno_pos.SHARKINP.tmp ... ok
----------------------
SHARK INTEGRAL PACKAGE
----------------------

Number of atoms                             ...     16
Number of basis functions                   ...    312
Number of shells                            ...    128
Maximum angular momentum                    ...      3
Integral batch strategy                     ... SHARK/LIBINT Hybrid
RI-J (if used) integral strategy            ... SPLIT-RIJ (Revised 2003 algorithm where possible)
Printlevel                                  ...      1
Contraction scheme used                     ... SEGMENTED contraction
Coulomb Range Separation                    ... NOT USED
Exchange Range Separation                   ... Long Range
   Mu parameter                             ...  0.330000
   Scaling (regular/separated)              ...  0.000000  1.000000
Finite Nucleus Model                        ... NOT USED
Auxiliary Coulomb fitting basis             ... AVAILABLE
   # of basis functions in Aux-J            ...    404
   # of shells in Aux-J                     ...    140
   Maximum angular momentum in Aux-J        ...      4
Auxiliary J/K fitting basis                 ... NOT available
Auxiliary Correlation fitting basis         ... NOT available
Auxiliary 'external' fitting basis          ... NOT available
Integral threshold                          ...     2.500000e-11
Primitive cut-off                           ...     2.500000e-12
Primitive pair pre-selection threshold      ...     2.500000e-12

Calculating pre-screening integrals         ... done (  0.1 sec) Dimension = 128
Organizing shell pair data                  ... done (  0.1 sec)
Shell pair information
Total number of shell pairs                 ...      8256
Shell pairs after pre-screening             ...      7929
Total number of primitive shell pairs       ...     20665
Primitive shell pairs kept                  ...     16308
          la=0 lb=0:   2061 shell pairs
          la=1 lb=0:   2412 shell pairs
          la=1 lb=1:    725 shell pairs
          la=2 lb=0:   1155 shell pairs
          la=2 lb=1:    674 shell pairs
          la=2 lb=2:    170 shell pairs
          la=3 lb=0:    379 shell pairs
          la=3 lb=1:    226 shell pairs
          la=3 lb=2:    106 shell pairs
          la=3 lb=3:     21 shell pairs

Calculating one electron integrals          ... done (  0.0 sec)
Calculating RI/J V-Matrix + Cholesky decomp.... done (  0.0 sec)
Calculating Nuclear repulsion               ... done (  0.0 sec) ENN=    248.609024405615 Eh

SHARK setup successfully completed in   0.3 seconds

Maximum memory used throughout the entire GTOINT-calculation: 14.0 MB


           ************************************************************
           *        Program running with 4 parallel MPI-processes     *
           *              working on a common directory               *
           ************************************************************
-------------------------------------------------------------------------------
                                 ORCA SCF
-------------------------------------------------------------------------------

------------
SCF SETTINGS
------------
Hamiltonian:
 Density Functional     Method          .... DFT(GTOs)
 Exchange Functional    Exchange        .... WB88
 Correlation Functional Correlation     .... LYP
 Gradients option       PostSCFGGA      .... off
   Density functional embedding theory  .... OFF
 Long-range corrected/Screened/Range-Separated Hybrid DFT is turned on
   Amount of maximum screened exact exchange              ....  1.000000
   Range separation parameter mu (erf(mu*r12)/r12)        ....  0.330000
 RI-approximation to the Coulomb term is turned on
   Number of AuxJ basis functions       .... 404
   RIJ-COSX (HFX calculated with COS-X)).... on


General Settings:
 Integral files         IntName         .... TZVPD_LC_BLYP_C1_wt_dlpno_pos
 Hartree-Fock type      HFTyp           .... RHF
 Total Charge           Charge          ....    0
 Multiplicity           Mult            ....    1
 Number of Electrons    NEL             ....   48
 Basis Dimension        Dim             ....  312
 Nuclear Repulsion      ENuc            ....    248.6090244056 Eh

Convergence Acceleration:
 DIIS                   CNVDIIS         .... on
   Start iteration      DIISMaxIt       ....    12
   Startup error        DIISStart       ....  0.200000
   # of expansion vecs  DIISMaxEq       ....     5
   Bias factor          DIISBfac        ....   1.050
   Max. coefficient     DIISMaxC        ....  10.000
 Trust-Rad. Augm. Hess. CNVTRAH         .... auto
   Auto Start mean grad. ratio tolernc. ....  1.125000
   Auto Start start iteration           ....    20
   Auto Start num. interpolation iter.  ....    10
   Max. Number of Micro iterations      ....    16
   Max. Number of Macro iterations      .... Maxiter - #DIIS iter
   Number of Davidson start vectors     ....     2
   Converg. threshold I  (grad. norm)   ....   1.000e-05
   Converg. threshold II (energy diff.) ....   1.000e-08
   Grad. Scal. Fac. for Micro threshold ....   0.100
   Minimum threshold for Micro iter.    ....   0.010
   NR start threshold (gradient norm)   ....   0.001
   Initial trust radius                 ....   0.400
   Minimum AH scaling param. (alpha)    ....   1.000
   Maximum AH scaling param. (alpha)    .... 1000.000
   Orbital update algorithm             .... Taylor
   White noise on init. David. guess    .... on
   Maximum white noise                  ....   0.010
   Quad. conv. algorithm                .... NR
 SOSCF                  CNVSOSCF        .... on
   Start iteration      SOSCFMaxIt      ....   150
   Startup grad/error   SOSCFStart      ....  0.003300
 Level Shifting         CNVShift        .... on
   Level shift para.    LevelShift      ....    0.2500
   Turn off err/grad.   ShiftErr        ....    0.0010
 Zerner damping         CNVZerner       .... off
 Static damping         CNVDamp         .... on
   Fraction old density DampFac         ....    0.7000
   Max. Damping (<1)    DampMax         ....    0.9800
   Min. Damping (>=0)   DampMin         ....    0.0000
   Turn off err/grad.   DampErr         ....    0.1000
 Fernandez-Rico         CNVRico         .... off

SCF Procedure:
 Maximum # iterations   MaxIter         ....   150
 SCF integral mode      SCFMode         .... Direct
   Integral package                     .... SHARK and LIBINT hybrid scheme
 Reset frequency        DirectResetFreq ....    20
 Integral Threshold     Thresh          ....  2.500e-11 Eh
 Primitive CutOff       TCut            ....  2.500e-12 Eh

Convergence Tolerance:
 Convergence Check Mode ConvCheckMode   .... Total+1el-Energy
 Convergence forced     ConvForced      .... 0
 Energy Change          TolE            ....  1.000e-08 Eh
 1-El. energy change                    ....  1.000e-05 Eh
 Orbital Gradient       TolG            ....  1.000e-05
 Orbital Rotation angle TolX            ....  1.000e-05
 DIIS Error             TolErr          ....  5.000e-07


Diagonalization of the overlap matrix:
Smallest eigenvalue                        ... 1.541e-06
Time for diagonalization                   ...    0.027 sec
Threshold for overlap eigenvalues          ... 1.000e-08
Number of eigenvalues below threshold      ... 0
Time for construction of square roots      ...    0.015 sec
Total time needed                          ...    0.043 sec

Time for model grid setup =    0.118 sec

------------------------------
INITIAL GUESS: MODEL POTENTIAL
------------------------------
Loading Hartree-Fock densities                     ... done
Calculating cut-offs                               ... done
Initializing the effective Hamiltonian             ... done
Setting up the integral package (SHARK)            ... done
Starting the Coulomb interaction                   ... done (   0.1 sec)
Reading the grid                                   ... done
Mapping shells                                     ... done
Starting the XC term evaluation                    ... done (   0.2 sec)
  promolecular density results
     # of electrons  =     47.996076072
     EX              =    -36.588050507
     EC              =     -1.577759004
     EX+EC           =    -38.165809511
Transforming the Hamiltonian                       ... done (   0.0 sec)
Diagonalizing the Hamiltonian                      ... done (   0.0 sec)
Back transforming the eigenvectors                 ... done (   0.0 sec)
Now organizing SCF variables                       ... done
                      ------------------
                      INITIAL GUESS DONE (   0.5 sec)
                      ------------------
-------------------
DFT GRID GENERATION
-------------------

General Integration Accuracy     IntAcc      ... 4.388
Radial Grid Type                 RadialGrid  ... OptM3 with GC (2021)
Angular Grid (max. ang.)         AngularGrid ... 4 (Lebedev-302)
Angular grid pruning method      GridPruning ... 4 (adaptive)
Weight generation scheme         WeightScheme... Becke
Basis function cutoff            BFCut       ... 1.0000e-11
Integration weight cutoff        WCut        ... 1.0000e-14
Angular grids for H and He will be reduced by one unit
Partially contracted basis set               ... off
Rotationally invariant grid construction     ... off

Total number of grid points                  ...    71763
Total number of batches                      ...     1130
Average number of points per batch           ...       63
Average number of grid points per atom       ...     4485
Time for grid setup =    0.442 sec

--------------------
COSX GRID GENERATION
--------------------

GRIDX 1
-------
General Integration Accuracy     IntAcc      ... 3.816
Radial Grid Type                 RadialGrid  ... OptM3 with GC (2021)
Angular Grid (max. ang.)         AngularGrid ... 1 (Lebedev-50)
Angular grid pruning method      GridPruning ... 4 (adaptive)
Weight generation scheme         WeightScheme... Becke
Basis function cutoff            BFCut       ... 1.0000e-11
Integration weight cutoff        WCut        ... 1.0000e-14
Angular grids for H and He will be reduced by one unit
Partially contracted basis set               ... on
Rotationally invariant grid construction     ... off

Total number of grid points                  ...     9005
Total number of batches                      ...      148
Average number of points per batch           ...       60
Average number of grid points per atom       ...      563
UseSFitting                                  ... on

GRIDX 2
-------
General Integration Accuracy     IntAcc      ... 4.020
Radial Grid Type                 RadialGrid  ... OptM3 with GC (2021)
Angular Grid (max. ang.)         AngularGrid ... 2 (Lebedev-110)
Angular grid pruning method      GridPruning ... 4 (adaptive)
Weight generation scheme         WeightScheme... Becke
Basis function cutoff            BFCut       ... 1.0000e-11
Integration weight cutoff        WCut        ... 1.0000e-14
Angular grids for H and He will be reduced by one unit
Partially contracted basis set               ... on
Rotationally invariant grid construction     ... off

Total number of grid points                  ...    21069
Total number of batches                      ...      337
Average number of points per batch           ...       62
Average number of grid points per atom       ...     1317
UseSFitting                                  ... on

GRIDX 3
-------
General Integration Accuracy     IntAcc      ... 4.338
Radial Grid Type                 RadialGrid  ... OptM3 with GC (2021)
Angular Grid (max. ang.)         AngularGrid ... 3 (Lebedev-194)
Angular grid pruning method      GridPruning ... 4 (adaptive)
Weight generation scheme         WeightScheme... Becke
Basis function cutoff            BFCut       ... 1.0000e-11
Integration weight cutoff        WCut        ... 1.0000e-14
Angular grids for H and He will be reduced by one unit
Partially contracted basis set               ... on
Rotationally invariant grid construction     ... off

Total number of grid points                  ...    47392
Total number of batches                      ...      748
Average number of points per batch           ...       63
Average number of grid points per atom       ...     2962
UseSFitting                                  ... on

Time for X-Grid setup             =    0.559 sec

--------------
SCF ITERATIONS
--------------
ITER       Energy         Delta-E        Max-DP      RMS-DP      [F,P]     Damp
               ***  Starting incremental Fock matrix formation  ***
  0   -266.9761395523   0.000000000000 0.21022914  0.00275905  0.2385491 0.7000
  1   -267.1129566802  -0.136817127884 0.16166199  0.00230122  0.1309167 0.7000
                               ***Turning on DIIS***
  2   -267.1798696999  -0.066913019711 0.44283451  0.00570450  0.0591148 0.0000
  3   -267.2836416587  -0.103771958762 0.11103895  0.00132917  0.0600715 0.0000
  4   -267.3032639548  -0.019622296117 0.04224524  0.00046638  0.0078574 0.0000
                      *** Initiating the SOSCF procedure ***
                           *** Shutting down DIIS ***
                      *** Re-Reading the Fockian *** 
                      *** Removing any level shift *** 
ITER      Energy       Delta-E        Grad      Rot      Max-DP    RMS-DP
  5   -267.30369750  -0.0004335450  0.000981  0.000981  0.017395  0.000194
               *** Restarting incremental Fock matrix formation ***
  6   -267.30374127  -0.0000437720  0.000498  0.001460  0.009100  0.000179
  7   -267.30375601  -0.0000147361  0.000337  0.001342  0.004518  0.000110
  8   -267.30376071  -0.0000047061  0.000099  0.000211  0.004266  0.000062
  9   -267.30376119  -0.0000004730  0.000044  0.000078  0.001581  0.000023
 10   -267.30376124  -0.0000000514  0.000015  0.000042  0.001151  0.000011
 11   -267.30376125  -0.0000000138  0.000004  0.000015  0.003781  0.000027
                  ***Gradient check signals convergence***
              ***Rediagonalizing the Fockian in SOSCF/NRSCF***

               *****************************************************
               *                     SUCCESS                       *
               *           SCF CONVERGED AFTER  12 CYCLES          *
               *****************************************************


----------------
TOTAL SCF ENERGY
----------------

Total Energy       :         -267.30376125 Eh           -7273.70513 eV

Components:
Nuclear Repulsion  :          248.60902441 Eh            6764.99548 eV
Electronic Energy  :         -515.91278566 Eh          -14038.70061 eV
One Electron Energy:         -853.47862645 Eh          -23224.33413 eV
Two Electron Energy:          337.56584080 Eh            9185.63352 eV
Max COSX asymmetry :            0.00000302 Eh               0.00008 eV

Virial components:
Potential Energy   :         -534.20767151 Eh          -14536.52976 eV
Kinetic Energy     :          266.90391026 Eh            7262.82463 eV
Virial Ratio       :            2.00149811


DFT components:
N(Alpha)           :       23.999955037656 electrons
N(Beta)            :       23.999955037656 electrons
N(Total)           :       47.999910075312 electrons
E(XC)              :      -30.602548362946 Eh       
DFET-embed. en.    :        0.000000000000 Eh       

---------------
SCF CONVERGENCE
---------------

  Last Energy change         ...    1.0373e-09  Tolerance :   1.0000e-08
  Last MAX-Density change    ...    2.1758e-03  Tolerance :   1.0000e-07
  Last RMS-Density change    ...    1.4826e-05  Tolerance :   5.0000e-09
  Last Orbital Gradient      ...    1.3315e-06  Tolerance :   1.0000e-05
  Last Orbital Rotation      ...    3.8797e-06  Tolerance :   1.0000e-05

             **** THE GBW FILE WAS UPDATED (TZVPD_LC_BLYP_C1_wt_dlpno_pos.gbw) ****
             **** DENSITY TZVPD_LC_BLYP_C1_wt_dlpno_pos.scfp WAS UPDATED ****
             **** ENERGY FILE WAS UPDATED (TZVPD_LC_BLYP_C1_wt_dlpno_pos.en.tmp) ****
             **** THE GBW FILE WAS UPDATED (TZVPD_LC_BLYP_C1_wt_dlpno_pos.gbw) ****
             **** DENSITY TZVPD_LC_BLYP_C1_wt_dlpno_pos.scfp WAS UPDATED ****
----------------
ORBITAL ENERGIES
----------------

  NO   OCC          E(Eh)            E(eV) 
   0   2.0000     -14.171158      -385.6168 
   1   2.0000     -14.168680      -385.5494 
   2   2.0000     -10.113343      -275.1981 
   3   2.0000     -10.041756      -273.2501 
   4   2.0000     -10.029309      -272.9114 
   5   2.0000      -9.989805      -271.8364 
   6   2.0000      -1.061907       -28.8960 
   7   2.0000      -0.971226       -26.4284 
   8   2.0000      -0.881374       -23.9834 
   9   2.0000      -0.801814       -21.8185 
  10   2.0000      -0.724975       -19.7276 
  11   2.0000      -0.683827       -18.6079 
  12   2.0000      -0.647138       -17.6095 
  13   2.0000      -0.612944       -16.6791 
  14   2.0000      -0.575496       -15.6600 
  15   2.0000      -0.540746       -14.7145 
  16   2.0000      -0.528111       -14.3706 
  17   2.0000      -0.493041       -13.4163 
  18   2.0000      -0.490140       -13.3374 
  19   2.0000      -0.451270       -12.2797 
  20   2.0000      -0.426535       -11.6066 
  21   2.0000      -0.413595       -11.2545 
  22   2.0000      -0.365386        -9.9426 
  23   2.0000      -0.254477        -6.9247 
  24   0.0000       0.046855         1.2750 
  25   0.0000       0.071745         1.9523 
  26   0.0000       0.077244         2.1019 
  27   0.0000       0.086780         2.3614 
  28   0.0000       0.102978         2.8022 
  29   0.0000       0.110212         2.9990 
  30   0.0000       0.119060         3.2398 
  31   0.0000       0.138916         3.7801 
  32   0.0000       0.147727         4.0198 
  33   0.0000       0.161302         4.3893 
  34   0.0000       0.162559         4.4234 
  35   0.0000       0.176824         4.8116 
  36   0.0000       0.186895         5.0857 
  37   0.0000       0.189462         5.1555 
  38   0.0000       0.191528         5.2117 
  39   0.0000       0.205054         5.5798 
  40   0.0000       0.212585         5.7847 
  41   0.0000       0.217549         5.9198 
  42   0.0000       0.223046         6.0694 
  43   0.0000       0.235132         6.3983 
  44   0.0000       0.251250         6.8369 
  45   0.0000       0.251813         6.8522 
  46   0.0000       0.258490         7.0339 
  47   0.0000       0.264160         7.1882 
  48   0.0000       0.279027         7.5927 
  49   0.0000       0.287096         7.8123 
  50   0.0000       0.293432         7.9847 
  51   0.0000       0.297296         8.0898 
  52   0.0000       0.311156         8.4670 
  53   0.0000       0.317591         8.6421 
  54   0.0000       0.320041         8.7087 
  55   0.0000       0.324983         8.8432 
  56   0.0000       0.329747         8.9729 
  57   0.0000       0.333967         9.0877 
  58   0.0000       0.338597         9.2137 
  59   0.0000       0.345044         9.3891 
  60   0.0000       0.349917         9.5217 
  61   0.0000       0.359802         9.7907 
  62   0.0000       0.366409         9.9705 
  63   0.0000       0.373422        10.1613 
  64   0.0000       0.380928        10.3656 
  65   0.0000       0.382757        10.4154 
  66   0.0000       0.392549        10.6818 
  67   0.0000       0.402188        10.9441 
  68   0.0000       0.408875        11.1261 
  69   0.0000       0.412644        11.2286 
  70   0.0000       0.420848        11.4519 
  71   0.0000       0.425050        11.5662 
  72   0.0000       0.429931        11.6990 
  73   0.0000       0.439135        11.9495 
  74   0.0000       0.448707        12.2099 
  75   0.0000       0.459238        12.4965 
  76   0.0000       0.461150        12.5485 
  77   0.0000       0.476303        12.9609 
  78   0.0000       0.480924        13.0866 
  79   0.0000       0.486558        13.2399 
  80   0.0000       0.491139        13.3646 
  81   0.0000       0.493538        13.4298 
  82   0.0000       0.506116        13.7721 
  83   0.0000       0.512176        13.9370 
  84   0.0000       0.515547        14.0287 
  85   0.0000       0.519369        14.1327 
  86   0.0000       0.530505        14.4358 
  87   0.0000       0.539958        14.6930 
  88   0.0000       0.543589        14.7918 
  89   0.0000       0.548940        14.9374 
  90   0.0000       0.551243        15.0001 
  91   0.0000       0.557142        15.1606 
  92   0.0000       0.571552        15.5527 
  93   0.0000       0.583468        15.8770 
  94   0.0000       0.593538        16.1510 
  95   0.0000       0.600202        16.3323 
  96   0.0000       0.605303        16.4711 
  97   0.0000       0.610195        16.6043 
  98   0.0000       0.623447        16.9649 
  99   0.0000       0.627332        17.0706 
 100   0.0000       0.636410        17.3176 
 101   0.0000       0.637132        17.3372 
 102   0.0000       0.656715        17.8701 
 103   0.0000       0.667530        18.1644 
 104   0.0000       0.676616        18.4116 
 105   0.0000       0.687921        18.7193 
 106   0.0000       0.708043        19.2668 
 107   0.0000       0.712392        19.3852 
 108   0.0000       0.727165        19.7872 
 109   0.0000       0.745649        20.2901 
 110   0.0000       0.747414        20.3382 
 111   0.0000       0.750775        20.4296 
 112   0.0000       0.762385        20.7455 
 113   0.0000       0.767296        20.8792 
 114   0.0000       0.785437        21.3728 
 115   0.0000       0.796817        21.6825 
 116   0.0000       0.801526        21.8106 
 117   0.0000       0.814164        22.1545 
 118   0.0000       0.821456        22.3530 
 119   0.0000       0.831234        22.6190 
 120   0.0000       0.839578        22.8461 
 121   0.0000       0.848395        23.0860 
 122   0.0000       0.855976        23.2923 
 123   0.0000       0.860585        23.4177 
 124   0.0000       0.870141        23.6777 
 125   0.0000       0.879155        23.9230 
 126   0.0000       0.894936        24.3524 
 127   0.0000       0.901682        24.5360 
 128   0.0000       0.916730        24.9455 
 129   0.0000       0.941402        25.6169 
 130   0.0000       0.963837        26.2273 
 131   0.0000       0.968454        26.3530 
 132   0.0000       0.994090        27.0506 
 133   0.0000       1.015844        27.6425 
 134   0.0000       1.023957        27.8633 
 135   0.0000       1.047249        28.4971 
 136   0.0000       1.059357        28.8266 
 137   0.0000       1.081226        29.4217 
 138   0.0000       1.095395        29.8072 
 139   0.0000       1.110543        30.2194 
 140   0.0000       1.126045        30.6412 
 141   0.0000       1.131266        30.7833 
 142   0.0000       1.159180        31.5429 
 143   0.0000       1.173146        31.9229 
 144   0.0000       1.212735        33.0002 
 145   0.0000       1.250719        34.0338 
 146   0.0000       1.265430        34.4341 
 147   0.0000       1.304690        35.5024 
 148   0.0000       1.318980        35.8913 
 149   0.0000       1.360699        37.0265 
 150   0.0000       1.370413        37.2908 
 151   0.0000       1.379949        37.5503 
 152   0.0000       1.404540        38.2195 
 153   0.0000       1.441518        39.2257 
 154   0.0000       1.455703        39.6117 
 155   0.0000       1.464978        39.8641 
 156   0.0000       1.494713        40.6732 
 157   0.0000       1.514107        41.2009 
 158   0.0000       1.549366        42.1604 
 159   0.0000       1.564026        42.5593 
 160   0.0000       1.597584        43.4725 
 161   0.0000       1.652664        44.9713 
 162   0.0000       1.671049        45.4715 
 163   0.0000       1.701360        46.2964 
 164   0.0000       1.726804        46.9887 
 165   0.0000       1.750281        47.6276 
 166   0.0000       1.783449        48.5301 
 167   0.0000       1.813841        49.3571 
 168   0.0000       1.848517        50.3007 
 169   0.0000       1.890122        51.4328 
 170   0.0000       1.895387        51.5761 
 171   0.0000       1.900487        51.7149 
 172   0.0000       1.911071        52.0029 
 173   0.0000       1.932761        52.5931 
 174   0.0000       1.943243        52.8783 
 175   0.0000       1.960814        53.3565 
 176   0.0000       1.979784        53.8727 
 177   0.0000       1.987234        54.0754 
 178   0.0000       1.997794        54.3627 
 179   0.0000       2.016464        54.8708 
 180   0.0000       2.023087        55.0510 
 181   0.0000       2.037166        55.4341 
 182   0.0000       2.072334        56.3911 
 183   0.0000       2.091152        56.9031 
 184   0.0000       2.102347        57.2078 
 185   0.0000       2.126987        57.8783 
 186   0.0000       2.170988        59.0756 
 187   0.0000       2.207246        60.0622 
 188   0.0000       2.218047        60.3561 
 189   0.0000       2.244068        61.0642 
 190   0.0000       2.250668        61.2438 
 191   0.0000       2.299704        62.5781 
 192   0.0000       2.319363        63.1131 
 193   0.0000       2.343251        63.7631 
 194   0.0000       2.376114        64.6573 
 195   0.0000       2.414833        65.7110 
 196   0.0000       2.435725        66.2794 
 197   0.0000       2.453248        66.7563 
 198   0.0000       2.485360        67.6301 
 199   0.0000       2.508988        68.2730 
 200   0.0000       2.520759        68.5933 
 201   0.0000       2.549094        69.3644 
 202   0.0000       2.570165        69.9377 
 203   0.0000       2.600834        70.7723 
 204   0.0000       2.627511        71.4982 
 205   0.0000       2.638695        71.8026 
 206   0.0000       2.649924        72.1081 
 207   0.0000       2.669212        72.6330 
 208   0.0000       2.676916        72.8426 
 209   0.0000       2.705891        73.6310 
 210   0.0000       2.733489        74.3820 
 211   0.0000       2.750441        74.8433 
 212   0.0000       2.793338        76.0106 
 213   0.0000       2.820439        76.7480 
 214   0.0000       2.837988        77.2256 
 215   0.0000       2.845319        77.4251 
 216   0.0000       2.874431        78.2173 
 217   0.0000       2.916212        79.3542 
 218   0.0000       2.924705        79.5853 
 219   0.0000       2.930213        79.7352 
 220   0.0000       2.940797        80.0232 
 221   0.0000       2.960491        80.5590 
 222   0.0000       2.991869        81.4129 
 223   0.0000       3.047501        82.9267 
 224   0.0000       3.061076        83.2961 
 225   0.0000       3.082922        83.8906 
 226   0.0000       3.119317        84.8809 
 227   0.0000       3.128952        85.1431 
 228   0.0000       3.170331        86.2691 
 229   0.0000       3.180871        86.5559 
 230   0.0000       3.201685        87.1223 
 231   0.0000       3.249341        88.4191 
 232   0.0000       3.256594        88.6164 
 233   0.0000       3.266618        88.8892 
 234   0.0000       3.291308        89.5611 
 235   0.0000       3.316364        90.2428 
 236   0.0000       3.350771        91.1791 
 237   0.0000       3.360831        91.4529 
 238   0.0000       3.379829        91.9698 
 239   0.0000       3.392031        92.3018 
 240   0.0000       3.425232        93.2053 
 241   0.0000       3.446998        93.7976 
 242   0.0000       3.457795        94.0914 
 243   0.0000       3.491518        95.0090 
 244   0.0000       3.500230        95.2461 
 245   0.0000       3.529615        96.0457 
 246   0.0000       3.568164        97.0947 
 247   0.0000       3.579517        97.4036 
 248   0.0000       3.598991        97.9335 
 249   0.0000       3.625242        98.6479 
 250   0.0000       3.637533        98.9823 
 251   0.0000       3.690540       100.4247 
 252   0.0000       3.710277       100.9618 
 253   0.0000       3.733146       101.5841 
 254   0.0000       3.758303       102.2686 
 255   0.0000       3.774359       102.7055 
 256   0.0000       3.794188       103.2451 
 257   0.0000       3.866225       105.2053 
 258   0.0000       3.874318       105.4256 
 259   0.0000       3.970989       108.0561 
 260   0.0000       3.992543       108.6426 
 261   0.0000       3.998976       108.8177 
 262   0.0000       4.048784       110.1730 
 263   0.0000       4.079519       111.0094 
 264   0.0000       4.112895       111.9176 
 265   0.0000       4.154243       113.0427 
 266   0.0000       4.182456       113.8104 
 267   0.0000       4.280169       116.4693 
 268   0.0000       4.305963       117.1712 
 269   0.0000       4.321039       117.5815 
 270   0.0000       4.368936       118.8848 
 271   0.0000       4.417306       120.2010 
 272   0.0000       4.494872       122.3117 
 273   0.0000       4.510929       122.7486 
 274   0.0000       4.571932       124.4086 
 275   0.0000       4.581103       124.6582 
 276   0.0000       4.653415       126.6259 
 277   0.0000       4.674451       127.1983 
 278   0.0000       4.763064       129.6095 
 279   0.0000       4.770874       129.8221 
 280   0.0000       4.804844       130.7465 
 281   0.0000       4.876192       132.6879 
 282   0.0000       4.881512       132.8327 
 283   0.0000       4.884068       132.9023 
 284   0.0000       4.930226       134.1583 
 285   0.0000       4.999422       136.0412 
 286   0.0000       5.037505       137.0775 
 287   0.0000       5.062098       137.7467 
 288   0.0000       5.076493       138.1384 
 289   0.0000       5.104784       138.9082 
 290   0.0000       5.130435       139.6062 
 291   0.0000       5.203125       141.5842 
 292   0.0000       5.283951       143.7836 
 293   0.0000       5.294307       144.0654 
 294   0.0000       5.355500       145.7306 
 295   0.0000       5.403846       147.0461 
 296   0.0000       5.426910       147.6737 
 297   0.0000       5.446848       148.2163 
 298   0.0000       5.497791       149.6025 
 299   0.0000       5.560166       151.2998 
 300   0.0000       5.665462       154.1651 
 301   0.0000       5.701798       155.1538 
 302   0.0000       5.808925       158.0689 
 303   0.0000       6.128536       166.7659 
 304   0.0000       6.233346       169.6180 
 305   0.0000       6.302947       171.5119 
 306   0.0000      22.545596       613.4969 
 307   0.0000      22.682174       617.2133 
 308   0.0000      23.005934       626.0233 
 309   0.0000      23.489070       639.1701 
 310   0.0000      32.128164       874.2518 
 311   0.0000      32.419981       882.1925 

                    ********************************
                    * MULLIKEN POPULATION ANALYSIS *
                    ********************************

-----------------------
MULLIKEN ATOMIC CHARGES
-----------------------
   0 C :   -0.982324
   1 C :   -0.313687
   2 C :    0.376758
   3 N :   -0.382327
   4 N :   -0.371314
   5 H :    0.177319
   6 H :    0.138601
   7 H :    0.320443
   8 H :    0.166138
   9 H :    0.149911
  10 C :   -1.179206
  11 H :    0.359976
  12 H :    0.408417
  13 H :    0.373584
  14 H :    0.383905
  15 H :    0.373805
Sum of atomic charges:    0.0000000

--------------------------------
MULLIKEN REDUCED ORBITAL CHARGES
--------------------------------
  0 C s       :     3.536258  s :     3.536258
      pz      :     0.946987  p :     3.469129
      px      :     1.014219
      py      :     1.507923
      dz2     :     0.002946  d :    -0.028695
      dxz     :     0.017608
      dyz     :    -0.015673
      dx2y2   :    -0.010257
      dxy     :    -0.023318
      f0      :     0.001205  f :     0.005632
      f+1     :     0.001569
      f-1     :     0.000892
      f+2     :     0.000299
      f-2     :     0.000147
      f+3     :     0.000806
      f-3     :     0.000714
  1 C s       :     3.370196  s :     3.370196
      pz      :     0.880005  p :     2.855664
      px      :     1.111946
      py      :     0.863714
      dz2     :     0.022451  d :     0.080860
      dxz     :     0.030175
      dyz     :    -0.027406
      dx2y2   :    -0.021854
      dxy     :     0.077494
      f0      :     0.001067  f :     0.006967
      f+1     :     0.001149
      f-1     :     0.001895
      f+2     :     0.000350
      f-2     :     0.000786
      f+3     :     0.000804
      f-3     :     0.000915
  2 C s       :     3.484519  s :     3.484519
      pz      :     0.709915  p :     1.954929
      px      :     0.715258
      py      :     0.529756
      dz2     :    -0.009968  d :     0.165403
      dxz     :     0.067295
      dyz     :     0.061194
      dx2y2   :    -0.019114
      dxy     :     0.065996
      f0      :     0.002739  f :     0.018391
      f+1     :     0.003639
      f-1     :     0.004542
      f+2     :     0.001520
      f-2     :     0.001802
      f+3     :     0.001708
      f-3     :     0.002440
  3 N s       :     3.490780  s :     3.490780
      pz      :     0.994226  p :     3.850156
      px      :     1.731121
      py      :     1.124809
      dz2     :    -0.005002  d :     0.038164
      dxz     :     0.019400
      dyz     :     0.013327
      dx2y2   :     0.010953
      dxy     :    -0.000514
      f0      :     0.000528  f :     0.003226
      f+1     :     0.000677
      f-1     :     0.000561
      f+2     :     0.000581
      f-2     :     0.000131
      f+3     :     0.000315
      f-3     :     0.000433
  4 N s       :     3.490146  s :     3.490146
      pz      :     1.127894  p :     3.853504
      px      :     1.665425
      py      :     1.060186
      dz2     :    -0.000373  d :     0.024677
      dxz     :     0.005482
      dyz     :     0.002483
      dx2y2   :     0.002904
      dxy     :     0.014181
      f0      :     0.000491  f :     0.002986
      f+1     :     0.000237
      f-1     :     0.000462
      f+2     :     0.000458
      f-2     :     0.000233
      f+3     :     0.000486
      f-3     :     0.000618
  5 H s       :     0.775135  s :     0.775135
      pz      :     0.017345  p :     0.047546
      px      :     0.025456
      py      :     0.004745
  6 H s       :     0.797111  s :     0.797111
      pz      :     0.002282  p :     0.064289
      px      :     0.051495
      py      :     0.010512
  7 H s       :     0.639721  s :     0.639721
      pz      :    -0.003660  p :     0.039836
      px      :     0.015319
      py      :     0.028178
  8 H s       :     0.774277  s :     0.774277
      pz      :     0.006733  p :     0.059585
      px      :     0.043263
      py      :     0.009589
  9 H s       :     0.792817  s :     0.792817
      pz      :     0.006029  p :     0.057272
      px      :     0.047219
      py      :     0.004024
 10 C s       :     3.516219  s :     3.516219
      pz      :     1.328807  p :     3.626477
      px      :     0.953779
      py      :     1.343891
      dz2     :     0.021704  d :     0.033398
      dxz     :    -0.015809
      dyz     :     0.026219
      dx2y2   :    -0.003583
      dxy     :     0.004867
      f0      :     0.000939  f :     0.003113
      f+1     :     0.000378
      f-1     :     0.000086
      f+2     :     0.000162
      f-2     :     0.000076
      f+3     :     0.000818
      f-3     :     0.000655
 11 H s       :     0.555182  s :     0.555182
      pz      :     0.009411  p :     0.084842
      px      :     0.029926
      py      :     0.045505
 12 H s       :     0.532401  s :     0.532401
      pz      :     0.010929  p :     0.059182
      px      :     0.011330
      py      :     0.036922
 13 H s       :     0.536387  s :     0.536387
      pz      :     0.032691  p :     0.090030
      px      :     0.020400
      py      :     0.036939
 14 H s       :     0.543410  s :     0.543410
      pz      :     0.037655  p :     0.072684
      px      :     0.009223
      py      :     0.025806
 15 H s       :     0.548580  s :     0.548580
      pz      :     0.022004  p :     0.077615
      px      :     0.025563
      py      :     0.030049


                     *******************************
                     * LOEWDIN POPULATION ANALYSIS *
                     *******************************

----------------------
LOEWDIN ATOMIC CHARGES
----------------------
   0 C :   -0.301178
   1 C :   -0.157333
   2 C :   -0.554462
   3 N :    0.113928
   4 N :    0.135526
   5 H :    0.096088
   6 H :    0.097162
   7 H :    0.070814
   8 H :    0.111853
   9 H :    0.098529
  10 C :   -0.117703
  11 H :    0.109059
  12 H :    0.103245
  13 H :    0.071611
  14 H :    0.062549
  15 H :    0.060313

-------------------------------
LOEWDIN REDUCED ORBITAL CHARGES
-------------------------------
  0 C s       :     2.662971  s :     2.662971
      pz      :     0.951381  p :     2.788401
      px      :     0.922664
      py      :     0.914356
      dz2     :     0.163165  d :     0.804872
      dxz     :     0.226714
      dyz     :     0.147746
      dx2y2   :     0.104704
      dxy     :     0.162544
      f0      :     0.007776  f :     0.044933
      f+1     :     0.011626
      f-1     :     0.006681
      f+2     :     0.004534
      f-2     :     0.004886
      f+3     :     0.005290
      f-3     :     0.004140
  1 C s       :     2.639818  s :     2.639818
      pz      :     0.921092  p :     2.754146
      px      :     0.905290
      py      :     0.927764
      dz2     :     0.196653  d :     0.715674
      dxz     :     0.151715
      dyz     :     0.225917
      dx2y2   :     0.063852
      dxy     :     0.077537
      f0      :     0.008232  f :     0.047695
      f+1     :     0.006954
      f-1     :     0.013716
      f+2     :     0.005778
      f-2     :     0.005517
      f+3     :     0.004594
      f-3     :     0.002904
  2 C s       :     2.591652  s :     2.591652
      pz      :     0.890668  p :     2.536484
      px      :     0.738615
      py      :     0.907201
      dz2     :     0.300485  d :     1.308285
      dxz     :     0.284734
      dyz     :     0.298764
      dx2y2   :     0.201810
      dxy     :     0.222491
      f0      :     0.016411  f :     0.118040
      f+1     :     0.020495
      f-1     :     0.032962
      f+2     :     0.013056
      f-2     :     0.014509
      f+3     :     0.009797
      f-3     :     0.010809
  3 N s       :     2.888066  s :     2.888066
      pz      :     1.115809  p :     3.597088
      px      :     1.401307
      py      :     1.079972
      dz2     :     0.088760  d :     0.388734
      dxz     :     0.096853
      dyz     :     0.165908
      dx2y2   :     0.024544
      dxy     :     0.012669
      f0      :     0.003029  f :     0.012185
      f+1     :     0.002936
      f-1     :     0.003017
      f+2     :     0.001327
      f-2     :     0.000334
      f+3     :     0.000487
      f-3     :     0.001054
  4 N s       :     2.891658  s :     2.891658
      pz      :     1.076481  p :     3.582669
      px      :     1.389947
      py      :     1.116242
      dz2     :     0.082735  d :     0.378799
      dxz     :     0.031655
      dyz     :     0.111640
      dx2y2   :     0.075164
      dxy     :     0.077606
      f0      :     0.001396  f :     0.011349
      f+1     :     0.000870
      f-1     :     0.002280
      f+2     :     0.001809
      f-2     :     0.001190
      f+3     :     0.001783
      f-3     :     0.002022
  5 H s       :     0.609727  s :     0.609727
      pz      :     0.125144  p :     0.294185
      px      :     0.096383
      py      :     0.072658
  6 H s       :     0.631567  s :     0.631567
      pz      :     0.081820  p :     0.271271
      px      :     0.096104
      py      :     0.093347
  7 H s       :     0.691949  s :     0.691949
      pz      :     0.072721  p :     0.237237
      px      :     0.081573
      py      :     0.082943
  8 H s       :     0.619796  s :     0.619796
      pz      :     0.067735  p :     0.268351
      px      :     0.092275
      py      :     0.108341
  9 H s       :     0.630088  s :     0.630088
      pz      :     0.072313  p :     0.271383
      px      :     0.098480
      py      :     0.100590
 10 C s       :     2.727358  s :     2.727358
      pz      :     0.967866  p :     2.902018
      px      :     0.958944
      py      :     0.975208
      dz2     :     0.117815  d :     0.461666
      dxz     :     0.084203
      dyz     :     0.033093
      dx2y2   :     0.079981
      dxy     :     0.146573
      f0      :     0.004938  f :     0.026662
      f+1     :     0.003354
      f-1     :     0.000738
      f+2     :     0.004607
      f-2     :     0.003668
      f+3     :     0.005410
      f-3     :     0.003948
 11 H s       :     0.679786  s :     0.679786
      pz      :     0.063680  p :     0.211155
      px      :     0.065337
      py      :     0.082139
 12 H s       :     0.677426  s :     0.677426
      pz      :     0.065543  p :     0.219329
      px      :     0.058577
      py      :     0.095208
 13 H s       :     0.701219  s :     0.701219
      pz      :     0.074188  p :     0.227170
      px      :     0.061249
      py      :     0.091733
 14 H s       :     0.708920  s :     0.708920
      pz      :     0.108419  p :     0.228531
      px      :     0.057443
      py      :     0.062669
 15 H s       :     0.697389  s :     0.697389
      pz      :     0.071121  p :     0.242297
      px      :     0.070876
      py      :     0.100300


                      *****************************
                      * MAYER POPULATION ANALYSIS *
                      *****************************

  NA   - Mulliken gross atomic population
  ZA   - Total nuclear charge
  QA   - Mulliken gross atomic charge
  VA   - Mayer's total valence
  BVA  - Mayer's bonded valence
  FA   - Mayer's free valence

  ATOM       NA         ZA         QA         VA         BVA        FA
  0 C      6.9823     6.0000    -0.9823     2.9776     2.9776     0.0000
  1 C      6.3137     6.0000    -0.3137     2.5560     2.5560     0.0000
  2 C      5.6232     6.0000     0.3768     2.9353     2.9353     0.0000
  3 N      7.3823     7.0000    -0.3823     3.1525     3.1525    -0.0000
  4 N      7.3713     7.0000    -0.3713     3.1050     3.1050    -0.0000
  5 H      0.8227     1.0000     0.1773     1.0070     1.0070    -0.0000
  6 H      0.8614     1.0000     0.1386     1.0015     1.0015    -0.0000
  7 H      0.6796     1.0000     0.3204     0.8650     0.8650    -0.0000
  8 H      0.8339     1.0000     0.1661     1.0142     1.0142    -0.0000
  9 H      0.8501     1.0000     0.1499     1.0103     1.0103    -0.0000
 10 C      7.1792     6.0000    -1.1792     3.1702     3.1702     0.0000
 11 H      0.6400     1.0000     0.3600     1.0337     1.0337     0.0000
 12 H      0.5916     1.0000     0.4084     0.8956     0.8956     0.0000
 13 H      0.6264     1.0000     0.3736     0.9958     0.9958    -0.0000
 14 H      0.6161     1.0000     0.3839     0.9750     0.9750     0.0000
 15 H      0.6262     1.0000     0.3738     0.9898     0.9898     0.0000

  Mayer bond orders larger than 0.100000
B(  0-C ,  1-C ) :   0.5360 B(  0-C ,  2-C ) :   0.2938 B(  0-C , 10-C ) :   0.4707 
B(  0-C , 11-H ) :   1.0316 B(  0-C , 12-H ) :   0.8205 B(  1-C ,  2-C ) :   1.0894 
B(  1-C ,  3-N ) :   0.1085 B(  1-C ,  7-H ) :   1.0584 B(  1-C , 10-C ) :  -0.1073 
B(  1-C , 11-H ) :  -0.1153 B(  2-C ,  3-N ) :   0.8837 B(  2-C ,  4-N ) :   0.9015 
B(  2-C ,  7-H ) :  -0.1591 B(  3-N ,  8-H ) :   1.0256 B(  3-N ,  9-H ) :   1.0687 
B(  4-N ,  5-H ) :   0.9785 B(  4-N ,  6-H ) :   1.0786 B( 10-C , 13-H ) :   0.9579 
B( 10-C , 14-H ) :   0.9295 B( 10-C , 15-H ) :   0.9169 B( 11-H , 12-H ) :   0.1045 


-------
TIMINGS
-------

Total SCF time: 0 days 0 hours 0 min 55 sec 

Total time                  ....      55.598 sec
Sum of individual times     ....      55.295 sec  ( 99.5%)

Fock matrix formation       ....      53.478 sec  ( 96.2%)
  Split-RI-J                ....       2.297 sec  (  4.3% of F)
  Chain of spheres X        ....      43.839 sec  ( 82.0% of F)
  XC integration            ....       7.249 sec  ( 13.6% of F)
    Basis function eval.    ....       1.921 sec  ( 26.5% of XC)
    Density eval.           ....       2.019 sec  ( 27.9% of XC)
    XC-Functional eval.     ....       0.395 sec  (  5.4% of XC)
    XC-Potential eval.      ....       2.728 sec  ( 37.6% of XC)
Diagonalization             ....       0.139 sec  (  0.3%)
Density matrix formation    ....       0.009 sec  (  0.0%)
Population analysis         ....       0.018 sec  (  0.0%)
Initial guess               ....       0.348 sec  (  0.6%)
Orbital Transformation      ....       0.000 sec  (  0.0%)
Orbital Orthonormalization  ....       0.000 sec  (  0.0%)
DIIS solution               ....       0.070 sec  (  0.1%)
SOSCF solution              ....       0.113 sec  (  0.2%)
Grid generation             ....       1.120 sec  (  2.0%)

Maximum memory used throughout the entire SCF-calculation: 38.7 MB

-------------------------   --------------------
FINAL SINGLE POINT ENERGY      -267.303761251158
-------------------------   --------------------


                            ***************************************
                            *     ORCA property calculations      *
                            ***************************************

                                    ---------------------
                                    Active property flags
                                    ---------------------
   (+) Dipole Moment


------------------------------------------------------------------------------
                       ORCA ELECTRIC PROPERTIES CALCULATION
------------------------------------------------------------------------------

Dipole Moment Calculation                       ... on
Quadrupole Moment Calculation                   ... off
Polarizability Calculation                      ... off
GBWName                                         ... TZVPD_LC_BLYP_C1_wt_dlpno_pos.gbw
Electron density file                           ... TZVPD_LC_BLYP_C1_wt_dlpno_pos.scfp
The origin for moment calculation is the CENTER OF MASS  = ( 9.163260,  3.554204 -7.330027)

-------------
DIPOLE MOMENT
-------------
                                X             Y             Z
Electronic contribution:     -1.27001       1.95359      -4.09252
Nuclear contribution   :      1.23062      -1.24683       3.43056
                        -----------------------------------------
Total Dipole Moment    :     -0.03940       0.70676      -0.66196
                        -----------------------------------------
Magnitude (a.u.)       :      0.96915
Magnitude (Debye)      :      2.46338



--------------------
Rotational spectrum 
--------------------
 
Rotational constants in cm-1:     0.231477     0.075416     0.065327 
Rotational constants in MHz :  6939.497385  2260.912204  1958.442932 

 Dipole components along the rotational axes: 
x,y,z [a.u.] :    -0.887890     0.386780     0.036064 
x,y,z [Debye]:    -2.256837     0.983117     0.091666 

 

Timings for individual modules:

Sum of individual times         ...       56.252 sec (=   0.938 min)
GTO integral calculation        ...        0.457 sec (=   0.008 min)   0.8 %
SCF iterations                  ...       55.795 sec (=   0.930 min)  99.2 %
                             ****ORCA TERMINATED NORMALLY****
TOTAL RUN TIME: 0 days 0 hours 0 minutes 56 seconds 632 msec
