
                                        *****************
                                        * O   R   C   A *
                                        *****************

                                            #,                                       
                                            ###                                      
                                            ####                                     
                                            #####                                    
                                            ######                                   
                                           ########,                                 
                                     ,,################,,,,,                         
                               ,,#################################,,                 
                          ,,##########################################,,             
                       ,#########################################, ''#####,          
                    ,#############################################,,   '####,        
                  ,##################################################,,,,####,       
                ,###########''''           ''''###############################       
              ,#####''   ,,,,##########,,,,          '''####'''          '####       
            ,##' ,,,,###########################,,,                        '##       
           ' ,,###''''                  '''############,,,                           
         ,,##''                                '''############,,,,        ,,,,,,###''
      ,#''                                            '''#######################'''  
     '                                                          ''''####''''         
             ,#######,   #######,   ,#######,      ##                                
            ,#'     '#,  ##    ##  ,#'     '#,    #''#        ######   ,####,        
            ##       ##  ##   ,#'  ##            #'  '#       #        #'  '#        
            ##       ##  #######   ##           ,######,      #####,   #    #        
            '#,     ,#'  ##    ##  '#,     ,#' ,#      #,         ##   #,  ,#        
             '#######'   ##     ##  '#######'  #'      '#     #####' # '####'        



                  #######################################################
                  #                        -***-                        #
                  #          Department of theory and spectroscopy      #
                  #    Directorship and core code : Frank Neese         #
                  #        Max Planck Institute fuer Kohlenforschung    #
                  #                Kaiser Wilhelm Platz 1               #
                  #                 D-45470 Muelheim/Ruhr               #
                  #                      Germany                        #
                  #                                                     #
                  #                  All rights reserved                #
                  #                        -***-                        #
                  #######################################################


                         Program Version 5.0.0 -  RELEASE  -
                                (SVN: $Rev: 19529$)
                ($Date: 2021-06-28 11:36:33 +0200 (Mo, 28 Jun 2021) $)


 With contributions from (in alphabetic order):
   Daniel Aravena         : Magnetic Suceptibility
   Michael Atanasov       : Ab Initio Ligand Field Theory (pilot matlab implementation)
   Alexander A. Auer      : GIAO ZORA, VPT2 properties, NMR spectrum
   Ute Becker             : Parallelization
   Giovanni Bistoni       : ED, misc. LED, open-shell LED, HFLD
   Martin Brehm           : Molecular dynamics
   Dmytro Bykov           : SCF Hessian
   Vijay G. Chilkuri      : MRCI spin determinant printing, contributions to CSF-ICE
   Dipayan Datta          : RHF DLPNO-CCSD density
   Achintya Kumar Dutta   : EOM-CC, STEOM-CC
   Dmitry Ganyushin       : Spin-Orbit,Spin-Spin,Magnetic field MRCI
   Miquel Garcia          : C-PCM Hessian, Gaussian charge scheme
   Yang Guo               : DLPNO-NEVPT2, F12-NEVPT2, CIM, IAO-localization
   Andreas Hansen         : Spin unrestricted coupled pair/coupled cluster methods
   Benjamin Helmich-Paris : MC-RPA, TRAH-SCF, COSX integrals
   Lee Huntington         : MR-EOM, pCC
   Robert Izsak           : Overlap fitted RIJCOSX, COSX-SCS-MP3, EOM
   Marcus Kettner         : VPT2
   Christian Kollmar      : KDIIS, OOCD, Brueckner-CCSD(T), CCSD density, CASPT2, CASPT2-K
   Simone Kossmann        : Meta GGA functionals, TD-DFT gradient, OOMP2, MP2 Hessian
   Martin Krupicka        : Initial AUTO-CI
   Lucas Lang             : DCDCAS
   Marvin Lechner         : AUTO-CI (C++ implementation), FIC-MRCC
   Dagmar Lenk            : GEPOL surface, SMD
   Dimitrios Liakos       : Extrapolation schemes; Compound Job, initial MDCI parallelization
   Dimitrios Manganas     : Further ROCIS development; embedding schemes
   Dimitrios Pantazis     : SARC Basis sets
   Anastasios Papadopoulos: AUTO-CI, single reference methods and gradients
   Taras Petrenko         : DFT Hessian,TD-DFT gradient, ASA, ECA, R-Raman, ABS, FL, XAS/XES, NRVS
   Peter Pinski           : DLPNO-MP2, DLPNO-MP2 Gradient
   Christoph Reimann      : Effective Core Potentials
   Marius Retegan         : Local ZFS, SOC
   Christoph Riplinger    : Optimizer, TS searches, QM/MM, DLPNO-CCSD(T), (RO)-DLPNO pert. Triples
   Tobias Risthaus        : Range-separated hybrids, TD-DFT gradient, RPA, STAB
   Michael Roemelt        : Original ROCIS implementation
   Masaaki Saitow         : Open-shell DLPNO-CCSD energy and density
   Barbara Sandhoefer     : DKH picture change effects
   Avijit Sen             : IP-ROCIS
   Kantharuban Sivalingam : CASSCF convergence, NEVPT2, FIC-MRCI
   Bernardo de Souza      : ESD, SOC TD-DFT
   Georgi Stoychev        : AutoAux, RI-MP2 NMR
   Willem Van den Heuvel  : Paramagnetic NMR
   Boris Wezisla          : Elementary symmetry handling
   Frank Wennmohs         : Technical directorship


 We gratefully acknowledge several colleagues who have allowed us to
 interface, adapt or use parts of their codes:
   Stefan Grimme, W. Hujo, H. Kruse, P. Pracht,  : VdW corrections, initial TS optimization,
                  C. Bannwarth, S. Ehlert          DFT functionals, gCP, sTDA/sTD-DF
   Ed Valeev, F. Pavosevic, A. Kumar             : LibInt (2-el integral package), F12 methods
   Garnet Chan, S. Sharma, J. Yang, R. Olivares  : DMRG
   Ulf Ekstrom                                   : XCFun DFT Library
   Mihaly Kallay                                 : mrcc  (arbitrary order and MRCC methods)
   Jiri Pittner, Ondrej Demel                    : Mk-CCSD
   Frank Weinhold                                : gennbo (NPA and NBO analysis)
   Christopher J. Cramer and Donald G. Truhlar   : smd solvation model
   Lars Goerigk                                  : TD-DFT with DH, B97 family of functionals
   V. Asgeirsson, H. Jonsson                     : NEB implementation
   FAccTs GmbH                                   : IRC, NEB, NEB-TS, DLPNO-Multilevel, CI-OPT
                                                   MM, QMMM, 2- and 3-layer-ONIOM, Crystal-QMMM,
                                                   LR-CPCM, SF, NACMEs, symmetry and pop. for TD-DFT,
                                                   nearIR, NL-DFT gradient (VV10), updates on ESD,
                                                   ML-optimized integration grids
   S Lehtola, MJT Oliveira, MAL Marques          : LibXC Library
   Liviu Ungur et al                             : ANISO software


 Your calculation uses the libint2 library for the computation of 2-el integrals
 For citations please refer to: http://libint.valeyev.net

 Your ORCA version has been built with support for libXC version: 5.1.0
 For citations please refer to: https://tddft.org/programs/libxc/

 This ORCA versions uses:
   CBLAS   interface :  Fast vector & matrix operations
   LAPACKE interface :  Fast linear algebra routines
   SCALAPACK package :  Parallel linear algebra routines
   Shared memory     :  Shared parallel matrices
   BLAS/LAPACK       :  OpenBLAS 0.3.15  USE64BITINT DYNAMIC_ARCH NO_AFFINITY Haswell SINGLE_THREADED
        Core in use  :  Haswell
   Copyright (c) 2011-2014, The OpenBLAS Project




***************************************
The coordinates will be read from file: D4.xyz
***************************************


XCFun DFT library Copyright 2009-2010 Ulf Ekstrom and contributors.
See http://admol.org/xcfun for more information.
This is free software; see the source code for copying conditions.
There is ABSOLUTELY NO WARRANTY; not even for MERCHANTABILITY or FITNESS FOR A PARTICULAR PURPOSE.
For details see the documentation.
Scientific users of this library should cite U. Ekstrom, L. Visscher, R. Bast, A. J. Thorvaldsen and K. Ruud;
J.Chem.Theor.Comp. 2010, DOI: 10.1021/ct100117s
XCFun Version 0.99 

================================================================================

----- Orbital basis set information -----
Your calculation utilizes the basis: def2-TZVPD
   F. Weigend and R. Ahlrichs, Phys. Chem. Chem. Phys. 7, 3297 (2005).
   D. Rappoport and F. Furche, J. Chem. Phys. 133 134105 (2010).

----- AuxJ basis set information -----
Your calculation utilizes the auxiliary basis: def2/J
   F. Weigend, Phys. Chem. Chem. Phys. 8, 1057 (2006).

================================================================================
                                        WARNINGS
                       Please study these warnings very carefully!
================================================================================


INFO   : the flag for use of the SHARK integral package has been found!

================================================================================
                                       INPUT FILE
================================================================================
NAME = 28Oct_TZVPD_LC_BLYP_D4_wb97.com
|  1> !LC-BLYP RIJCOSX def2-TZVPD def2/J TightSCF xyzfile                                                                                         
|  2> 
|  3> *xyzfile 0 1 D4.xyz
|  4> 
|  5> %MaxCore 64000
|  6> 
|  7> %pal nprocs 4
|  8> end  
|  9> 
| 10> %scf
| 11>   MaxIter 150
| 12> end
| 13> 
| 14> 
| 15>                          ****END OF INPUT****
================================================================================

                       ****************************
                       * Single Point Calculation *
                       ****************************

---------------------------------
CARTESIAN COORDINATES (ANGSTROEM)
---------------------------------
  C      4.490588    1.155899   -2.469290
  C      4.305394    1.222762   -3.908317
  C      4.906458   -3.102816   -5.954844
  C      3.511771   -2.806215   -6.492283
  H      2.736044   -3.373445   -5.973736
  H      3.444904   -3.040831   -7.555281
  S      3.004618   -1.096206   -6.389259
  C      4.631918    2.246365   -4.670958
  N      4.541686    2.143990   -5.987139
  N      5.084086    3.393584   -4.118545
  H      4.920675    3.570501   -3.135870
  H      5.254652    4.197390   -4.706956
  H      3.824530    0.449113   -4.350926
  H      4.343373    1.249318   -6.416646
  H      4.676712    2.956624   -6.574113
  O      4.128856   -0.329647   -6.953717
  F      1.781285   -1.000779   -7.136399
  C      5.942129    0.939500   -2.036893
  H      3.864305    0.328532   -2.136611
  H      4.076233    2.049994   -1.989010
  C      6.462677   -3.117775   -3.944671
  C      5.024977   -3.025679   -4.437625
  H      4.423321   -3.818693   -3.977648
  H      4.579350   -2.087131   -4.108727
  H      5.201533   -4.100207   -6.296905
  H      5.605922   -2.397822   -6.413368
  C      6.559957   -0.356290   -2.559086
  H      5.967976    0.952567   -0.942444
  H      6.547184    1.788331   -2.368849
  C      6.006283   -1.615917   -1.899301
  H      7.642360   -0.318000   -2.402059
  H      6.414855   -0.403433   -3.642587
  C      6.608718   -2.917014   -2.435655
  H      6.190324   -1.561115   -0.820948
  H      4.919250   -1.651245   -2.016586
  H      7.066975   -2.374258   -4.475514
  H      6.887808   -4.089747   -4.215332
  H      6.135197   -3.755573   -1.915159
  H      7.671142   -2.955503   -2.172291
  O      2.851546   -0.783683   -4.956789

----------------------------
CARTESIAN COORDINATES (A.U.)
----------------------------
  NO LB      ZA    FRAG     MASS         X           Y           Z
   0 C     6.0000    0    12.011    8.485982    2.184332   -4.666282
   1 C     6.0000    0    12.011    8.136015    2.310685   -7.385649
   2 C     6.0000    0    12.011    9.271862   -5.863473  -11.253025
   3 C     6.0000    0    12.011    6.636285   -5.302977  -12.268638
   4 H     1.0000    0     1.008    5.170374   -6.374888  -11.288724
   5 H     1.0000    0     1.008    6.509926   -5.746338  -14.277412
   6 S    16.0000    0    32.060    5.677904   -2.071530  -12.073950
   7 C     6.0000    0    12.011    8.753057    4.245015   -8.826831
   8 N     7.0000    0    14.007    8.582543    4.051553  -11.314052
   9 N     7.0000    0    14.007    9.607530    6.412945   -7.782923
  10 H     1.0000    0     1.008    9.298728    6.747268   -5.925936
  11 H     1.0000    0     1.008    9.929852    7.931917   -8.894858
  12 H     1.0000    0     1.008    7.227314    0.848701   -8.222058
  13 H     1.0000    0     1.008    8.207786    2.360868  -12.125704
  14 H     1.0000    0     1.008    8.837705    5.587209  -12.423274
  15 O     8.0000    0    15.999    7.802408   -0.622942  -13.140621
  16 F     9.0000    0    18.998    3.366140   -1.891199  -13.485840
  17 C     6.0000    0    12.011   11.228997    1.775397   -3.849170
  18 H     1.0000    0     1.008    7.302479    0.620836   -4.037610
  19 H     1.0000    0     1.008    7.702964    3.873927   -3.758685
  20 C     6.0000    0    12.011   12.212689   -5.891741   -7.454347
  21 C     6.0000    0    12.011    9.495831   -5.717705   -8.385896
  22 H     1.0000    0     1.008    8.358866   -7.216284   -7.516666
  23 H     1.0000    0     1.008    8.653718   -3.944106   -7.764369
  24 H     1.0000    0     1.008    9.829473   -7.748269  -11.899427
  25 H     1.0000    0     1.008   10.593657   -4.531226  -12.119509
  26 C     6.0000    0    12.011   12.396522   -0.673291   -4.835971
  27 H     1.0000    0     1.008   11.277840    1.800090   -1.780961
  28 H     1.0000    0     1.008   12.372385    3.379455   -4.476477
  29 C     6.0000    0    12.011   11.350230   -3.053641   -3.589158
  30 H     1.0000    0     1.008   14.441966   -0.600934   -4.539234
  31 H     1.0000    0     1.008   12.122318   -0.762378   -6.883492
  32 C     6.0000    0    12.011   12.488666   -5.512358   -4.602721
  33 H     1.0000    0     1.008   11.698016   -2.950080   -1.551366
  34 H     1.0000    0     1.008    9.296035   -3.120400   -3.810796
  35 H     1.0000    0     1.008   13.354648   -4.486697   -8.457496
  36 H     1.0000    0     1.008   13.016070   -7.728501   -7.965822
  37 H     1.0000    0     1.008   11.593841   -7.097005   -3.619127
  38 H     1.0000    0     1.008   14.496357   -5.585092   -4.105035
  39 O     8.0000    0    15.999    5.388641   -1.480946   -9.366974

--------------------------------
INTERNAL COORDINATES (ANGSTROEM)
--------------------------------
 C      0   0   0     0.000000000000     0.00000000     0.00000000
 C      1   0   0     1.452434888732     0.00000000     0.00000000
 C      2   1   0     4.822880648060   111.29935464     0.00000000
 C      3   2   1     1.523799819616    82.01111056   124.72570022
 H      4   3   2     1.091968299252   112.43309611   255.51929182
 H      4   3   2     1.090632873150   110.97759244   134.54655122
 S      4   3   2     1.786602224664   115.19977359    16.50892478
 C      2   1   3     1.317574833962   125.28497018   214.05519914
 N      8   2   1     1.323236350905   119.91604121   173.18858040
 N      8   2   1     1.351194480527   120.39094198   354.48825376
 H     10   8   2     1.011757151303   119.43893893   342.13916756
 H     10   8   2     1.010654769343   119.58539038   185.29571941
 H      2   1   3     1.012750840265   117.28239304    38.84614007
 H      9   8   2     1.012048706728   120.25757225   351.78674532
 H      9   8   2     1.011506480060   120.39405507   172.23609159
 O      7   4   3     1.473139212620   105.02973514    49.07238667
 F      7   4   3     1.436617023222   105.98041552   170.73821441
 C      1   2   3     1.529956533456   114.04751046    71.27147181
 H      1   2   3     1.089697165343   105.31628314   309.84494500
 H      1   2   3     1.096250554262   110.38499465   196.36075284
 C      3   2   1     2.542211031985    75.28786529   328.63877310
 C     21   3   2     1.522650424266    33.45203408    62.46988994
 H     22  21   3     1.096558425421   109.78678321   123.00138599
 H     22  21   3     1.089784085482   109.90626334   238.94967961
 H      3   2   1     1.094926392967   169.46526939   316.66150389
 H      3   2   1     1.093851646948    71.30795148   237.06279558
 C     18   1   2     1.527569327213   114.02213033   299.75436756
 H     18   1   2     1.094832037269   107.65179087   177.40351951
 H     18   1   2     1.093983651653   109.22173402    62.36298160
 C     27  18   1     1.525952470352   113.93276277   288.90034571
 H     27  18   1     1.094403426518   108.74093275   167.10616769
 H     27  18   1     1.094190161747   108.74874272    52.17399198
 C     21   3   2     1.529300762752   146.92063230    53.80488115
 H     30  27  18     1.095317124906   108.86941482   300.75108730
 H     30  27  18     1.093912987644   109.92906200    56.35085961
 H     21   3   2     1.095348999413    87.16372703   291.04892433
 H     21   3   2     1.094861915024    92.71949470   185.57163885
 H     33  21   3     1.094677724411   109.10507473    72.09358689
 H     33  21   3     1.095256828209   108.98305469   187.60350442
 O      7   4   3     1.474133937430   106.76381078   292.33403201

---------------------------
INTERNAL COORDINATES (A.U.)
---------------------------
 C      0   0   0     0.000000000000     0.00000000     0.00000000
 C      1   0   0     2.744704167055     0.00000000     0.00000000
 C      2   1   0     9.113923601421   111.29935464     0.00000000
 C      3   2   1     2.879564341994    82.01111056   124.72570022
 H      4   3   2     2.063521032510   112.43309611   255.51929182
 H      4   3   2     2.060997442905   110.97759244   134.54655122
 S      4   3   2     3.376188914869   115.19977359    16.50892478
 C      2   1   3     2.489855597135   125.28497018   214.05519914
 N      8   2   1     2.500554313659   119.91604121   173.18858040
 N      8   2   1     2.553387521862   120.39094198   354.48825376
 H     10   8   2     1.911943930000   119.43893893   342.13916756
 H     10   8   2     1.909860730000   119.58539038   185.29571941
 H      2   1   3     1.913821729999   117.28239304    38.84614007
 H      9   8   2     1.912494889904   120.25757225   351.78674532
 H      9   8   2     1.911470230000   120.39405507   172.23609159
 O      7   4   3     2.783829668993   105.02973514    49.07238667
 F      7   4   3     2.714812733219   105.98041552   170.73821441
 C      1   2   3     2.891198845036   114.04751046    71.27147181
 H      1   2   3     2.059229211409   105.31628314   309.84494500
 H      1   2   3     2.071613321715   110.38499465   196.36075284
 C      3   2   1     4.804082625084    75.28786529   328.63877310
 C     21   3   2     2.877392299561    33.45203408    62.46988994
 H     22  21   3     2.072195113889   109.78678321   123.00138599
 H     22  21   3     2.059393466667   109.90626334   238.94967961
 H      3   2   1     2.069111019509   169.46526939   316.66150389
 H      3   2   1     2.067080043870    71.30795148   237.06279558
 C     18   1   2     2.886687679010   114.02213033   299.75436756
 H     18   1   2     2.068932713082   107.65179087   177.40351951
 H     18   1   2     2.067329496612   109.22173402    62.36298160
 C     27  18   1     2.883632262346   113.93276277   288.90034571
 H     27  18   1     2.068122756144   108.74093275   167.10616769
 H     27  18   1     2.067719744133   108.74874272    52.17399198
 C     21   3   2     2.889959617997   146.92063230    53.80488115
 H     30  27  18     2.069849395866   108.86941482   300.75108730
 H     30  27  18     2.067195960987   109.92906200    56.35085961
 H     21   3   2     2.069909629955    87.16372703   291.04892433
 H     21   3   2     2.068989173855    92.71949470   185.57163885
 H     33  21   3     2.068641104040   109.10507473    72.09358689
 H     33  21   3     2.069735451623   108.98305469   187.60350442
 O      7   4   3     2.785709426462   106.76381078   292.33403201

---------------------
BASIS SET INFORMATION
---------------------
There are 6 groups of distinct atoms

 Group   1 Type C   : 12s6p3d1f contracted to 6s3p3d1f pattern {621111/411/111/1}
 Group   2 Type H   : 5s2p contracted to 3s2p pattern {311/11}
 Group   3 Type S   : 15s10p4d1f contracted to 6s6p3d1f pattern {732111/511111/211/1}
 Group   4 Type N   : 12s6p3d1f contracted to 6s3p3d1f pattern {621111/411/111/1}
 Group   5 Type O   : 12s7p3d1f contracted to 6s4p3d1f pattern {621111/4111/111/1}
 Group   6 Type F   : 12s7p3d1f contracted to 6s4p3d1f pattern {621111/4111/111/1}

Atom   0C    basis set group =>   1
Atom   1C    basis set group =>   1
Atom   2C    basis set group =>   1
Atom   3C    basis set group =>   1
Atom   4H    basis set group =>   2
Atom   5H    basis set group =>   2
Atom   6S    basis set group =>   3
Atom   7C    basis set group =>   1
Atom   8N    basis set group =>   4
Atom   9N    basis set group =>   4
Atom  10H    basis set group =>   2
Atom  11H    basis set group =>   2
Atom  12H    basis set group =>   2
Atom  13H    basis set group =>   2
Atom  14H    basis set group =>   2
Atom  15O    basis set group =>   5
Atom  16F    basis set group =>   6
Atom  17C    basis set group =>   1
Atom  18H    basis set group =>   2
Atom  19H    basis set group =>   2
Atom  20C    basis set group =>   1
Atom  21C    basis set group =>   1
Atom  22H    basis set group =>   2
Atom  23H    basis set group =>   2
Atom  24H    basis set group =>   2
Atom  25H    basis set group =>   2
Atom  26C    basis set group =>   1
Atom  27H    basis set group =>   2
Atom  28H    basis set group =>   2
Atom  29C    basis set group =>   1
Atom  30H    basis set group =>   2
Atom  31H    basis set group =>   2
Atom  32C    basis set group =>   1
Atom  33H    basis set group =>   2
Atom  34H    basis set group =>   2
Atom  35H    basis set group =>   2
Atom  36H    basis set group =>   2
Atom  37H    basis set group =>   2
Atom  38H    basis set group =>   2
Atom  39O    basis set group =>   5
---------------------------------
AUXILIARY/J BASIS SET INFORMATION
---------------------------------
There are 6 groups of distinct atoms

 Group   1 Type C   : 12s5p4d2f1g contracted to 6s4p3d1f1g pattern {711111/2111/211/2/1}
 Group   2 Type H   : 5s2p1d contracted to 3s1p1d pattern {311/2/1}
 Group   3 Type S   : 14s5p5d2f1g contracted to 8s4p3d1f1g pattern {71111111/2111/311/2/1}
 Group   4 Type N   : 12s5p4d2f1g contracted to 6s4p3d1f1g pattern {711111/2111/211/2/1}
 Group   5 Type O   : 12s5p4d2f1g contracted to 6s4p3d1f1g pattern {711111/2111/211/2/1}
 Group   6 Type F   : 12s5p4d2f1g contracted to 6s4p3d1f1g pattern {711111/2111/211/2/1}

Atom   0C    basis set group =>   1
Atom   1C    basis set group =>   1
Atom   2C    basis set group =>   1
Atom   3C    basis set group =>   1
Atom   4H    basis set group =>   2
Atom   5H    basis set group =>   2
Atom   6S    basis set group =>   3
Atom   7C    basis set group =>   1
Atom   8N    basis set group =>   4
Atom   9N    basis set group =>   4
Atom  10H    basis set group =>   2
Atom  11H    basis set group =>   2
Atom  12H    basis set group =>   2
Atom  13H    basis set group =>   2
Atom  14H    basis set group =>   2
Atom  15O    basis set group =>   5
Atom  16F    basis set group =>   6
Atom  17C    basis set group =>   1
Atom  18H    basis set group =>   2
Atom  19H    basis set group =>   2
Atom  20C    basis set group =>   1
Atom  21C    basis set group =>   1
Atom  22H    basis set group =>   2
Atom  23H    basis set group =>   2
Atom  24H    basis set group =>   2
Atom  25H    basis set group =>   2
Atom  26C    basis set group =>   1
Atom  27H    basis set group =>   2
Atom  28H    basis set group =>   2
Atom  29C    basis set group =>   1
Atom  30H    basis set group =>   2
Atom  31H    basis set group =>   2
Atom  32C    basis set group =>   1
Atom  33H    basis set group =>   2
Atom  34H    basis set group =>   2
Atom  35H    basis set group =>   2
Atom  36H    basis set group =>   2
Atom  37H    basis set group =>   2
Atom  38H    basis set group =>   2
Atom  39O    basis set group =>   5


           ************************************************************
           *        Program running with 4 parallel MPI-processes     *
           *              working on a common directory               *
           ************************************************************
------------------------------------------------------------------------------
                           ORCA GTO INTEGRAL CALCULATION
                           -- RI-GTO INTEGRALS CHOSEN --
------------------------------------------------------------------------------
------------------------------------------------------------------------------
                   ___                                                        
                  /   \      - P O W E R E D   B Y -                         
                 /     \                                                     
                 |  |  |   _    _      __       _____    __    __             
                 |  |  |  | |  | |    /  \     |  _  \  |  |  /  |          
                  \  \/   | |  | |   /    \    | | | |  |  | /  /          
                 / \  \   | |__| |  /  /\  \   | |_| |  |  |/  /          
                |  |  |   |  __  | /  /__\  \  |    /   |      \           
                |  |  |   | |  | | |   __   |  |    \   |  |\   \          
                \     /   | |  | | |  |  |  |  | |\  \  |  | \   \       
                 \___/    |_|  |_| |__|  |__|  |_| \__\ |__|  \__/        
                                                                              
                      - O R C A' S   B I G   F R I E N D -                    
                                      &                                       
                       - I N T E G R A L  F E E D E R -                       
                                                                              
 v1 FN, 2020, v2 2021                                                         
------------------------------------------------------------------------------


Reading SHARK input file 28Oct_TZVPD_LC_BLYP_D4_wb97.SHARKINP.tmp ... ok
----------------------
SHARK INTEGRAL PACKAGE
----------------------

Number of atoms                             ...     40
Number of basis functions                   ...    854
Number of shells                            ...    342
Maximum angular momentum                    ...      3
Integral batch strategy                     ... SHARK/LIBINT Hybrid
RI-J (if used) integral strategy            ... SPLIT-RIJ (Revised 2003 algorithm where possible)
Printlevel                                  ...      1
Contraction scheme used                     ... SEGMENTED contraction
Coulomb Range Separation                    ... NOT USED
Exchange Range Separation                   ... Long Range
   Mu parameter                             ...  0.330000
   Scaling (regular/separated)              ...  0.000000  1.000000
Finite Nucleus Model                        ... NOT USED
Auxiliary Coulomb fitting basis             ... AVAILABLE
   # of basis functions in Aux-J            ...   1088
   # of shells in Aux-J                     ...    372
   Maximum angular momentum in Aux-J        ...      4
Auxiliary J/K fitting basis                 ... NOT available
Auxiliary Correlation fitting basis         ... NOT available
Auxiliary 'external' fitting basis          ... NOT available
Integral threshold                          ...     2.500000e-11
Primitive cut-off                           ...     2.500000e-12
Primitive pair pre-selection threshold      ...     2.500000e-12

Calculating pre-screening integrals         ... done (  0.4 sec) Dimension = 342
Organizing shell pair data                  ... done (  0.5 sec)
Shell pair information
Total number of shell pairs                 ...     58653
Shell pairs after pre-screening             ...     49247
Total number of primitive shell pairs       ...    149788
Primitive shell pairs kept                  ...     92594
          la=0 lb=0:  11818 shell pairs
          la=1 lb=0:  14991 shell pairs
          la=1 lb=1:   4773 shell pairs
          la=2 lb=0:   7397 shell pairs
          la=2 lb=1:   4689 shell pairs
          la=2 lb=2:   1201 shell pairs
          la=3 lb=0:   2145 shell pairs
          la=3 lb=1:   1422 shell pairs
          la=3 lb=2:    705 shell pairs
          la=3 lb=3:    106 shell pairs

Calculating one electron integrals          ... done (  0.1 sec)
Calculating RI/J V-Matrix + Cholesky decomp.... done (  0.1 sec)
Calculating Nuclear repulsion               ... done (  0.0 sec) ENN=   1568.120707219981 Eh

SHARK setup successfully completed in   1.2 seconds

Maximum memory used throughout the entire GTOINT-calculation: 68.9 MB


           ************************************************************
           *        Program running with 4 parallel MPI-processes     *
           *              working on a common directory               *
           ************************************************************
-------------------------------------------------------------------------------
                                 ORCA SCF
-------------------------------------------------------------------------------

------------
SCF SETTINGS
------------
Hamiltonian:
 Density Functional     Method          .... DFT(GTOs)
 Exchange Functional    Exchange        .... WB88
 Correlation Functional Correlation     .... LYP
 Gradients option       PostSCFGGA      .... off
   Density functional embedding theory  .... OFF
 Long-range corrected/Screened/Range-Separated Hybrid DFT is turned on
   Amount of maximum screened exact exchange              ....  1.000000
   Range separation parameter mu (erf(mu*r12)/r12)        ....  0.330000
 RI-approximation to the Coulomb term is turned on
   Number of AuxJ basis functions       .... 1088
   RIJ-COSX (HFX calculated with COS-X)).... on


General Settings:
 Integral files         IntName         .... 28Oct_TZVPD_LC_BLYP_D4_wb97
 Hartree-Fock type      HFTyp           .... RHF
 Total Charge           Charge          ....    0
 Multiplicity           Mult            ....    1
 Number of Electrons    NEL             ....  144
 Basis Dimension        Dim             ....  854
 Nuclear Repulsion      ENuc            ....   1568.1207072200 Eh

Convergence Acceleration:
 DIIS                   CNVDIIS         .... on
   Start iteration      DIISMaxIt       ....    12
   Startup error        DIISStart       ....  0.200000
   # of expansion vecs  DIISMaxEq       ....     5
   Bias factor          DIISBfac        ....   1.050
   Max. coefficient     DIISMaxC        ....  10.000
 Trust-Rad. Augm. Hess. CNVTRAH         .... auto
   Auto Start mean grad. ratio tolernc. ....  1.125000
   Auto Start start iteration           ....    20
   Auto Start num. interpolation iter.  ....    10
   Max. Number of Micro iterations      ....    16
   Max. Number of Macro iterations      .... Maxiter - #DIIS iter
   Number of Davidson start vectors     ....     2
   Converg. threshold I  (grad. norm)   ....   1.000e-05
   Converg. threshold II (energy diff.) ....   1.000e-08
   Grad. Scal. Fac. for Micro threshold ....   0.100
   Minimum threshold for Micro iter.    ....   0.010
   NR start threshold (gradient norm)   ....   0.001
   Initial trust radius                 ....   0.400
   Minimum AH scaling param. (alpha)    ....   1.000
   Maximum AH scaling param. (alpha)    .... 1000.000
   Orbital update algorithm             .... Taylor
   White noise on init. David. guess    .... on
   Maximum white noise                  ....   0.010
   Quad. conv. algorithm                .... NR
 SOSCF                  CNVSOSCF        .... on
   Start iteration      SOSCFMaxIt      ....   150
   Startup grad/error   SOSCFStart      ....  0.003300
 Level Shifting         CNVShift        .... on
   Level shift para.    LevelShift      ....    0.2500
   Turn off err/grad.   ShiftErr        ....    0.0010
 Zerner damping         CNVZerner       .... off
 Static damping         CNVDamp         .... on
   Fraction old density DampFac         ....    0.7000
   Max. Damping (<1)    DampMax         ....    0.9800
   Min. Damping (>=0)   DampMin         ....    0.0000
   Turn off err/grad.   DampErr         ....    0.1000
 Fernandez-Rico         CNVRico         .... off

SCF Procedure:
 Maximum # iterations   MaxIter         ....   150
 SCF integral mode      SCFMode         .... Direct
   Integral package                     .... SHARK and LIBINT hybrid scheme
 Reset frequency        DirectResetFreq ....    20
 Integral Threshold     Thresh          ....  2.500e-11 Eh
 Primitive CutOff       TCut            ....  2.500e-12 Eh

Convergence Tolerance:
 Convergence Check Mode ConvCheckMode   .... Total+1el-Energy
 Convergence forced     ConvForced      .... 0
 Energy Change          TolE            ....  1.000e-08 Eh
 1-El. energy change                    ....  1.000e-05 Eh
 Orbital Gradient       TolG            ....  1.000e-05
 Orbital Rotation angle TolX            ....  1.000e-05
 DIIS Error             TolErr          ....  5.000e-07


Diagonalization of the overlap matrix:
Smallest eigenvalue                        ... 4.424e-07
Time for diagonalization                   ...    0.197 sec
Threshold for overlap eigenvalues          ... 1.000e-08
Number of eigenvalues below threshold      ... 0
Time for construction of square roots      ...    0.206 sec
Total time needed                          ...    0.411 sec

Time for model grid setup =    0.642 sec

------------------------------
INITIAL GUESS: MODEL POTENTIAL
------------------------------
Loading Hartree-Fock densities                     ... done
Calculating cut-offs                               ... done
Initializing the effective Hamiltonian             ... done
Setting up the integral package (SHARK)            ... done
Starting the Coulomb interaction                   ... done (   1.6 sec)
Reading the grid                                   ... done
Mapping shells                                     ... done
Starting the XC term evaluation                    ... done (   1.6 sec)
  promolecular density results
     # of electrons  =    143.982578483
     EX              =   -127.664039937
     EC              =     -4.954565346
     EX+EC           =   -132.618605284
Transforming the Hamiltonian                       ... done (   0.1 sec)
Diagonalizing the Hamiltonian                      ... done (   0.2 sec)
Back transforming the eigenvectors                 ... done (   0.0 sec)
Now organizing SCF variables                       ... done
                      ------------------
                      INITIAL GUESS DONE (   4.2 sec)
                      ------------------
-------------------
DFT GRID GENERATION
-------------------

General Integration Accuracy     IntAcc      ... 4.388
Radial Grid Type                 RadialGrid  ... OptM3 with GC (2021)
Angular Grid (max. ang.)         AngularGrid ... 4 (Lebedev-302)
Angular grid pruning method      GridPruning ... 4 (adaptive)
Weight generation scheme         WeightScheme... Becke
Basis function cutoff            BFCut       ... 1.0000e-11
Integration weight cutoff        WCut        ... 1.0000e-14
Angular grids for H and He will be reduced by one unit
Partially contracted basis set               ... off
Rotationally invariant grid construction     ... off

Total number of grid points                  ...   182545
Total number of batches                      ...     2873
Average number of points per batch           ...       63
Average number of grid points per atom       ...     4564
Time for grid setup =    2.238 sec

--------------------
COSX GRID GENERATION
--------------------

GRIDX 1
-------
General Integration Accuracy     IntAcc      ... 3.816
Radial Grid Type                 RadialGrid  ... OptM3 with GC (2021)
Angular Grid (max. ang.)         AngularGrid ... 1 (Lebedev-50)
Angular grid pruning method      GridPruning ... 4 (adaptive)
Weight generation scheme         WeightScheme... Becke
Basis function cutoff            BFCut       ... 1.0000e-11
Integration weight cutoff        WCut        ... 1.0000e-14
Angular grids for H and He will be reduced by one unit
Partially contracted basis set               ... on
Rotationally invariant grid construction     ... off

Total number of grid points                  ...    22714
Total number of batches                      ...      380
Average number of points per batch           ...       59
Average number of grid points per atom       ...      568
UseSFitting                                  ... on

GRIDX 2
-------
General Integration Accuracy     IntAcc      ... 4.020
Radial Grid Type                 RadialGrid  ... OptM3 with GC (2021)
Angular Grid (max. ang.)         AngularGrid ... 2 (Lebedev-110)
Angular grid pruning method      GridPruning ... 4 (adaptive)
Weight generation scheme         WeightScheme... Becke
Basis function cutoff            BFCut       ... 1.0000e-11
Integration weight cutoff        WCut        ... 1.0000e-14
Angular grids for H and He will be reduced by one unit
Partially contracted basis set               ... on
Rotationally invariant grid construction     ... off

Total number of grid points                  ...    52123
Total number of batches                      ...      834
Average number of points per batch           ...       62
Average number of grid points per atom       ...     1303
UseSFitting                                  ... on

GRIDX 3
-------
General Integration Accuracy     IntAcc      ... 4.338
Radial Grid Type                 RadialGrid  ... OptM3 with GC (2021)
Angular Grid (max. ang.)         AngularGrid ... 3 (Lebedev-194)
Angular grid pruning method      GridPruning ... 4 (adaptive)
Weight generation scheme         WeightScheme... Becke
Basis function cutoff            BFCut       ... 1.0000e-11
Integration weight cutoff        WCut        ... 1.0000e-14
Angular grids for H and He will be reduced by one unit
Partially contracted basis set               ... on
Rotationally invariant grid construction     ... off

Total number of grid points                  ...   115952
Total number of batches                      ...     1831
Average number of points per batch           ...       63
Average number of grid points per atom       ...     2899
UseSFitting                                  ... on

Time for X-Grid setup             =    4.420 sec

--------------
SCF ITERATIONS
--------------
ITER       Energy         Delta-E        Max-DP      RMS-DP      [F,P]     Damp
               ***  Starting incremental Fock matrix formation  ***
  0  -1188.3309743389   0.000000000000 0.85997542  0.00456121  0.2712699 0.7000
  1  -1188.6836584196  -0.352684080701 0.73910395  0.00377495  0.1358192 0.7000
                               ***Turning on DIIS***
  2  -1188.8390186308  -0.155360211221 1.19192531  0.00795547  0.0603263 0.0000
  3  -1189.0975709161  -0.258552285329 0.93365823  0.00292244  0.0650532 0.0000
  4  -1189.1415567916  -0.043985875438 0.26456819  0.00107950  0.0180795 0.0000
  5  -1189.1429124701  -0.001355678575 0.12040985  0.00036662  0.0109083 0.0000
                      *** Initiating the SOSCF procedure ***
                           *** Shutting down DIIS ***
                      *** Re-Reading the Fockian *** 
                      *** Removing any level shift *** 
ITER      Energy       Delta-E        Grad      Rot      Max-DP    RMS-DP
  6  -1189.14324813  -0.0003356618  0.000427  0.000427  0.098990  0.000236
               *** Restarting incremental Fock matrix formation ***
  7  -1189.14328766  -0.0000395269  0.000235  0.000692  0.180436  0.001259
  8  -1189.14330070  -0.0000130429  0.000106  0.000499  0.106962  0.000508
  9  -1189.14330210  -0.0000013937  0.000085  0.000055  0.060544  0.000327
 10  -1189.14330350  -0.0000014003  0.000025  0.000056  0.059138  0.000158
 11  -1189.14330354  -0.0000000418  0.000022  0.000020  0.053329  0.000148
 12  -1189.14330361  -0.0000000705  0.000004  0.000009  0.174021  0.000335
 13  -1189.14330362  -0.0000000077  0.000003  0.000007  0.112483  0.000228
                  ***Gradient check signals convergence***
              ***Rediagonalizing the Fockian in SOSCF/NRSCF***

               *****************************************************
               *                     SUCCESS                       *
               *           SCF CONVERGED AFTER  14 CYCLES          *
               *****************************************************


----------------
TOTAL SCF ENERGY
----------------

Total Energy       :        -1189.14330363 Eh          -32358.23435 eV

Components:
Nuclear Repulsion  :         1568.12070722 Eh           42670.73378 eV
Electronic Energy  :        -2757.26401085 Eh          -75028.96813 eV
One Electron Energy:        -4747.16766535 Eh         -129176.99941 eV
Two Electron Energy:         1989.90365450 Eh           54148.03127 eV
Max COSX asymmetry :            0.00003098 Eh               0.00084 eV

Virial components:
Potential Energy   :        -2375.58282391 Eh          -64642.89502 eV
Kinetic Energy     :         1186.43952027 Eh           32284.66067 eV
Virial Ratio       :            2.00227891


DFT components:
N(Alpha)           :       71.999770569106 electrons
N(Beta)            :       71.999770569106 electrons
N(Total)           :      143.999541138212 electrons
E(XC)              :     -109.188779751654 Eh       
DFET-embed. en.    :        0.000000000000 Eh       

---------------
SCF CONVERGENCE
---------------

  Last Energy change         ...   -1.8474e-08  Tolerance :   1.0000e-08
  Last MAX-Density change    ...    7.7675e-02  Tolerance :   1.0000e-07
  Last RMS-Density change    ...    1.3403e-04  Tolerance :   5.0000e-09
  Last Orbital Gradient      ...    2.3269e-06  Tolerance :   1.0000e-05
  Last Orbital Rotation      ...    1.7832e-06  Tolerance :   1.0000e-05

             **** THE GBW FILE WAS UPDATED (28Oct_TZVPD_LC_BLYP_D4_wb97.gbw) ****
             **** DENSITY 28Oct_TZVPD_LC_BLYP_D4_wb97.scfp WAS UPDATED ****
             **** ENERGY FILE WAS UPDATED (28Oct_TZVPD_LC_BLYP_D4_wb97.en.tmp) ****
             **** THE GBW FILE WAS UPDATED (28Oct_TZVPD_LC_BLYP_D4_wb97.gbw) ****
             **** DENSITY 28Oct_TZVPD_LC_BLYP_D4_wb97.scfp WAS UPDATED ****
----------------
ORBITAL ENERGIES
----------------

  NO   OCC          E(Eh)            E(eV) 
   0   2.0000     -88.535914     -2409.1847 
   1   2.0000     -24.592469      -669.1951 
   2   2.0000     -18.965089      -516.0663 
   3   2.0000     -18.955770      -515.8127 
   4   2.0000     -14.147012      -384.9598 
   5   2.0000     -14.127254      -384.4221 
   6   2.0000     -10.139633      -275.9134 
   7   2.0000     -10.096504      -274.7398 
   8   2.0000     -10.083254      -274.3793 
   9   2.0000     -10.064510      -273.8693 
  10   2.0000     -10.058822      -273.7145 
  11   2.0000     -10.052589      -273.5448 
  12   2.0000     -10.042550      -273.2717 
  13   2.0000     -10.033678      -273.0303 
  14   2.0000     -10.028481      -272.8889 
  15   2.0000     -10.021021      -272.6859 
  16   2.0000      -9.950633      -270.7705 
  17   2.0000      -8.078907      -219.8382 
  18   2.0000      -6.110559      -166.2768 
  19   2.0000      -6.103904      -166.0957 
  20   2.0000      -6.103369      -166.0811 
  21   2.0000      -1.484018       -40.3822 
  22   2.0000      -1.214305       -33.0429 
  23   2.0000      -1.114904       -30.3381 
  24   2.0000      -1.032165       -28.0866 
  25   2.0000      -0.955374       -25.9970 
  26   2.0000      -0.941298       -25.6140 
  27   2.0000      -0.914616       -24.8880 
  28   2.0000      -0.884465       -24.0675 
  29   2.0000      -0.863172       -23.4881 
  30   2.0000      -0.832388       -22.6504 
  31   2.0000      -0.807011       -21.9599 
  32   2.0000      -0.773424       -21.0459 
  33   2.0000      -0.745194       -20.2778 
  34   2.0000      -0.723326       -19.6827 
  35   2.0000      -0.711393       -19.3580 
  36   2.0000      -0.697493       -18.9797 
  37   2.0000      -0.692578       -18.8460 
  38   2.0000      -0.677868       -18.4457 
  39   2.0000      -0.657587       -17.8939 
  40   2.0000      -0.642912       -17.4945 
  41   2.0000      -0.624706       -16.9991 
  42   2.0000      -0.610453       -16.6113 
  43   2.0000      -0.602106       -16.3841 
  44   2.0000      -0.584409       -15.9026 
  45   2.0000      -0.574982       -15.6460 
  46   2.0000      -0.570651       -15.5282 
  47   2.0000      -0.558738       -15.2040 
  48   2.0000      -0.551702       -15.0126 
  49   2.0000      -0.534403       -14.5418 
  50   2.0000      -0.526357       -14.3229 
  51   2.0000      -0.516849       -14.0642 
  52   2.0000      -0.515171       -14.0185 
  53   2.0000      -0.509884       -13.8747 
  54   2.0000      -0.485008       -13.1977 
  55   2.0000      -0.481476       -13.1016 
  56   2.0000      -0.476538       -12.9673 
  57   2.0000      -0.466981       -12.7072 
  58   2.0000      -0.458764       -12.4836 
  59   2.0000      -0.449842       -12.2408 
  60   2.0000      -0.444814       -12.1040 
  61   2.0000      -0.434983       -11.8365 
  62   2.0000      -0.428295       -11.6545 
  63   2.0000      -0.420092       -11.4313 
  64   2.0000      -0.416224       -11.3260 
  65   2.0000      -0.413296       -11.2464 
  66   2.0000      -0.399568       -10.8728 
  67   2.0000      -0.390619       -10.6293 
  68   2.0000      -0.381991       -10.3945 
  69   2.0000      -0.366977        -9.9859 
  70   2.0000      -0.336281        -9.1507 
  71   2.0000      -0.225435        -6.1344 
  72   0.0000       0.022342         0.6080 
  73   0.0000       0.046047         1.2530 
  74   0.0000       0.046501         1.2654 
  75   0.0000       0.058007         1.5784 
  76   0.0000       0.068312         1.8589 
  77   0.0000       0.072903         1.9838 
  78   0.0000       0.075388         2.0514 
  79   0.0000       0.080972         2.2034 
  80   0.0000       0.083787         2.2800 
  81   0.0000       0.093201         2.5361 
  82   0.0000       0.096249         2.6191 
  83   0.0000       0.103237         2.8092 
  84   0.0000       0.104481         2.8431 
  85   0.0000       0.107443         2.9237 
  86   0.0000       0.113113         3.0780 
  87   0.0000       0.120430         3.2771 
  88   0.0000       0.126491         3.4420 
  89   0.0000       0.133190         3.6243 
  90   0.0000       0.134773         3.6674 
  91   0.0000       0.138441         3.7672 
  92   0.0000       0.142220         3.8700 
  93   0.0000       0.145248         3.9524 
  94   0.0000       0.150318         4.0903 
  95   0.0000       0.152432         4.1479 
  96   0.0000       0.154857         4.2139 
  97   0.0000       0.159966         4.3529 
  98   0.0000       0.166466         4.5298 
  99   0.0000       0.169524         4.6130 
 100   0.0000       0.172869         4.7040 
 101   0.0000       0.173899         4.7320 
 102   0.0000       0.179143         4.8747 
 103   0.0000       0.180389         4.9086 
 104   0.0000       0.184592         5.0230 
 105   0.0000       0.186777         5.0824 
 106   0.0000       0.188985         5.1425 
 107   0.0000       0.192997         5.2517 
 108   0.0000       0.201898         5.4939 
 109   0.0000       0.205072         5.5803 
 110   0.0000       0.209270         5.6945 
 111   0.0000       0.210501         5.7280 
 112   0.0000       0.219665         5.9774 
 113   0.0000       0.221250         6.0205 
 114   0.0000       0.225001         6.1226 
 115   0.0000       0.227882         6.2010 
 116   0.0000       0.231959         6.3119 
 117   0.0000       0.236535         6.4365 
 118   0.0000       0.237971         6.4755 
 119   0.0000       0.245856         6.6901 
 120   0.0000       0.248697         6.7674 
 121   0.0000       0.250610         6.8194 
 122   0.0000       0.257506         7.0071 
 123   0.0000       0.257712         7.0127 
 124   0.0000       0.259497         7.0613 
 125   0.0000       0.263045         7.1578 
 126   0.0000       0.268534         7.3072 
 127   0.0000       0.270753         7.3676 
 128   0.0000       0.274618         7.4727 
 129   0.0000       0.276072         7.5123 
 130   0.0000       0.278869         7.5884 
 131   0.0000       0.281166         7.6509 
 132   0.0000       0.284486         7.7413 
 133   0.0000       0.288937         7.8624 
 134   0.0000       0.293038         7.9740 
 135   0.0000       0.296149         8.0586 
 136   0.0000       0.300193         8.1687 
 137   0.0000       0.304702         8.2914 
 138   0.0000       0.306492         8.3401 
 139   0.0000       0.309213         8.4141 
 140   0.0000       0.310776         8.4566 
 141   0.0000       0.316495         8.6123 
 142   0.0000       0.318986         8.6800 
 143   0.0000       0.319712         8.6998 
 144   0.0000       0.324873         8.8402 
 145   0.0000       0.327249         8.9049 
 146   0.0000       0.331006         9.0071 
 147   0.0000       0.333416         9.0727 
 148   0.0000       0.335088         9.1182 
 149   0.0000       0.337759         9.1909 
 150   0.0000       0.340583         9.2677 
 151   0.0000       0.343996         9.3606 
 152   0.0000       0.346499         9.4287 
 153   0.0000       0.350478         9.5370 
 154   0.0000       0.351163         9.5556 
 155   0.0000       0.351902         9.5757 
 156   0.0000       0.354581         9.6486 
 157   0.0000       0.359583         9.7847 
 158   0.0000       0.361263         9.8305 
 159   0.0000       0.363748         9.8981 
 160   0.0000       0.367788        10.0080 
 161   0.0000       0.368751        10.0342 
 162   0.0000       0.371698        10.1144 
 163   0.0000       0.374450        10.1893 
 164   0.0000       0.379806        10.3351 
 165   0.0000       0.382173        10.3995 
 166   0.0000       0.382871        10.4185 
 167   0.0000       0.388777        10.5792 
 168   0.0000       0.390313        10.6210 
 169   0.0000       0.390416        10.6238 
 170   0.0000       0.396848        10.7988 
 171   0.0000       0.397757        10.8235 
 172   0.0000       0.403857        10.9895 
 173   0.0000       0.405153        11.0248 
 174   0.0000       0.407268        11.0823 
 175   0.0000       0.410700        11.1757 
 176   0.0000       0.415930        11.3180 
 177   0.0000       0.418520        11.3885 
 178   0.0000       0.419263        11.4087 
 179   0.0000       0.420520        11.4429 
 180   0.0000       0.426593        11.6082 
 181   0.0000       0.427965        11.6455 
 182   0.0000       0.431597        11.7444 
 183   0.0000       0.434207        11.8154 
 184   0.0000       0.437389        11.9020 
 185   0.0000       0.439674        11.9641 
 186   0.0000       0.441693        12.0191 
 187   0.0000       0.445224        12.1152 
 188   0.0000       0.445879        12.1330 
 189   0.0000       0.451476        12.2853 
 190   0.0000       0.451770        12.2933 
 191   0.0000       0.456050        12.4098 
 192   0.0000       0.457536        12.4502 
 193   0.0000       0.460511        12.5311 
 194   0.0000       0.463249        12.6056 
 195   0.0000       0.466952        12.7064 
 196   0.0000       0.472882        12.8678 
 197   0.0000       0.473348        12.8805 
 198   0.0000       0.476447        12.9648 
 199   0.0000       0.483273        13.1505 
 200   0.0000       0.484784        13.1916 
 201   0.0000       0.488223        13.2852 
 202   0.0000       0.489255        13.3133 
 203   0.0000       0.492691        13.4068 
 204   0.0000       0.497478        13.5371 
 205   0.0000       0.499561        13.5938 
 206   0.0000       0.502699        13.6791 
 207   0.0000       0.507155        13.8004 
 208   0.0000       0.511809        13.9270 
 209   0.0000       0.514964        14.0129 
 210   0.0000       0.517464        14.0809 
 211   0.0000       0.519188        14.1278 
 212   0.0000       0.522639        14.2217 
 213   0.0000       0.527406        14.3515 
 214   0.0000       0.531223        14.4553 
 215   0.0000       0.534186        14.5359 
 216   0.0000       0.536409        14.5964 
 217   0.0000       0.540161        14.6985 
 218   0.0000       0.541771        14.7424 
 219   0.0000       0.542631        14.7658 
 220   0.0000       0.550920        14.9913 
 221   0.0000       0.550944        14.9919 
 222   0.0000       0.554646        15.0927 
 223   0.0000       0.556912        15.1543 
 224   0.0000       0.558230        15.1902 
 225   0.0000       0.562567        15.3082 
 226   0.0000       0.571549        15.5526 
 227   0.0000       0.574135        15.6230 
 228   0.0000       0.577707        15.7202 
 229   0.0000       0.579410        15.7665 
 230   0.0000       0.582424        15.8486 
 231   0.0000       0.585433        15.9304 
 232   0.0000       0.590814        16.0769 
 233   0.0000       0.593815        16.1585 
 234   0.0000       0.598088        16.2748 
 235   0.0000       0.605661        16.4809 
 236   0.0000       0.606274        16.4975 
 237   0.0000       0.612517        16.6674 
 238   0.0000       0.616720        16.7818 
 239   0.0000       0.619128        16.8473 
 240   0.0000       0.622029        16.9263 
 241   0.0000       0.624567        16.9953 
 242   0.0000       0.627148        17.0656 
 243   0.0000       0.630752        17.1636 
 244   0.0000       0.636327        17.3153 
 245   0.0000       0.639397        17.3989 
 246   0.0000       0.640522        17.4295 
 247   0.0000       0.645054        17.5528 
 248   0.0000       0.646733        17.5985 
 249   0.0000       0.648196        17.6383 
 250   0.0000       0.654063        17.7980 
 251   0.0000       0.659798        17.9540 
 252   0.0000       0.663314        18.0497 
 253   0.0000       0.667347        18.1594 
 254   0.0000       0.673237        18.3197 
 255   0.0000       0.676844        18.4179 
 256   0.0000       0.679361        18.4864 
 257   0.0000       0.683122        18.5887 
 258   0.0000       0.685748        18.6602 
 259   0.0000       0.690771        18.7968 
 260   0.0000       0.691558        18.8182 
 261   0.0000       0.695298        18.9200 
 262   0.0000       0.702117        19.1056 
 263   0.0000       0.704354        19.1664 
 264   0.0000       0.706930        19.2366 
 265   0.0000       0.710654        19.3379 
 266   0.0000       0.715741        19.4763 
 267   0.0000       0.716998        19.5105 
 268   0.0000       0.720870        19.6159 
 269   0.0000       0.724276        19.7086 
 270   0.0000       0.728436        19.8218 
 271   0.0000       0.729916        19.8620 
 272   0.0000       0.731527        19.9059 
 273   0.0000       0.738261        20.0891 
 274   0.0000       0.741582        20.1795 
 275   0.0000       0.744265        20.2525 
 276   0.0000       0.747428        20.3386 
 277   0.0000       0.749056        20.3829 
 278   0.0000       0.750696        20.4275 
 279   0.0000       0.755427        20.5562 
 280   0.0000       0.756809        20.5938 
 281   0.0000       0.760957        20.7067 
 282   0.0000       0.766081        20.8461 
 283   0.0000       0.770418        20.9641 
 284   0.0000       0.772306        21.0155 
 285   0.0000       0.775565        21.1042 
 286   0.0000       0.779049        21.1990 
 287   0.0000       0.780268        21.2322 
 288   0.0000       0.788051        21.4440 
 289   0.0000       0.788826        21.4650 
 290   0.0000       0.792436        21.5633 
 291   0.0000       0.798377        21.7250 
 292   0.0000       0.800090        21.7716 
 293   0.0000       0.801364        21.8062 
 294   0.0000       0.803530        21.8652 
 295   0.0000       0.809902        22.0386 
 296   0.0000       0.811998        22.0956 
 297   0.0000       0.813265        22.1301 
 298   0.0000       0.817745        22.2520 
 299   0.0000       0.823231        22.4013 
 300   0.0000       0.824690        22.4410 
 301   0.0000       0.828122        22.5344 
 302   0.0000       0.833278        22.6746 
 303   0.0000       0.834831        22.7169 
 304   0.0000       0.837427        22.7875 
 305   0.0000       0.841563        22.9001 
 306   0.0000       0.846153        23.0250 
 307   0.0000       0.849687        23.1212 
 308   0.0000       0.852764        23.2049 
 309   0.0000       0.860454        23.4141 
 310   0.0000       0.861693        23.4479 
 311   0.0000       0.865015        23.5383 
 312   0.0000       0.865872        23.5616 
 313   0.0000       0.868444        23.6316 
 314   0.0000       0.874489        23.7960 
 315   0.0000       0.879636        23.9361 
 316   0.0000       0.882600        24.0168 
 317   0.0000       0.887075        24.1385 
 318   0.0000       0.889077        24.1930 
 319   0.0000       0.894923        24.3521 
 320   0.0000       0.899504        24.4767 
 321   0.0000       0.906633        24.6707 
 322   0.0000       0.908788        24.7294 
 323   0.0000       0.913811        24.8661 
 324   0.0000       0.915889        24.9226 
 325   0.0000       0.921889        25.0859 
 326   0.0000       0.926018        25.1982 
 327   0.0000       0.927022        25.2255 
 328   0.0000       0.932847        25.3840 
 329   0.0000       0.935694        25.4615 
 330   0.0000       0.939232        25.5578 
 331   0.0000       0.944172        25.6922 
 332   0.0000       0.951566        25.8934 
 333   0.0000       0.953313        25.9410 
 334   0.0000       0.954706        25.9789 
 335   0.0000       0.961319        26.1588 
 336   0.0000       0.962765        26.1982 
 337   0.0000       0.967995        26.3405 
 338   0.0000       0.970152        26.3992 
 339   0.0000       0.976631        26.5755 
 340   0.0000       0.985625        26.8202 
 341   0.0000       0.991387        26.9770 
 342   0.0000       0.997518        27.1439 
 343   0.0000       1.002040        27.2669 
 344   0.0000       1.005731        27.3673 
 345   0.0000       1.009594        27.4724 
 346   0.0000       1.014355        27.6020 
 347   0.0000       1.017334        27.6831 
 348   0.0000       1.023307        27.8456 
 349   0.0000       1.027737        27.9661 
 350   0.0000       1.034242        28.1432 
 351   0.0000       1.039246        28.2793 
 352   0.0000       1.045064        28.4376 
 353   0.0000       1.045653        28.4537 
 354   0.0000       1.054205        28.6864 
 355   0.0000       1.061829        28.8938 
 356   0.0000       1.063050        28.9271 
 357   0.0000       1.074205        29.2306 
 358   0.0000       1.077436        29.3185 
 359   0.0000       1.082037        29.4437 
 360   0.0000       1.082471        29.4555 
 361   0.0000       1.090665        29.6785 
 362   0.0000       1.099129        29.9088 
 363   0.0000       1.104574        30.0570 
 364   0.0000       1.108644        30.1677 
 365   0.0000       1.113661        30.3043 
 366   0.0000       1.115096        30.3433 
 367   0.0000       1.128692        30.7133 
 368   0.0000       1.132971        30.8297 
 369   0.0000       1.143360        31.1124 
 370   0.0000       1.145204        31.1626 
 371   0.0000       1.157972        31.5100 
 372   0.0000       1.158934        31.5362 
 373   0.0000       1.163755        31.6674 
 374   0.0000       1.171859        31.8879 
 375   0.0000       1.172131        31.8953 
 376   0.0000       1.181968        32.1630 
 377   0.0000       1.191768        32.4297 
 378   0.0000       1.197513        32.5860 
 379   0.0000       1.207031        32.8450 
 380   0.0000       1.212150        32.9843 
 381   0.0000       1.215708        33.0811 
 382   0.0000       1.225035        33.3349 
 383   0.0000       1.237355        33.6701 
 384   0.0000       1.238077        33.6898 
 385   0.0000       1.242864        33.8200 
 386   0.0000       1.246833        33.9280 
 387   0.0000       1.248762        33.9805 
 388   0.0000       1.266852        34.4728 
 389   0.0000       1.275634        34.7118 
 390   0.0000       1.276976        34.7483 
 391   0.0000       1.285491        34.9800 
 392   0.0000       1.296613        35.2826 
 393   0.0000       1.301169        35.4066 
 394   0.0000       1.308495        35.6060 
 395   0.0000       1.318393        35.8753 
 396   0.0000       1.322010        35.9737 
 397   0.0000       1.327838        36.1323 
 398   0.0000       1.335909        36.3519 
 399   0.0000       1.341437        36.5023 
 400   0.0000       1.360025        37.0082 
 401   0.0000       1.371931        37.3321 
 402   0.0000       1.375352        37.4252 
 403   0.0000       1.386489        37.7283 
 404   0.0000       1.391881        37.8750 
 405   0.0000       1.399748        38.0891 
 406   0.0000       1.408276        38.3211 
 407   0.0000       1.412240        38.4290 
 408   0.0000       1.419198        38.6183 
 409   0.0000       1.424293        38.7570 
 410   0.0000       1.429844        38.9080 
 411   0.0000       1.437281        39.1104 
 412   0.0000       1.460156        39.7329 
 413   0.0000       1.465587        39.8806 
 414   0.0000       1.473368        40.0924 
 415   0.0000       1.475714        40.1562 
 416   0.0000       1.491697        40.5911 
 417   0.0000       1.500196        40.8224 
 418   0.0000       1.507107        41.0105 
 419   0.0000       1.509296        41.0700 
 420   0.0000       1.515353        41.2348 
 421   0.0000       1.523079        41.4451 
 422   0.0000       1.537273        41.8313 
 423   0.0000       1.547392        42.1067 
 424   0.0000       1.555097        42.3163 
 425   0.0000       1.562013        42.5045 
 426   0.0000       1.565890        42.6100 
 427   0.0000       1.571379        42.7594 
 428   0.0000       1.583049        43.0770 
 429   0.0000       1.588500        43.2253 
 430   0.0000       1.593312        43.3562 
 431   0.0000       1.601806        43.5874 
 432   0.0000       1.603569        43.6353 
 433   0.0000       1.619432        44.0670 
 434   0.0000       1.627646        44.2905 
 435   0.0000       1.639008        44.5997 
 436   0.0000       1.645166        44.7673 
 437   0.0000       1.653361        44.9903 
 438   0.0000       1.660419        45.1823 
 439   0.0000       1.669973        45.4423 
 440   0.0000       1.680444        45.7272 
 441   0.0000       1.685429        45.8629 
 442   0.0000       1.691520        46.0286 
 443   0.0000       1.696596        46.1667 
 444   0.0000       1.710308        46.5398 
 445   0.0000       1.725013        46.9400 
 446   0.0000       1.732060        47.1317 
 447   0.0000       1.739335        47.3297 
 448   0.0000       1.749915        47.6176 
 449   0.0000       1.760059        47.8936 
 450   0.0000       1.766605        48.0718 
 451   0.0000       1.774142        48.2769 
 452   0.0000       1.798419        48.9375 
 453   0.0000       1.805180        49.1214 
 454   0.0000       1.810397        49.2634 
 455   0.0000       1.830206        49.8024 
 456   0.0000       1.843989        50.1775 
 457   0.0000       1.878590        51.1190 
 458   0.0000       1.895683        51.5842 
 459   0.0000       1.905007        51.8379 
 460   0.0000       1.919566        52.2341 
 461   0.0000       1.921382        52.2835 
 462   0.0000       1.936771        52.7022 
 463   0.0000       1.939520        52.7770 
 464   0.0000       1.955090        53.2007 
 465   0.0000       1.957718        53.2722 
 466   0.0000       1.960885        53.3584 
 467   0.0000       1.964901        53.4677 
 468   0.0000       1.970377        53.6167 
 469   0.0000       1.977609        53.8135 
 470   0.0000       1.983096        53.9628 
 471   0.0000       1.990118        54.1539 
 472   0.0000       1.994806        54.2814 
 473   0.0000       1.997645        54.3587 
 474   0.0000       2.006970        54.6124 
 475   0.0000       2.011984        54.7489 
 476   0.0000       2.012669        54.7675 
 477   0.0000       2.015957        54.8570 
 478   0.0000       2.020218        54.9729 
 479   0.0000       2.028651        55.2024 
 480   0.0000       2.034028        55.3487 
 481   0.0000       2.043991        55.6198 
 482   0.0000       2.046272        55.6819 
 483   0.0000       2.050831        55.8059 
 484   0.0000       2.058005        56.0012 
 485   0.0000       2.059514        56.0422 
 486   0.0000       2.065357        56.2012 
 487   0.0000       2.070981        56.3543 
 488   0.0000       2.078620        56.5621 
 489   0.0000       2.084434        56.7203 
 490   0.0000       2.090780        56.8930 
 491   0.0000       2.107598        57.3507 
 492   0.0000       2.113100        57.5004 
 493   0.0000       2.119668        57.6791 
 494   0.0000       2.129500        57.9466 
 495   0.0000       2.140247        58.2391 
 496   0.0000       2.143847        58.3371 
 497   0.0000       2.158292        58.7301 
 498   0.0000       2.160664        58.7947 
 499   0.0000       2.160760        58.7973 
 500   0.0000       2.185262        59.4640 
 501   0.0000       2.191081        59.6223 
 502   0.0000       2.205707        60.0203 
 503   0.0000       2.213203        60.2243 
 504   0.0000       2.229626        60.6712 
 505   0.0000       2.237015        60.8723 
 506   0.0000       2.241646        60.9983 
 507   0.0000       2.251741        61.2730 
 508   0.0000       2.269473        61.7555 
 509   0.0000       2.271493        61.8105 
 510   0.0000       2.276872        61.9568 
 511   0.0000       2.295670        62.4684 
 512   0.0000       2.296924        62.5025 
 513   0.0000       2.307425        62.7882 
 514   0.0000       2.319586        63.1191 
 515   0.0000       2.328332        63.3571 
 516   0.0000       2.331507        63.4435 
 517   0.0000       2.342366        63.7390 
 518   0.0000       2.349201        63.9250 
 519   0.0000       2.357245        64.1439 
 520   0.0000       2.373177        64.5774 
 521   0.0000       2.374784        64.6212 
 522   0.0000       2.379178        64.7407 
 523   0.0000       2.387907        64.9783 
 524   0.0000       2.393110        65.1198 
 525   0.0000       2.396202        65.2040 
 526   0.0000       2.420602        65.8679 
 527   0.0000       2.429599        66.1128 
 528   0.0000       2.435899        66.2842 
 529   0.0000       2.440123        66.3991 
 530   0.0000       2.445420        66.5433 
 531   0.0000       2.454559        66.7919 
 532   0.0000       2.464544        67.0636 
 533   0.0000       2.467475        67.1434 
 534   0.0000       2.487963        67.7009 
 535   0.0000       2.488986        67.7288 
 536   0.0000       2.496988        67.9465 
 537   0.0000       2.501974        68.0822 
 538   0.0000       2.513538        68.3968 
 539   0.0000       2.538284        69.0702 
 540   0.0000       2.552200        69.4489 
 541   0.0000       2.556057        69.5538 
 542   0.0000       2.564933        69.7954 
 543   0.0000       2.583859        70.3104 
 544   0.0000       2.589241        70.4568 
 545   0.0000       2.599489        70.7357 
 546   0.0000       2.605707        70.9049 
 547   0.0000       2.610397        71.0325 
 548   0.0000       2.624375        71.4129 
 549   0.0000       2.644682        71.9655 
 550   0.0000       2.649087        72.0853 
 551   0.0000       2.654910        72.2438 
 552   0.0000       2.660115        72.3854 
 553   0.0000       2.678081        72.8743 
 554   0.0000       2.682916        73.0059 
 555   0.0000       2.685192        73.0678 
 556   0.0000       2.694961        73.3336 
 557   0.0000       2.701682        73.5165 
 558   0.0000       2.711825        73.7925 
 559   0.0000       2.717414        73.9446 
 560   0.0000       2.726844        74.2012 
 561   0.0000       2.732508        74.3553 
 562   0.0000       2.743527        74.6552 
 563   0.0000       2.751056        74.8600 
 564   0.0000       2.755728        74.9872 
 565   0.0000       2.757361        75.0316 
 566   0.0000       2.769682        75.3669 
 567   0.0000       2.783844        75.7522 
 568   0.0000       2.788044        75.8665 
 569   0.0000       2.790213        75.9255 
 570   0.0000       2.797484        76.1234 
 571   0.0000       2.803691        76.2923 
 572   0.0000       2.825260        76.8792 
 573   0.0000       2.828613        76.9705 
 574   0.0000       2.843387        77.3725 
 575   0.0000       2.850139        77.5562 
 576   0.0000       2.852139        77.6106 
 577   0.0000       2.858162        77.7745 
 578   0.0000       2.858612        77.7868 
 579   0.0000       2.869065        78.0712 
 580   0.0000       2.874995        78.2326 
 581   0.0000       2.880141        78.3726 
 582   0.0000       2.884177        78.4825 
 583   0.0000       2.895360        78.7868 
 584   0.0000       2.897682        78.8499 
 585   0.0000       2.906628        79.0934 
 586   0.0000       2.909856        79.1812 
 587   0.0000       2.923675        79.5572 
 588   0.0000       2.927192        79.6529 
 589   0.0000       2.934718        79.8577 
 590   0.0000       2.938869        79.9707 
 591   0.0000       2.944052        80.1117 
 592   0.0000       2.952852        80.3512 
 593   0.0000       2.964527        80.6689 
 594   0.0000       2.971093        80.8475 
 595   0.0000       2.974645        80.9442 
 596   0.0000       2.982596        81.1606 
 597   0.0000       2.986336        81.2623 
 598   0.0000       2.997037        81.5535 
 599   0.0000       3.010085        81.9086 
 600   0.0000       3.022044        82.2340 
 601   0.0000       3.025656        82.3323 
 602   0.0000       3.036501        82.6274 
 603   0.0000       3.041737        82.7699 
 604   0.0000       3.053475        83.0893 
 605   0.0000       3.070080        83.5411 
 606   0.0000       3.080714        83.8305 
 607   0.0000       3.087538        84.0162 
 608   0.0000       3.089975        84.0825 
 609   0.0000       3.102939        84.4353 
 610   0.0000       3.104091        84.4666 
 611   0.0000       3.117877        84.8417 
 612   0.0000       3.126797        85.0845 
 613   0.0000       3.138621        85.4062 
 614   0.0000       3.146535        85.6216 
 615   0.0000       3.162748        86.0627 
 616   0.0000       3.168976        86.2322 
 617   0.0000       3.183687        86.6325 
 618   0.0000       3.191358        86.8413 
 619   0.0000       3.204608        87.2018 
 620   0.0000       3.209326        87.3302 
 621   0.0000       3.222437        87.6870 
 622   0.0000       3.236145        88.0600 
 623   0.0000       3.244220        88.2797 
 624   0.0000       3.252135        88.4951 
 625   0.0000       3.263198        88.7961 
 626   0.0000       3.268334        88.9359 
 627   0.0000       3.282757        89.3284 
 628   0.0000       3.291126        89.5561 
 629   0.0000       3.294035        89.6352 
 630   0.0000       3.311304        90.1052 
 631   0.0000       3.317062        90.2619 
 632   0.0000       3.322788        90.4177 
 633   0.0000       3.339053        90.8603 
 634   0.0000       3.355374        91.3044 
 635   0.0000       3.357766        91.3695 
 636   0.0000       3.362340        91.4939 
 637   0.0000       3.372454        91.7692 
 638   0.0000       3.397710        92.4564 
 639   0.0000       3.399468        92.5042 
 640   0.0000       3.405457        92.6672 
 641   0.0000       3.410515        92.8048 
 642   0.0000       3.413823        92.8948 
 643   0.0000       3.435485        93.4843 
 644   0.0000       3.443782        93.7101 
 645   0.0000       3.454330        93.9971 
 646   0.0000       3.465396        94.2982 
 647   0.0000       3.467604        94.3583 
 648   0.0000       3.469335        94.4054 
 649   0.0000       3.488684        94.9319 
 650   0.0000       3.503700        95.3405 
 651   0.0000       3.504932        95.3740 
 652   0.0000       3.512045        95.5676 
 653   0.0000       3.516939        95.7008 
 654   0.0000       3.523484        95.8789 
 655   0.0000       3.537052        96.2481 
 656   0.0000       3.542639        96.4001 
 657   0.0000       3.551271        96.6350 
 658   0.0000       3.553112        96.6851 
 659   0.0000       3.569321        97.1262 
 660   0.0000       3.579424        97.4011 
 661   0.0000       3.588912        97.6592 
 662   0.0000       3.596686        97.8708 
 663   0.0000       3.606983        98.1510 
 664   0.0000       3.618763        98.4715 
 665   0.0000       3.621253        98.5393 
 666   0.0000       3.624544        98.6288 
 667   0.0000       3.631607        98.8211 
 668   0.0000       3.640951        99.0753 
 669   0.0000       3.649922        99.3194 
 670   0.0000       3.657212        99.5178 
 671   0.0000       3.666113        99.7600 
 672   0.0000       3.667478        99.7972 
 673   0.0000       3.676932       100.0544 
 674   0.0000       3.690806       100.4319 
 675   0.0000       3.698786       100.6491 
 676   0.0000       3.706583       100.8613 
 677   0.0000       3.716493       101.1309 
 678   0.0000       3.724482       101.3483 
 679   0.0000       3.733018       101.5806 
 680   0.0000       3.738707       101.7354 
 681   0.0000       3.744202       101.8849 
 682   0.0000       3.752279       102.1047 
 683   0.0000       3.760901       102.3393 
 684   0.0000       3.763648       102.4141 
 685   0.0000       3.770875       102.6107 
 686   0.0000       3.782388       102.9240 
 687   0.0000       3.799402       103.3870 
 688   0.0000       3.799995       103.4031 
 689   0.0000       3.812483       103.7429 
 690   0.0000       3.826005       104.1109 
 691   0.0000       3.827763       104.1587 
 692   0.0000       3.835373       104.3658 
 693   0.0000       3.849545       104.7514 
 694   0.0000       3.851721       104.8107 
 695   0.0000       3.866351       105.2088 
 696   0.0000       3.870113       105.3111 
 697   0.0000       3.877214       105.5043 
 698   0.0000       3.888425       105.8094 
 699   0.0000       3.907752       106.3353 
 700   0.0000       3.927994       106.8861 
 701   0.0000       3.933495       107.0358 
 702   0.0000       3.952932       107.5648 
 703   0.0000       3.965404       107.9041 
 704   0.0000       3.984746       108.4305 
 705   0.0000       3.998161       108.7955 
 706   0.0000       4.013326       109.2081 
 707   0.0000       4.023583       109.4873 
 708   0.0000       4.041815       109.9834 
 709   0.0000       4.052275       110.2680 
 710   0.0000       4.074379       110.8695 
 711   0.0000       4.099586       111.5554 
 712   0.0000       4.103862       111.6718 
 713   0.0000       4.107036       111.7581 
 714   0.0000       4.123088       112.1949 
 715   0.0000       4.129019       112.3563 
 716   0.0000       4.142548       112.7245 
 717   0.0000       4.157116       113.1209 
 718   0.0000       4.167460       113.4024 
 719   0.0000       4.181970       113.7972 
 720   0.0000       4.188422       113.9728 
 721   0.0000       4.205133       114.4275 
 722   0.0000       4.219794       114.8264 
 723   0.0000       4.223112       114.9167 
 724   0.0000       4.243492       115.4713 
 725   0.0000       4.261432       115.9595 
 726   0.0000       4.269409       116.1765 
 727   0.0000       4.284662       116.5916 
 728   0.0000       4.300246       117.0157 
 729   0.0000       4.306530       117.1866 
 730   0.0000       4.326188       117.7216 
 731   0.0000       4.332408       117.8908 
 732   0.0000       4.350440       118.3815 
 733   0.0000       4.368746       118.8796 
 734   0.0000       4.378871       119.1551 
 735   0.0000       4.393978       119.5662 
 736   0.0000       4.408233       119.9541 
 737   0.0000       4.435992       120.7095 
 738   0.0000       4.456559       121.2691 
 739   0.0000       4.490508       122.1929 
 740   0.0000       4.510268       122.7306 
 741   0.0000       4.524431       123.1160 
 742   0.0000       4.535010       123.4039 
 743   0.0000       4.543212       123.6271 
 744   0.0000       4.554395       123.9314 
 745   0.0000       4.596128       125.0670 
 746   0.0000       4.612715       125.5184 
 747   0.0000       4.621368       125.7538 
 748   0.0000       4.642685       126.3339 
 749   0.0000       4.676021       127.2410 
 750   0.0000       4.701253       127.9276 
 751   0.0000       4.717504       128.3698 
 752   0.0000       4.732470       128.7771 
 753   0.0000       4.756778       129.4385 
 754   0.0000       4.790777       130.3637 
 755   0.0000       4.812788       130.9626 
 756   0.0000       4.817168       131.0818 
 757   0.0000       4.825741       131.3151 
 758   0.0000       4.836506       131.6080 
 759   0.0000       4.846553       131.8814 
 760   0.0000       4.870954       132.5454 
 761   0.0000       4.895491       133.2131 
 762   0.0000       4.918867       133.8492 
 763   0.0000       4.925454       134.0284 
 764   0.0000       4.940810       134.4463 
 765   0.0000       4.955130       134.8359 
 766   0.0000       4.964661       135.0953 
 767   0.0000       4.976025       135.4045 
 768   0.0000       4.988859       135.7538 
 769   0.0000       5.001553       136.0992 
 770   0.0000       5.024735       136.7300 
 771   0.0000       5.059930       137.6877 
 772   0.0000       5.085493       138.3833 
 773   0.0000       5.106206       138.9469 
 774   0.0000       5.119716       139.3145 
 775   0.0000       5.142101       139.9237 
 776   0.0000       5.159102       140.3863 
 777   0.0000       5.184249       141.0706 
 778   0.0000       5.216240       141.9411 
 779   0.0000       5.230252       142.3224 
 780   0.0000       5.242477       142.6551 
 781   0.0000       5.248852       142.8285 
 782   0.0000       5.274546       143.5277 
 783   0.0000       5.299426       144.2047 
 784   0.0000       5.308813       144.4601 
 785   0.0000       5.310462       144.5050 
 786   0.0000       5.325797       144.9223 
 787   0.0000       5.346372       145.4822 
 788   0.0000       5.359794       145.8474 
 789   0.0000       5.384517       146.5201 
 790   0.0000       5.388851       146.6381 
 791   0.0000       5.403875       147.0469 
 792   0.0000       5.426117       147.6522 
 793   0.0000       5.436874       147.9449 
 794   0.0000       5.477779       149.0579 
 795   0.0000       5.500131       149.6662 
 796   0.0000       5.515340       150.0800 
 797   0.0000       5.538503       150.7103 
 798   0.0000       5.550263       151.0303 
 799   0.0000       5.588851       152.0804 
 800   0.0000       5.622217       152.9883 
 801   0.0000       5.624165       153.0413 
 802   0.0000       5.648639       153.7073 
 803   0.0000       5.684709       154.6888 
 804   0.0000       5.718614       155.6114 
 805   0.0000       5.747544       156.3986 
 806   0.0000       5.777983       157.2269 
 807   0.0000       5.812663       158.1706 
 808   0.0000       5.906172       160.7151 
 809   0.0000       6.191130       168.4692 
[...]
      dx2y2   :     0.121365
      dxy     :     0.115424
      f0      :     0.006502  f :     0.039961
      f+1     :     0.009305
      f-1     :     0.006421
      f+2     :     0.004399
      f-2     :     0.004729
      f+3     :     0.004382
      f-3     :     0.004222
  3 C s       :     2.709068  s :     2.709068
      pz      :     0.969678  p :     2.797913
      px      :     0.974318
      py      :     0.853917
      dz2     :     0.150669  d :     0.699324
      dxz     :     0.110120
      dyz     :     0.084287
      dx2y2   :     0.156887
      dxy     :     0.197362
      f0      :     0.004474  f :     0.032143
      f+1     :     0.003894
      f-1     :     0.003223
      f+2     :     0.003630
      f-2     :     0.004444
      f+3     :     0.005480
      f-3     :     0.006997
  4 H s       :     0.667689  s :     0.667689
      pz      :     0.070681  p :     0.212925
      px      :     0.074798
      py      :     0.067446
  5 H s       :     0.673387  s :     0.673387
      pz      :     0.102428  p :     0.215153
      px      :     0.054653
      py      :     0.058073
  6 S s       :     4.565588  s :     4.565588
      pz      :     2.761346  p :     8.285610
      px      :     2.717594
      py      :     2.806670
      dz2     :     0.478084  d :     2.133541
      dxz     :     0.497225
      dyz     :     0.357356
      dx2y2   :     0.459988
      dxy     :     0.340887
      f0      :     0.055227  f :     0.383231
      f+1     :     0.096068
      f-1     :     0.046488
      f+2     :     0.052483
      f-2     :     0.045818
      f+3     :     0.044484
      f-3     :     0.042664
  7 C s       :     2.584520  s :     2.584520
      pz      :     0.889991  p :     2.520025
      px      :     0.734451
      py      :     0.895583
      dz2     :     0.298852  d :     1.308070
      dxz     :     0.287652
      dyz     :     0.300022
      dx2y2   :     0.200647
      dxy     :     0.220896
      f0      :     0.016348  f :     0.117986
      f+1     :     0.020135
      f-1     :     0.033490
      f+2     :     0.012940
      f-2     :     0.014410
      f+3     :     0.009811
      f-3     :     0.010851
  8 N s       :     2.876556  s :     2.876556
      pz      :     1.111541  p :     3.574742
      px      :     1.379699
      py      :     1.083502
      dz2     :     0.093056  d :     0.411792
      dxz     :     0.096385
      dyz     :     0.168768
      dx2y2   :     0.037007
      dxy     :     0.016576
      f0      :     0.003152  f :     0.012182
      f+1     :     0.002912
      f-1     :     0.003000
      f+2     :     0.001337
      f-2     :     0.000335
      f+3     :     0.000457
      f-3     :     0.000990
  9 N s       :     2.891869  s :     2.891869
      pz      :     1.074596  p :     3.580115
      px      :     1.389199
      py      :     1.116321
      dz2     :     0.083975  d :     0.384047
      dxz     :     0.032307
      dyz     :     0.112681
      dx2y2   :     0.076193
      dxy     :     0.078891
      f0      :     0.001401  f :     0.011376
      f+1     :     0.000879
      f-1     :     0.002306
      f+2     :     0.001811
      f-2     :     0.001187
      f+3     :     0.001770
      f-3     :     0.002022
 10 H s       :     0.611101  s :     0.611101
      pz      :     0.125429  p :     0.296815
      px      :     0.098401
      py      :     0.072985
 11 H s       :     0.633284  s :     0.633284
      pz      :     0.082263  p :     0.274161
      px      :     0.098292
      py      :     0.093607
 12 H s       :     0.634724  s :     0.634724
      pz      :     0.097569  p :     0.359036
      px      :     0.120554
      py      :     0.140913
 13 H s       :     0.577532  s :     0.577532
      pz      :     0.090907  p :     0.397928
      px      :     0.105274
      py      :     0.201747
 14 H s       :     0.631188  s :     0.631188
      pz      :     0.072262  p :     0.270162
      px      :     0.101626
      py      :     0.096274
 15 O s       :     3.433414  s :     3.433414
      pz      :     1.568052  p :     4.522513
      px      :     1.426798
      py      :     1.527663
      dz2     :     0.051390  d :     0.307018
      dxz     :     0.053692
      dyz     :     0.043209
      dx2y2   :     0.084721
      dxy     :     0.074007
      f0      :     0.000538  f :     0.004557
      f+1     :     0.000556
      f-1     :     0.000278
      f+2     :     0.000456
      f-2     :     0.000974
      f+3     :     0.000646
      f-3     :     0.001110
 16 F s       :     3.601111  s :     3.601111
      pz      :     1.735485  p :     5.167228
      px      :     1.670239
      py      :     1.761504
      dz2     :     0.051301  d :     0.242204
      dxz     :     0.065108
      dyz     :     0.018781
      dx2y2   :     0.051607
      dxy     :     0.055408
      f0      :     0.000231  f :     0.001957
      f+1     :     0.000418
      f-1     :     0.000018
      f+2     :     0.000541
      f-2     :     0.000209
      f+3     :     0.000312
      f-3     :     0.000227
 17 C s       :     2.669057  s :     2.669057
      pz      :     0.915580  p :     2.755957
      px      :     0.926334
      py      :     0.914043
      dz2     :     0.186519  d :     0.754141
      dxz     :     0.100465
      dyz     :     0.092012
      dx2y2   :     0.161608
      dxy     :     0.213537
      f0      :     0.005947  f :     0.039064
      f+1     :     0.003845
      f-1     :     0.003241
      f+2     :     0.006205
      f-2     :     0.005528
      f+3     :     0.006838
      f-3     :     0.007461
 18 H s       :     0.664316  s :     0.664316
      pz      :     0.062419  p :     0.225493
      px      :     0.066012
      py      :     0.097062
 19 H s       :     0.673590  s :     0.673590
      pz      :     0.066866  p :     0.218824
      px      :     0.058481
      py      :     0.093478
 20 C s       :     2.663659  s :     2.663659
      pz      :     0.921098  p :     2.760412
      px      :     0.917182
      py      :     0.922132
      dz2     :     0.175720  d :     0.764322
      dxz     :     0.197052
      dyz     :     0.135643
      dx2y2   :     0.107067
      dxy     :     0.148840
      f0      :     0.006642  f :     0.039490
      f+1     :     0.008830
      f-1     :     0.005765
      f+2     :     0.004044
      f-2     :     0.004972
      f+3     :     0.004716
      f-3     :     0.004520
 21 C s       :     2.653754  s :     2.653754
      pz      :     0.893223  p :     2.751511
      px      :     0.926206
      py      :     0.932082
      dz2     :     0.185942  d :     0.780314
      dxz     :     0.187283
      dyz     :     0.144514
      dx2y2   :     0.094477
      dxy     :     0.168097
      f0      :     0.007279  f :     0.039975
      f+1     :     0.008873
      f-1     :     0.005992
      f+2     :     0.004126
      f-2     :     0.004541
      f+3     :     0.005022
      f-3     :     0.004142
 22 H s       :     0.668034  s :     0.668034
      pz      :     0.058078  p :     0.195838
      px      :     0.064104
      py      :     0.073657
 23 H s       :     0.634784  s :     0.634784
      pz      :     0.077316  p :     0.272255
      px      :     0.080758
      py      :     0.114182
 24 H s       :     0.667740  s :     0.667740
      pz      :     0.055962  p :     0.201660
      px      :     0.054305
      py      :     0.091393
 25 H s       :     0.653319  s :     0.653319
      pz      :     0.060522  p :     0.223213
      px      :     0.075114
      py      :     0.087578
 26 C s       :     2.661219  s :     2.661219
      pz      :     0.929663  p :     2.752068
      px      :     0.915008
      py      :     0.907397
      dz2     :     0.193266  d :     0.770557
      dxz     :     0.052052
      dyz     :     0.160051
      dx2y2   :     0.221337
      dxy     :     0.143851
      f0      :     0.004675  f :     0.039566
      f+1     :     0.002918
      f-1     :     0.006558
      f+2     :     0.005375
      f-2     :     0.006391
      f+3     :     0.007058
      f-3     :     0.006591
 27 H s       :     0.679536  s :     0.679536
      pz      :     0.099178  p :     0.209247
      px      :     0.052829
      py      :     0.057240
 28 H s       :     0.672439  s :     0.672439
      pz      :     0.066269  p :     0.219613
      px      :     0.066079
      py      :     0.087266
 29 C s       :     2.662789  s :     2.662789
      pz      :     0.917954  p :     2.756327
      px      :     0.926737
      py      :     0.911636
      dz2     :     0.201289  d :     0.771464
      dxz     :     0.051223
      dyz     :     0.141859
      dx2y2   :     0.219629
      dxy     :     0.157465
      f0      :     0.004500  f :     0.039294
      f+1     :     0.003398
      f-1     :     0.006315
      f+2     :     0.005067
      f-2     :     0.006176
      f+3     :     0.007033
      f-3     :     0.006805
 30 H s       :     0.676209  s :     0.676209
      pz      :     0.053341  p :     0.203048
      px      :     0.096060
      py      :     0.053646
 31 H s       :     0.650036  s :     0.650036
      pz      :     0.102378  p :     0.240604
      px      :     0.069420
      py      :     0.068806
 32 C s       :     2.670150  s :     2.670150
      pz      :     0.917346  p :     2.769167
      px      :     0.927122
      py      :     0.924699
      dz2     :     0.169926  d :     0.745753
      dxz     :     0.124795
      dyz     :     0.206984
      dx2y2   :     0.144245
      dxy     :     0.099804
      f0      :     0.006667  f :     0.038799
      f+1     :     0.006516
      f-1     :     0.007681
      f+2     :     0.004141
      f-2     :     0.005097
      f+3     :     0.005154
      f-3     :     0.003543
 33 H s       :     0.675325  s :     0.675325
      pz      :     0.095582  p :     0.204643
      px      :     0.054146
      py      :     0.054916
 34 H s       :     0.658703  s :     0.658703
      pz      :     0.069124  p :     0.234410
      px      :     0.101862
      py      :     0.063424
 35 H s       :     0.661802  s :     0.661802
      pz      :     0.066818  p :     0.221626
      px      :     0.063165
      py      :     0.091644
 36 H s       :     0.677769  s :     0.677769
      pz      :     0.056569  p :     0.203333
      px      :     0.056817
      py      :     0.089948
 37 H s       :     0.678999  s :     0.678999
      pz      :     0.060805  p :     0.206882
      px      :     0.066646
      py      :     0.079431
 38 H s       :     0.678026  s :     0.678026
      pz      :     0.053558  p :     0.206337
      px      :     0.097204
      py      :     0.055574
 39 O s       :     3.436079  s :     3.436079
      pz      :     1.396650  p :     4.499780
      px      :     1.549843
      py      :     1.553288
      dz2     :     0.099639  d :     0.330550
      dxz     :     0.075687
      dyz     :     0.083832
      dx2y2   :     0.019360
      dxy     :     0.052032
      f0      :     0.002055  f :     0.004618
      f+1     :     0.000873
      f-1     :     0.001203
      f+2     :     0.000213
      f-2     :     0.000188
      f+3     :     0.000058
      f-3     :     0.000026


                      *****************************
                      * MAYER POPULATION ANALYSIS *
                      *****************************

  NA   - Mulliken gross atomic population
  ZA   - Total nuclear charge
  QA   - Mulliken gross atomic charge
  VA   - Mayer's total valence
  BVA  - Mayer's bonded valence
  FA   - Mayer's free valence

  ATOM       NA         ZA         QA         VA         BVA        FA
  0 C      7.4679     6.0000    -1.4679     2.4321     2.4321    -0.0000
  1 C      6.6453     6.0000    -0.6453     1.5967     1.5967    -0.0000
  2 C      6.9300     6.0000    -0.9300     2.8521     2.8521     0.0000
  3 C      7.0991     6.0000    -1.0991     3.6027     3.6027     0.0000
  4 H      0.5093     1.0000     0.4907     0.8899     0.8899    -0.0000
  5 H      0.4789     1.0000     0.5211     0.8135     0.8135     0.0000
  6 S     14.7356    16.0000     1.2644     5.0510     5.0510     0.0000
  7 C      5.5295     6.0000     0.4705     3.4077     3.4077     0.0000
  8 N      7.2883     7.0000    -0.2883     2.9595     2.9595    -0.0000
  9 N      7.3559     7.0000    -0.3559     3.0563     3.0563    -0.0000
 10 H      0.8037     1.0000     0.1963     0.9835     0.9835    -0.0000
 11 H      0.8701     1.0000     0.1299     1.0014     1.0014     0.0000
 12 H      0.2629     1.0000     0.7371     0.1442     0.1442     0.0000
 13 H      0.8226     1.0000     0.1774     0.9599     0.9599    -0.0000
 14 H      0.8837     1.0000     0.1163     1.0084     1.0084    -0.0000
 15 O      8.7532     8.0000    -0.7532     1.6342     1.6342    -0.0000
 16 F      9.0657     9.0000    -0.0657     0.9876     0.9876     0.0000
 17 C      6.8958     6.0000    -0.8958     2.8697     2.8697     0.0000
 18 H      0.5785     1.0000     0.4215     0.9085     0.9085    -0.0000
 19 H      0.4936     1.0000     0.5064     0.7104     0.7104    -0.0000
 20 C      6.9992     6.0000    -0.9992     2.8249     2.8249     0.0000
 21 C      6.3268     6.0000    -0.3268     2.6113     2.6113     0.0000
 22 H      0.6775     1.0000     0.3225     1.0335     1.0335     0.0000
 23 H      0.6229     1.0000     0.3771     0.9933     0.9933     0.0000
 24 H      0.5828     1.0000     0.4172     0.9350     0.9350     0.0000
 25 H      0.5414     1.0000     0.4586     0.9010     0.9010     0.0000
 26 C      6.6100     6.0000    -0.6100     2.7232     2.7232     0.0000
 27 H      0.5695     1.0000     0.4305     0.9507     0.9507     0.0000
 28 H      0.5073     1.0000     0.4927     0.8728     0.8728    -0.0000
 29 C      6.8447     6.0000    -0.8447     2.6784     2.6784    -0.0000
 30 H      0.6358     1.0000     0.3642     0.9559     0.9559    -0.0000
 31 H      0.6044     1.0000     0.3956     0.8855     0.8855     0.0000
 32 C      6.9478     6.0000    -0.9478     3.0653     3.0653    -0.0000
 33 H      0.5867     1.0000     0.4133     0.9396     0.9396    -0.0000
 34 H      0.6149     1.0000     0.3851     0.9465     0.9465    -0.0000
 35 H      0.5347     1.0000     0.4653     0.8892     0.8892    -0.0000
 36 H      0.5625     1.0000     0.4375     0.9148     0.9148     0.0000
 37 H      0.5927     1.0000     0.4073     0.9504     0.9504    -0.0000
 38 H      0.5814     1.0000     0.4186     0.9418     0.9418    -0.0000
 39 O      8.5873     8.0000    -0.5873     1.6314     1.6314    -0.0000

  Mayer bond orders larger than 0.100000
B(  0-C ,  1-C ) :   0.2283 B(  0-C ,  7-C ) :   0.1289 B(  0-C , 17-C ) :   0.4594 
B(  0-C , 18-H ) :   0.9525 B(  0-C , 19-H ) :   0.8110 B(  1-C ,  7-C ) :   1.2562 
B(  1-C , 12-H ) :   0.2040 B(  1-C , 17-C ) :  -0.1508 B(  1-C , 19-H ) :  -0.1116 
B(  1-C , 31-H ) :  -0.1144 B(  1-C , 39-O ) :   0.2971 B(  2-C ,  3-C ) :   0.7488 
B(  2-C , 20-C ) :   0.1989 B(  2-C , 21-C ) :   0.3012 B(  2-C , 24-H ) :   0.9256 
B(  2-C , 25-H ) :   0.8345 B(  3-C ,  4-H ) :   0.7865 B(  3-C ,  5-H ) :   0.8070 
B(  3-C ,  6-S ) :   0.9762 B(  6-S , 15-O ) :   1.4639 B(  6-S , 16-F ) :   0.9026 
B(  6-S , 39-O ) :   1.6448 B(  7-C ,  8-N ) :   0.8454 B(  7-C ,  9-N ) :   0.9365 
B(  7-C , 12-H ) :   0.3005 B(  7-C , 26-C ) :   0.1125 B(  8-N , 13-H ) :   0.9400 
B(  8-N , 14-H ) :   1.0978 B(  9-N , 10-H ) :   0.9797 B(  9-N , 11-H ) :   1.0699 
B(  9-N , 17-C ) :   0.1389 B( 12-H , 39-O ) :  -0.5426 B( 15-O , 39-O ) :   0.1284 
B( 17-C , 26-C ) :   0.6428 B( 17-C , 27-H ) :   0.9183 B( 17-C , 28-H ) :   0.8228 
B( 20-C , 21-C ) :   0.3226 B( 20-C , 32-C ) :   0.6604 B( 20-C , 35-H ) :   0.9172 
B( 20-C , 36-H ) :   0.8618 B( 21-C , 22-H ) :   0.9424 B( 21-C , 23-H ) :   1.0292 
B( 21-C , 29-C ) :   0.1326 B( 21-C , 39-O ) :   0.1503 B( 22-H , 23-H ) :   0.2048 
B( 23-H , 39-O ) :  -0.1698 B( 26-C , 29-C ) :   0.1627 B( 26-C , 30-H ) :   0.9788 
B( 26-C , 31-H ) :   1.0029 B( 26-C , 34-H ) :  -0.1425 B( 29-C , 32-C ) :   0.6385 
B( 29-C , 33-H ) :   0.9017 B( 29-C , 34-H ) :   1.0294 B( 32-C , 37-H ) :   0.9445 
B( 32-C , 38-H ) :   0.9501 

-------
TIMINGS
-------

Total SCF time: 0 days 0 hours 14 min 23 sec 

Total time                  ....     863.199 sec
Sum of individual times     ....     861.119 sec  ( 99.8%)

Fock matrix formation       ....     844.234 sec  ( 97.8%)
  Split-RI-J                ....      38.431 sec  (  4.6% of F)
  Chain of spheres X        ....     728.694 sec  ( 86.3% of F)
  XC integration            ....      76.320 sec  (  9.0% of F)
    Basis function eval.    ....      13.107 sec  ( 17.2% of XC)
    Density eval.           ....      34.810 sec  ( 45.6% of XC)
    XC-Functional eval.     ....       1.231 sec  (  1.6% of XC)
    XC-Potential eval.      ....      24.301 sec  ( 31.8% of XC)
Diagonalization             ....       2.420 sec  (  0.3%)
Density matrix formation    ....       0.172 sec  (  0.0%)
Population analysis         ....       0.248 sec  (  0.0%)
Initial guess               ....       3.577 sec  (  0.4%)
Orbital Transformation      ....       0.000 sec  (  0.0%)
Orbital Orthonormalization  ....       0.000 sec  (  0.0%)
DIIS solution               ....       1.258 sec  (  0.1%)
SOSCF solution              ....       1.909 sec  (  0.2%)
Grid generation             ....       7.301 sec  (  0.8%)

Maximum memory used throughout the entire SCF-calculation: 198.8 MB

-------------------------   --------------------
FINAL SINGLE POINT ENERGY     -1189.143303634266
-------------------------   --------------------


                            ***************************************
                            *     ORCA property calculations      *
                            ***************************************

                                    ---------------------
                                    Active property flags
                                    ---------------------
   (+) Dipole Moment


------------------------------------------------------------------------------
                       ORCA ELECTRIC PROPERTIES CALCULATION
------------------------------------------------------------------------------

Dipole Moment Calculation                       ... on
Quadrupole Moment Calculation                   ... off
Polarizability Calculation                      ... off
GBWName                                         ... 28Oct_TZVPD_LC_BLYP_D4_wb97.gbw
Electron density file                           ... 28Oct_TZVPD_LC_BLYP_D4_wb97.scfp
The origin for moment calculation is the CENTER OF MASS  = ( 8.528003, -1.061209 -8.881949)

-------------
DIPOLE MOMENT
-------------
                                X             Y             Z
Electronic contribution:    -20.59719       3.45947     -21.96111
Nuclear contribution   :     19.99734      -4.67125      20.55522
                        -----------------------------------------
Total Dipole Moment    :     -0.59985      -1.21178      -1.40589
                        -----------------------------------------
Magnitude (a.u.)       :      1.95058
Magnitude (Debye)      :      4.95798



--------------------
Rotational spectrum 
--------------------
 
Rotational constants in cm-1:     0.014213     0.012058     0.007367 
Rotational constants in MHz :   426.102180   361.491761   220.844824 

 Dipole components along the rotational axes: 
x,y,z [a.u.] :    -1.810774     0.684268    -0.240073 
x,y,z [Debye]:    -4.602620     1.739271    -0.610218 

 

Timings for individual modules:

Sum of individual times         ...      865.281 sec (=  14.421 min)
GTO integral calculation        ...        1.665 sec (=   0.028 min)   0.2 %
SCF iterations                  ...      863.616 sec (=  14.394 min)  99.8 %
                             ****ORCA TERMINATED NORMALLY****
TOTAL RUN TIME: 0 days 0 hours 14 minutes 26 seconds 96 msec
