
                                        *****************
                                        * O   R   C   A *
                                        *****************

                                            #,                                       
                                            ###                                      
                                            ####                                     
                                            #####                                    
                                            ######                                   
                                           ########,                                 
                                     ,,################,,,,,                         
                               ,,#################################,,                 
                          ,,##########################################,,             
                       ,#########################################, ''#####,          
                    ,#############################################,,   '####,        
                  ,##################################################,,,,####,       
                ,###########''''           ''''###############################       
              ,#####''   ,,,,##########,,,,          '''####'''          '####       
            ,##' ,,,,###########################,,,                        '##       
           ' ,,###''''                  '''############,,,                           
         ,,##''                                '''############,,,,        ,,,,,,###''
      ,#''                                            '''#######################'''  
     '                                                          ''''####''''         
             ,#######,   #######,   ,#######,      ##                                
            ,#'     '#,  ##    ##  ,#'     '#,    #''#        ######   ,####,        
            ##       ##  ##   ,#'  ##            #'  '#       #        #'  '#        
            ##       ##  #######   ##           ,######,      #####,   #    #        
            '#,     ,#'  ##    ##  '#,     ,#' ,#      #,         ##   #,  ,#        
             '#######'   ##     ##  '#######'  #'      '#     #####' # '####'        



                  #######################################################
                  #                        -***-                        #
                  #          Department of theory and spectroscopy      #
                  #    Directorship and core code : Frank Neese         #
                  #        Max Planck Institute fuer Kohlenforschung    #
                  #                Kaiser Wilhelm Platz 1               #
                  #                 D-45470 Muelheim/Ruhr               #
                  #                      Germany                        #
                  #                                                     #
                  #                  All rights reserved                #
                  #                        -***-                        #
                  #######################################################


                         Program Version 5.0.0 -  RELEASE  -
                                (SVN: $Rev: 19529$)
                ($Date: 2021-06-28 11:36:33 +0200 (Mo, 28 Jun 2021) $)


 With contributions from (in alphabetic order):
   Daniel Aravena         : Magnetic Suceptibility
   Michael Atanasov       : Ab Initio Ligand Field Theory (pilot matlab implementation)
   Alexander A. Auer      : GIAO ZORA, VPT2 properties, NMR spectrum
   Ute Becker             : Parallelization
   Giovanni Bistoni       : ED, misc. LED, open-shell LED, HFLD
   Martin Brehm           : Molecular dynamics
   Dmytro Bykov           : SCF Hessian
   Vijay G. Chilkuri      : MRCI spin determinant printing, contributions to CSF-ICE
   Dipayan Datta          : RHF DLPNO-CCSD density
   Achintya Kumar Dutta   : EOM-CC, STEOM-CC
   Dmitry Ganyushin       : Spin-Orbit,Spin-Spin,Magnetic field MRCI
   Miquel Garcia          : C-PCM Hessian, Gaussian charge scheme
   Yang Guo               : DLPNO-NEVPT2, F12-NEVPT2, CIM, IAO-localization
   Andreas Hansen         : Spin unrestricted coupled pair/coupled cluster methods
   Benjamin Helmich-Paris : MC-RPA, TRAH-SCF, COSX integrals
   Lee Huntington         : MR-EOM, pCC
   Robert Izsak           : Overlap fitted RIJCOSX, COSX-SCS-MP3, EOM
   Marcus Kettner         : VPT2
   Christian Kollmar      : KDIIS, OOCD, Brueckner-CCSD(T), CCSD density, CASPT2, CASPT2-K
   Simone Kossmann        : Meta GGA functionals, TD-DFT gradient, OOMP2, MP2 Hessian
   Martin Krupicka        : Initial AUTO-CI
   Lucas Lang             : DCDCAS
   Marvin Lechner         : AUTO-CI (C++ implementation), FIC-MRCC
   Dagmar Lenk            : GEPOL surface, SMD
   Dimitrios Liakos       : Extrapolation schemes; Compound Job, initial MDCI parallelization
   Dimitrios Manganas     : Further ROCIS development; embedding schemes
   Dimitrios Pantazis     : SARC Basis sets
   Anastasios Papadopoulos: AUTO-CI, single reference methods and gradients
   Taras Petrenko         : DFT Hessian,TD-DFT gradient, ASA, ECA, R-Raman, ABS, FL, XAS/XES, NRVS
   Peter Pinski           : DLPNO-MP2, DLPNO-MP2 Gradient
   Christoph Reimann      : Effective Core Potentials
   Marius Retegan         : Local ZFS, SOC
   Christoph Riplinger    : Optimizer, TS searches, QM/MM, DLPNO-CCSD(T), (RO)-DLPNO pert. Triples
   Tobias Risthaus        : Range-separated hybrids, TD-DFT gradient, RPA, STAB
   Michael Roemelt        : Original ROCIS implementation
   Masaaki Saitow         : Open-shell DLPNO-CCSD energy and density
   Barbara Sandhoefer     : DKH picture change effects
   Avijit Sen             : IP-ROCIS
   Kantharuban Sivalingam : CASSCF convergence, NEVPT2, FIC-MRCI
   Bernardo de Souza      : ESD, SOC TD-DFT
   Georgi Stoychev        : AutoAux, RI-MP2 NMR
   Willem Van den Heuvel  : Paramagnetic NMR
   Boris Wezisla          : Elementary symmetry handling
   Frank Wennmohs         : Technical directorship


 We gratefully acknowledge several colleagues who have allowed us to
 interface, adapt or use parts of their codes:
   Stefan Grimme, W. Hujo, H. Kruse, P. Pracht,  : VdW corrections, initial TS optimization,
                  C. Bannwarth, S. Ehlert          DFT functionals, gCP, sTDA/sTD-DF
   Ed Valeev, F. Pavosevic, A. Kumar             : LibInt (2-el integral package), F12 methods
   Garnet Chan, S. Sharma, J. Yang, R. Olivares  : DMRG
   Ulf Ekstrom                                   : XCFun DFT Library
   Mihaly Kallay                                 : mrcc  (arbitrary order and MRCC methods)
   Jiri Pittner, Ondrej Demel                    : Mk-CCSD
   Frank Weinhold                                : gennbo (NPA and NBO analysis)
   Christopher J. Cramer and Donald G. Truhlar   : smd solvation model
   Lars Goerigk                                  : TD-DFT with DH, B97 family of functionals
   V. Asgeirsson, H. Jonsson                     : NEB implementation
   FAccTs GmbH                                   : IRC, NEB, NEB-TS, DLPNO-Multilevel, CI-OPT
                                                   MM, QMMM, 2- and 3-layer-ONIOM, Crystal-QMMM,
                                                   LR-CPCM, SF, NACMEs, symmetry and pop. for TD-DFT,
                                                   nearIR, NL-DFT gradient (VV10), updates on ESD,
                                                   ML-optimized integration grids
   S Lehtola, MJT Oliveira, MAL Marques          : LibXC Library
   Liviu Ungur et al                             : ANISO software


 Your calculation uses the libint2 library for the computation of 2-el integrals
 For citations please refer to: http://libint.valeyev.net

 Your ORCA version has been built with support for libXC version: 5.1.0
 For citations please refer to: https://tddft.org/programs/libxc/

 This ORCA versions uses:
   CBLAS   interface :  Fast vector & matrix operations
   LAPACKE interface :  Fast linear algebra routines
   SCALAPACK package :  Parallel linear algebra routines
   Shared memory     :  Shared parallel matrices
   BLAS/LAPACK       :  OpenBLAS 0.3.15  USE64BITINT DYNAMIC_ARCH NO_AFFINITY Haswell SINGLE_THREADED
        Core in use  :  Haswell
   Copyright (c) 2011-2014, The OpenBLAS Project


Your calculation utilizes the atom-pairwise dispersion correction
with the Becke-Johnson damping scheme (D3BJ)
Cite in your paper:
S.Grimme, S.Ehrlich, L.Goerigk, J Comput Chem, (2011), 32, 1456–1465 
S.Grimme, J.Antony, S.Ehrlich and H.Krieg, J.Chem.Phys., 132, (2010), 154104 
   

================================================================================

----- Orbital basis set information -----
Your calculation utilizes the basis: def2-SVPD
   F. Weigend and R. Ahlrichs, Phys. Chem. Chem. Phys. 7, 3297 (2005).
   D. Rappoport and F. Furche, J. Chem. Phys. 133 134105 (2010).

----- AuxJ basis set information -----
Your calculation utilizes the auxiliary basis: def2/J
   F. Weigend, Phys. Chem. Chem. Phys. 8, 1057 (2006).

================================================================================
                                        WARNINGS
                       Please study these warnings very carefully!
================================================================================



WARNING: Found flag for RIJCOSX approximation but no HF exchange needed!
  ===> : RIJCOSX  will be disabled and Split-RI-J is turned on

INFO   : the flag for use of the SHARK integral package has been found!

================================================================================
                                       INPUT FILE
================================================================================
NAME = 18Feb_SVPD_BLYP_C2_wt_wb97_typm1_pos.com
|  1> !BLYP D3BJ RIJCOSX def2-SVPD def2/J TightSCF 
|  2> *xyz 0 1
|  3> C          4.99986       -1.59613       -5.92488
|  4> N          5.28156       -1.97413       -4.53576
|  5> C          4.79250       -1.36132       -3.45730
|  6> C          3.93990       -0.37492       -3.55736
|  7> N          5.25986       -1.75422       -2.23913
|  8> H          5.92282       -2.52145       -2.18672
|  9> H          4.65468       -1.64040       -1.44202
| 10> H          5.70914       -2.87560       -4.38702
| 11> H          3.33010       -0.31764       -4.36125
| 12> H          3.69849        0.11447       -2.70833
| 13> H          5.52133       -2.25562       -6.58673
| 14> H          5.32493       -0.59081       -6.09388
| 15> H          3.94785       -1.66624       -6.10727
| 16> *
| 17> 
| 18> %MaxCore 64000
| 19> 
| 20> %pal nprocs 4
| 21> end  
| 22> 
| 23> %scf
| 24>   MaxIter 150
| 25> end
| 26> 
| 27> 
| 28>                          ****END OF INPUT****
================================================================================

                       ****************************
                       * Single Point Calculation *
                       ****************************

---------------------------------
CARTESIAN COORDINATES (ANGSTROEM)
---------------------------------
  C      4.999860   -1.596130   -5.924880
  N      5.281560   -1.974130   -4.535760
  C      4.792500   -1.361320   -3.457300
  C      3.939900   -0.374920   -3.557360
  N      5.259860   -1.754220   -2.239130
  H      5.922820   -2.521450   -2.186720
  H      4.654680   -1.640400   -1.442020
  H      5.709140   -2.875600   -4.387020
  H      3.330100   -0.317640   -4.361250
  H      3.698490    0.114470   -2.708330
  H      5.521330   -2.255620   -6.586730
  H      5.324930   -0.590810   -6.093880
  H      3.947850   -1.666240   -6.107270

----------------------------
CARTESIAN COORDINATES (A.U.)
----------------------------
  NO LB      ZA    FRAG     MASS         X           Y           Z
   0 C     6.0000    0    12.011    9.448366   -3.016249  -11.196401
   1 N     7.0000    0    14.007    9.980702   -3.730565   -8.571344
   2 C     6.0000    0    12.011    9.056512   -2.572522   -6.533350
   3 C     6.0000    0    12.011    7.445332   -0.708496   -6.722436
   4 N     7.0000    0    14.007    9.939695   -3.314995   -4.231342
   5 H     1.0000    0     1.008   11.192508   -4.764850   -4.132302
   6 H     1.0000    0     1.008    8.796070   -3.099907   -2.725023
   7 H     1.0000    0     1.008   10.788711   -5.434096   -8.290266
   8 H     1.0000    0     1.008    6.292977   -0.600253   -8.241568
   9 H     1.0000    0     1.008    6.989133    0.216317   -5.118002
  10 H     1.0000    0     1.008   10.433802   -4.262504  -12.447116
  11 H     1.0000    0     1.008   10.062659   -1.116469  -11.515764
  12 H     1.0000    0     1.008    7.460355   -3.148737  -11.541068

--------------------------------
INTERNAL COORDINATES (ANGSTROEM)
--------------------------------
 C      0   0   0     0.000000000000     0.00000000     0.00000000
 N      1   0   0     1.466933285600     0.00000000     0.00000000
 C      2   1   0     1.333338573394   125.24465126     0.00000000
 C      3   2   1     1.307640517726   121.59821647     3.37662360
 N      3   2   1     1.362620243685   117.69524840   186.46465187
 H      5   3   2     1.015334744112   119.20799220   357.06852641
 H      5   3   2     1.007264700513   117.95745335   207.37675318
 H      2   1   3     1.008759835095   116.82696572   166.06938430
 H      4   3   2     1.010631570109   119.80406451    27.35455603
 H      4   3   2     1.009273650255   117.21677800   187.25423597
 H      1   2   3     1.070001609111   109.47109523   179.99981247
 H      1   2   3     1.069999909953   109.47098290    60.00018380
 H      1   2   3     1.070003067426   109.47135726   300.00014361

---------------------------
INTERNAL COORDINATES (A.U.)
---------------------------
 C      0   0   0     0.000000000000     0.00000000     0.00000000
 N      1   0   0     2.772102166517     0.00000000     0.00000000
 C      2   1   0     2.519644747508   125.24465126     0.00000000
 C      3   2   1     2.471082460122   121.59821647     3.37662360
 N      3   2   1     2.574979085102   117.69524840   186.46465187
 H      5   3   2     1.918704600626   119.20799220   357.06852641
 H      5   3   2     1.903454428336   117.95745335   207.37675318
 H      2   1   3     1.906279823228   116.82696572   166.06938430
 H      4   3   2     1.909816889800   119.80406451    27.35455603
 H      4   3   2     1.907250793166   117.21677800   187.25423597
 H      1   2   3     2.022010004075   109.47109523   179.99981247
 H      1   2   3     2.022006793132   109.47098290    60.00018380
 H      1   2   3     2.022012759890   109.47135726   300.00014361

---------------------
BASIS SET INFORMATION
---------------------
There are 3 groups of distinct atoms

 Group   1 Type C   : 8s4p2d contracted to 4s2p2d pattern {5111/31/11}
 Group   2 Type N   : 8s4p2d contracted to 4s2p2d pattern {5111/31/11}
 Group   3 Type H   : 4s2p contracted to 2s2p pattern {31/11}

Atom   0C    basis set group =>   1
Atom   1N    basis set group =>   2
Atom   2C    basis set group =>   1
Atom   3C    basis set group =>   1
Atom   4N    basis set group =>   2
Atom   5H    basis set group =>   3
Atom   6H    basis set group =>   3
Atom   7H    basis set group =>   3
Atom   8H    basis set group =>   3
Atom   9H    basis set group =>   3
Atom  10H    basis set group =>   3
Atom  11H    basis set group =>   3
Atom  12H    basis set group =>   3
---------------------------------
AUXILIARY/J BASIS SET INFORMATION
---------------------------------
There are 3 groups of distinct atoms

 Group   1 Type C   : 12s5p4d2f1g contracted to 6s4p3d1f1g pattern {711111/2111/211/2/1}
 Group   2 Type N   : 12s5p4d2f1g contracted to 6s4p3d1f1g pattern {711111/2111/211/2/1}
 Group   3 Type H   : 5s2p1d contracted to 3s1p1d pattern {311/2/1}

Atom   0C    basis set group =>   1
Atom   1N    basis set group =>   2
Atom   2C    basis set group =>   1
Atom   3C    basis set group =>   1
Atom   4N    basis set group =>   2
Atom   5H    basis set group =>   3
Atom   6H    basis set group =>   3
Atom   7H    basis set group =>   3
Atom   8H    basis set group =>   3
Atom   9H    basis set group =>   3
Atom  10H    basis set group =>   3
Atom  11H    basis set group =>   3
Atom  12H    basis set group =>   3


           ************************************************************
           *        Program running with 4 parallel MPI-processes     *
           *              working on a common directory               *
           ************************************************************
------------------------------------------------------------------------------
                           ORCA GTO INTEGRAL CALCULATION
                           -- RI-GTO INTEGRALS CHOSEN --
------------------------------------------------------------------------------
------------------------------------------------------------------------------
                   ___                                                        
                  /   \      - P O W E R E D   B Y -                         
                 /     \                                                     
                 |  |  |   _    _      __       _____    __    __             
                 |  |  |  | |  | |    /  \     |  _  \  |  |  /  |          
                  \  \/   | |  | |   /    \    | | | |  |  | /  /          
                 / \  \   | |__| |  /  /\  \   | |_| |  |  |/  /          
                |  |  |   |  __  | /  /__\  \  |    /   |      \           
                |  |  |   | |  | | |   __   |  |    \   |  |\   \          
                \     /   | |  | | |  |  |  |  | |\  \  |  | \   \       
                 \___/    |_|  |_| |__|  |__|  |_| \__\ |__|  \__/        
                                                                              
                      - O R C A' S   B I G   F R I E N D -                    
                                      &                                       
                       - I N T E G R A L  F E E D E R -                       
                                                                              
 v1 FN, 2020, v2 2021                                                         
------------------------------------------------------------------------------


Reading SHARK input file 18Feb_SVPD_BLYP_C2_wt_wb97_typm1_pos.SHARKINP.tmp ... ok
----------------------
SHARK INTEGRAL PACKAGE
----------------------

Number of atoms                             ...     13
Number of basis functions                   ...    164
Number of shells                            ...     72
Maximum angular momentum                    ...      2
Integral batch strategy                     ... SHARK/LIBINT Hybrid
RI-J (if used) integral strategy            ... SPLIT-RIJ (Revised 2003 algorithm where possible)
Printlevel                                  ...      1
Contraction scheme used                     ... SEGMENTED contraction
Coulomb Range Separation                    ... NOT USED
Exchange Range Separation                   ... NOT USED
Finite Nucleus Model                        ... NOT USED
Auxiliary Coulomb fitting basis             ... AVAILABLE
   # of basis functions in Aux-J            ...    333
   # of shells in Aux-J                     ...    115
   Maximum angular momentum in Aux-J        ...      4
Auxiliary J/K fitting basis                 ... NOT available
Auxiliary Correlation fitting basis         ... NOT available
Auxiliary 'external' fitting basis          ... NOT available
Integral threshold                          ...     2.500000e-11
Primitive cut-off                           ...     2.500000e-12
Primitive pair pre-selection threshold      ...     2.500000e-12

Calculating pre-screening integrals         ... done (  0.0 sec) Dimension = 72
Organizing shell pair data                  ... done (  0.0 sec)
Shell pair information
Total number of shell pairs                 ...      2628
Shell pairs after pre-screening             ...      2606
Total number of primitive shell pairs       ...      7110
Primitive shell pairs kept                  ...      6006
          la=0 lb=0:    658 shell pairs
          la=1 lb=0:    928 shell pairs
          la=1 lb=1:    347 shell pairs
          la=2 lb=0:    358 shell pairs
          la=2 lb=1:    260 shell pairs
          la=2 lb=2:     55 shell pairs

Calculating one electron integrals          ... done (  0.0 sec)
Calculating RI/J V-Matrix + Cholesky decomp.... done (  0.0 sec)
Calculating Nuclear repulsion               ... done (  0.0 sec) ENN=    184.538260948088 Eh

SHARK setup successfully completed in   0.2 seconds

Maximum memory used throughout the entire GTOINT-calculation: 8.9 MB


           ************************************************************
           *        Program running with 4 parallel MPI-processes     *
           *              working on a common directory               *
           ************************************************************
-------------------------------------------------------------------------------
                                 ORCA SCF
-------------------------------------------------------------------------------

------------
SCF SETTINGS
------------
Hamiltonian:
 Density Functional     Method          .... DFT(GTOs)
 Exchange Functional    Exchange        .... B88
   X-Alpha parameter    XAlpha          ....  0.666667
   Becke's b parameter  XBeta           ....  0.004200
 Correlation Functional Correlation     .... LYP
 Gradients option       PostSCFGGA      .... off
   Density functional embedding theory  .... OFF
   NL short-range parameter             ....  4.000000
 RI-approximation to the Coulomb term is turned on
   Number of AuxJ basis functions       .... 333


General Settings:
 Integral files         IntName         .... 18Feb_SVPD_BLYP_C2_wt_wb97_typm1_pos
 Hartree-Fock type      HFTyp           .... RHF
 Total Charge           Charge          ....    0
 Multiplicity           Mult            ....    1
 Number of Electrons    NEL             ....   40
 Basis Dimension        Dim             ....  164
 Nuclear Repulsion      ENuc            ....    184.5382609481 Eh

Convergence Acceleration:
 DIIS                   CNVDIIS         .... on
   Start iteration      DIISMaxIt       ....    12
   Startup error        DIISStart       ....  0.200000
   # of expansion vecs  DIISMaxEq       ....     5
   Bias factor          DIISBfac        ....   1.050
   Max. coefficient     DIISMaxC        ....  10.000
 Trust-Rad. Augm. Hess. CNVTRAH         .... auto
   Auto Start mean grad. ratio tolernc. ....  1.125000
   Auto Start start iteration           ....    20
   Auto Start num. interpolation iter.  ....    10
   Max. Number of Micro iterations      ....    16
   Max. Number of Macro iterations      .... Maxiter - #DIIS iter
   Number of Davidson start vectors     ....     2
   Converg. threshold I  (grad. norm)   ....   1.000e-05
   Converg. threshold II (energy diff.) ....   1.000e-08
   Grad. Scal. Fac. for Micro threshold ....   0.100
   Minimum threshold for Micro iter.    ....   0.010
   NR start threshold (gradient norm)   ....   0.001
   Initial trust radius                 ....   0.400
   Minimum AH scaling param. (alpha)    ....   1.000
   Maximum AH scaling param. (alpha)    .... 1000.000
   Orbital update algorithm             .... Taylor
   White noise on init. David. guess    .... on
   Maximum white noise                  ....   0.010
   Quad. conv. algorithm                .... NR
 SOSCF                  CNVSOSCF        .... on
   Start iteration      SOSCFMaxIt      ....   150
   Startup grad/error   SOSCFStart      ....  0.003300
 Level Shifting         CNVShift        .... on
   Level shift para.    LevelShift      ....    0.2500
   Turn off err/grad.   ShiftErr        ....    0.0010
 Zerner damping         CNVZerner       .... off
 Static damping         CNVDamp         .... on
   Fraction old density DampFac         ....    0.7000
   Max. Damping (<1)    DampMax         ....    0.9800
   Min. Damping (>=0)   DampMin         ....    0.0000
   Turn off err/grad.   DampErr         ....    0.1000
 Fernandez-Rico         CNVRico         .... off

SCF Procedure:
 Maximum # iterations   MaxIter         ....   150
 SCF integral mode      SCFMode         .... Direct
   Integral package                     .... SHARK and LIBINT hybrid scheme
 Reset frequency        DirectResetFreq ....    20
 Integral Threshold     Thresh          ....  2.500e-11 Eh
 Primitive CutOff       TCut            ....  2.500e-12 Eh

Convergence Tolerance:
 Convergence Check Mode ConvCheckMode   .... Total+1el-Energy
 Convergence forced     ConvForced      .... 0
 Energy Change          TolE            ....  1.000e-08 Eh
 1-El. energy change                    ....  1.000e-05 Eh
 Orbital Gradient       TolG            ....  1.000e-05
 Orbital Rotation angle TolX            ....  1.000e-05
 DIIS Error             TolErr          ....  5.000e-07


Diagonalization of the overlap matrix:
Smallest eigenvalue                        ... 8.207e-05
Time for diagonalization                   ...    0.008 sec
Threshold for overlap eigenvalues          ... 1.000e-08
Number of eigenvalues below threshold      ... 0
Time for construction of square roots      ...    0.006 sec
Total time needed                          ...    0.014 sec

Time for model grid setup =    0.077 sec

------------------------------
INITIAL GUESS: MODEL POTENTIAL
------------------------------
Loading Hartree-Fock densities                     ... done
Calculating cut-offs                               ... done
Initializing the effective Hamiltonian             ... done
Setting up the integral package (SHARK)            ... done
Starting the Coulomb interaction                   ... done (   0.0 sec)
Reading the grid                                   ... done
Mapping shells                                     ... done
Starting the XC term evaluation                    ... done (   0.1 sec)
  promolecular density results
     # of electrons  =     39.995202590
     EX              =    -31.035312905
     EC              =     -1.318467351
     EX+EC           =    -32.353780256
Transforming the Hamiltonian                       ... done (   0.0 sec)
Diagonalizing the Hamiltonian                      ... done (   0.0 sec)
Back transforming the eigenvectors                 ... done (   0.0 sec)
Now organizing SCF variables                       ... done
                      ------------------
                      INITIAL GUESS DONE (   0.2 sec)
                      ------------------
-------------------
DFT GRID GENERATION
-------------------

General Integration Accuracy     IntAcc      ... 4.388
Radial Grid Type                 RadialGrid  ... OptM3 with GC (2021)
Angular Grid (max. ang.)         AngularGrid ... 4 (Lebedev-302)
Angular grid pruning method      GridPruning ... 4 (adaptive)
Weight generation scheme         WeightScheme... Becke
Basis function cutoff            BFCut       ... 1.0000e-11
Integration weight cutoff        WCut        ... 1.0000e-14
Angular grids for H and He will be reduced by one unit
Partially contracted basis set               ... off
Rotationally invariant grid construction     ... off

Total number of grid points                  ...    57689
Total number of batches                      ...      908
Average number of points per batch           ...       63
Average number of grid points per atom       ...     4438
Time for grid setup =    0.366 sec

--------------
SCF ITERATIONS
--------------
ITER       Energy         Delta-E        Max-DP      RMS-DP      [F,P]     Damp
               ***  Starting incremental Fock matrix formation  ***
  0   -228.0785122157   0.000000000000 0.17061931  0.00439328  0.2368035 0.7000
  1   -228.2079221507  -0.129409934994 0.15494584  0.00361096  0.1079184 0.7000
                               ***Turning on DIIS***
  2   -228.2501609508  -0.042238800057 0.27224101  0.00619262  0.0240211 0.0000
  3   -228.3092138942  -0.059052943443 0.10799219  0.00252770  0.0770103 0.0000
  4   -228.3316706672  -0.022456772995 0.04332293  0.00116050  0.0183154 0.0000
  5   -228.3333353983  -0.001664731058 0.02379919  0.00048065  0.0059406 0.0000
                      *** Initiating the SOSCF procedure ***
                           *** Shutting down DIIS ***
                      *** Re-Reading the Fockian *** 
                      *** Removing any level shift *** 
ITER      Energy       Delta-E        Grad      Rot      Max-DP    RMS-DP
  6   -228.33350740  -0.0001719982  0.000912  0.000912  0.008711  0.000196
               *** Restarting incremental Fock matrix formation ***
  7   -228.33353227  -0.0000248783  0.000302  0.001610  0.005170  0.000142
  8   -228.33353500  -0.0000027212  0.000121  0.000158  0.001066  0.000032
  9   -228.33353538  -0.0000003865  0.000082  0.000168  0.000991  0.000028
 10   -228.33353579  -0.0000004050  0.000030  0.000113  0.000234  0.000007
 11   -228.33353576   0.0000000227  0.000055  0.000146  0.000225  0.000006
 12   -228.33353584  -0.0000000708  0.000014  0.000053  0.000105  0.000003
 13   -228.33353583   0.0000000039  0.000014  0.000020  0.000037  0.000001
 14   -228.33353584  -0.0000000067  0.000003  0.000007  0.000073  0.000002
 15   -228.33353584   0.0000000001  0.000003  0.000003  0.000033  0.000001
                 **** Energy Check signals convergence ****
              ***Rediagonalizing the Fockian in SOSCF/NRSCF***

               *****************************************************
               *                     SUCCESS                       *
               *           SCF CONVERGED AFTER  16 CYCLES          *
               *****************************************************


----------------
TOTAL SCF ENERGY
----------------

Total Energy       :         -228.33353584 Eh           -6213.27139 eV

Components:
Nuclear Repulsion  :          184.53826095 Eh            5021.54137 eV
Electronic Energy  :         -412.87179679 Eh          -11234.81276 eV
One Electron Energy:         -672.68384793 Eh          -18304.65809 eV
Two Electron Energy:          259.81205114 Eh            7069.84534 eV

Virial components:
Potential Energy   :         -454.83150026 Eh          -12376.59434 eV
Kinetic Energy     :          226.49796443 Eh            6163.32295 eV
Virial Ratio       :            2.00810414


DFT components:
N(Alpha)           :       20.000024687104 electrons
N(Beta)            :       20.000024687104 electrons
N(Total)           :       40.000049374207 electrons
E(X)               :      -31.762190757134 Eh       
E(C)               :       -1.330332803209 Eh       
E(XC)              :      -33.092523560343 Eh       
DFET-embed. en.    :        0.000000000000 Eh       

---------------
SCF CONVERGENCE
---------------

  Last Energy change         ...    6.3181e-11  Tolerance :   1.0000e-08
  Last MAX-Density change    ...    3.0186e-05  Tolerance :   1.0000e-07
  Last RMS-Density change    ...    7.1895e-07  Tolerance :   5.0000e-09
  Last Orbital Gradient      ...    6.3245e-07  Tolerance :   1.0000e-05
  Last Orbital Rotation      ...    3.2369e-06  Tolerance :   1.0000e-05

             **** THE GBW FILE WAS UPDATED (18Feb_SVPD_BLYP_C2_wt_wb97_typm1_pos.gbw) ****
             **** DENSITY 18Feb_SVPD_BLYP_C2_wt_wb97_typm1_pos.scfp WAS UPDATED ****
             **** ENERGY FILE WAS UPDATED (18Feb_SVPD_BLYP_C2_wt_wb97_typm1_pos.en.tmp) ****
             **** THE GBW FILE WAS UPDATED (18Feb_SVPD_BLYP_C2_wt_wb97_typm1_pos.gbw) ****
             **** DENSITY 18Feb_SVPD_BLYP_C2_wt_wb97_typm1_pos.scfp WAS UPDATED ****
----------------
ORBITAL ENERGIES
----------------

  NO   OCC          E(Eh)            E(eV) 
   0   2.0000     -14.027008      -381.6943 
   1   2.0000     -14.021508      -381.5446 
   2   2.0000      -9.960607      -271.0419 
   3   2.0000      -9.947918      -270.6966 
   4   2.0000      -9.839172      -267.7375 
   5   2.0000      -0.863791       -23.5050 
   6   2.0000      -0.785463       -21.3735 
   7   2.0000      -0.644580       -17.5399 
   8   2.0000      -0.619819       -16.8661 
   9   2.0000      -0.504668       -13.7327 
  10   2.0000      -0.485994       -13.2246 
  11   2.0000      -0.456560       -12.4236 
  12   2.0000      -0.404818       -11.0157 
  13   2.0000      -0.386243       -10.5102 
  14   2.0000      -0.367397        -9.9974 
  15   2.0000      -0.337287        -9.1781 
  16   2.0000      -0.334166        -9.0931 
  17   2.0000      -0.305021        -8.3000 
  18   2.0000      -0.205994        -5.6054 
  19   2.0000      -0.139477        -3.7954 
  20   0.0000      -0.006104        -0.1661 
  21   0.0000       0.017735         0.4826 
  22   0.0000       0.032600         0.8871 
  23   0.0000       0.044406         1.2084 
  24   0.0000       0.062747         1.7074 
  25   0.0000       0.073742         2.0066 
  26   0.0000       0.078397         2.1333 
  27   0.0000       0.093158         2.5350 
  28   0.0000       0.113459         3.0874 
  29   0.0000       0.121872         3.3163 
  30   0.0000       0.122194         3.3251 
  31   0.0000       0.139208         3.7881 
  32   0.0000       0.147895         4.0244 
  33   0.0000       0.156227         4.2511 
  34   0.0000       0.164281         4.4703 
  35   0.0000       0.186683         5.0799 
  36   0.0000       0.206963         5.6318 
  37   0.0000       0.218092         5.9346 
  38   0.0000       0.219818         5.9816 
  39   0.0000       0.231133         6.2894 
  40   0.0000       0.235926         6.4199 
  41   0.0000       0.248483         6.7616 
  42   0.0000       0.258788         7.0420 
  43   0.0000       0.272655         7.4193 
  44   0.0000       0.284762         7.7488 
  45   0.0000       0.290554         7.9064 
  46   0.0000       0.296923         8.0797 
  47   0.0000       0.304834         8.2949 
  48   0.0000       0.325249         8.8505 
  49   0.0000       0.334231         9.0949 
  50   0.0000       0.338954         9.2234 
  51   0.0000       0.347189         9.4475 
  52   0.0000       0.355720         9.6796 
  53   0.0000       0.367554        10.0017 
  54   0.0000       0.370712        10.0876 
  55   0.0000       0.377955        10.2847 
  56   0.0000       0.390261        10.6195 
  57   0.0000       0.396496        10.7892 
  58   0.0000       0.411288        11.1917 
  59   0.0000       0.416557        11.3351 
  60   0.0000       0.427147        11.6232 
  61   0.0000       0.430516        11.7149 
  62   0.0000       0.444868        12.1055 
  63   0.0000       0.451895        12.2967 
  64   0.0000       0.463706        12.6181 
  65   0.0000       0.471817        12.8388 
  66   0.0000       0.475474        12.9383 
  67   0.0000       0.481464        13.1013 
  68   0.0000       0.502210        13.6658 
  69   0.0000       0.512080        13.9344 
  70   0.0000       0.528401        14.3785 
  71   0.0000       0.530474        14.4349 
  72   0.0000       0.538769        14.6607 
  73   0.0000       0.551803        15.0153 
  74   0.0000       0.558536        15.1985 
  75   0.0000       0.576680        15.6923 
  76   0.0000       0.589318        16.0361 
  77   0.0000       0.621893        16.9226 
  78   0.0000       0.630904        17.1678 
  79   0.0000       0.637290        17.3415 
  80   0.0000       0.654366        17.8062 
  81   0.0000       0.664757        18.0890 
  82   0.0000       0.697698        18.9853 
  83   0.0000       0.712469        19.3873 
  84   0.0000       0.722168        19.6512 
  85   0.0000       0.741750        20.1840 
  86   0.0000       0.754121        20.5207 
  87   0.0000       0.843024        22.9398 
  88   0.0000       0.860789        23.4232 
  89   0.0000       0.889519        24.2050 
  90   0.0000       0.904093        24.6016 
  91   0.0000       0.919870        25.0309 
  92   0.0000       0.944593        25.7037 
  93   0.0000       0.949133        25.8272 
  94   0.0000       0.960501        26.1365 
  95   0.0000       0.989366        26.9220 
  96   0.0000       1.032567        28.0976 
  97   0.0000       1.049580        28.5605 
  98   0.0000       1.060727        28.8638 
  99   0.0000       1.099478        29.9183 
 100   0.0000       1.122763        30.5519 
 101   0.0000       1.136298        30.9202 
 102   0.0000       1.152645        31.3651 
 103   0.0000       1.170110        31.8403 
 104   0.0000       1.213072        33.0094 
 105   0.0000       1.259057        34.2607 
 106   0.0000       1.277167        34.7535 
 107   0.0000       1.317259        35.8444 
 108   0.0000       1.350388        36.7459 
 109   0.0000       1.467173        39.9238 
 110   0.0000       1.516012        41.2528 
 111   0.0000       1.527071        41.5537 
 112   0.0000       1.553167        42.2638 
 113   0.0000       1.567557        42.6554 
 114   0.0000       1.596874        43.4531 
 115   0.0000       1.611377        43.8478 
 116   0.0000       1.639080        44.6016 
 117   0.0000       1.665975        45.3335 
 118   0.0000       1.690886        46.0114 
 119   0.0000       1.730184        47.0807 
 120   0.0000       1.765048        48.0294 
 121   0.0000       1.777502        48.3683 
 122   0.0000       1.837464        49.9999 
 123   0.0000       1.843437        50.1625 
 124   0.0000       1.869034        50.8590 
 125   0.0000       1.887286        51.3557 
 126   0.0000       1.912260        52.0352 
 127   0.0000       1.926739        52.4292 
 128   0.0000       1.970143        53.6103 
 129   0.0000       1.982610        53.9496 
 130   0.0000       2.001843        54.4729 
 131   0.0000       2.026758        55.1509 
 132   0.0000       2.044749        55.6404 
 133   0.0000       2.074767        56.4573 
 134   0.0000       2.097589        57.0783 
 135   0.0000       2.134097        58.0717 
 136   0.0000       2.175964        59.2110 
 137   0.0000       2.201172        59.8969 
 138   0.0000       2.260441        61.5097 
 139   0.0000       2.276424        61.9446 
 140   0.0000       2.325702        63.2856 
 141   0.0000       2.332680        63.4754 
 142   0.0000       2.377112        64.6845 
 143   0.0000       2.396868        65.2221 
 144   0.0000       2.434138        66.2363 
 145   0.0000       2.518455        68.5306 
 146   0.0000       2.537960        69.0614 
 147   0.0000       2.594517        70.6004 
 148   0.0000       2.662980        72.4634 
 149   0.0000       2.685113        73.0656 
 150   0.0000       2.714273        73.8591 
 151   0.0000       2.764319        75.2209 
 152   0.0000       2.806276        76.3627 
 153   0.0000       2.899266        78.8930 
 154   0.0000       3.026386        82.3521 
 155   0.0000       3.065810        83.4249 
 156   0.0000       3.106149        84.5226 
 157   0.0000       3.135309        85.3161 
 158   0.0000       3.157600        85.9227 
 159   0.0000       3.233094        87.9770 
 160   0.0000       3.252505        88.5052 
 161   0.0000       3.295374        89.6717 
 162   0.0000       3.566477        97.0488 
 163   0.0000       3.631182        98.8095 

                    ********************************
                    * MULLIKEN POPULATION ANALYSIS *
                    ********************************

-----------------------
MULLIKEN ATOMIC CHARGES
-----------------------
   0 C :    1.455036
   1 N :   -0.310944
   2 C :    0.439791
   3 C :    0.556171
   4 N :    0.283156
   5 H :   -0.245987
   6 H :   -0.119808
   7 H :   -0.413104
   8 H :   -0.320641
   9 H :   -0.535496
  10 H :   -0.576258
  11 H :   -0.131060
  12 H :   -0.080855
Sum of atomic charges:    0.0000000

--------------------------------
MULLIKEN REDUCED ORBITAL CHARGES
--------------------------------
  0 C s       :     2.300367  s :     2.300367
      pz      :     0.793576  p :     2.259411
      px      :     0.773916
      py      :     0.691919
      dz2     :     0.013458  d :    -0.014813
      dxz     :     0.012427
      dyz     :    -0.013840
      dx2y2   :     0.003758
      dxy     :    -0.030616
  1 N s       :     3.393804  s :     3.393804
      pz      :     1.025957  p :     3.647144
      px      :     1.484927
      py      :     1.136259
      dz2     :     0.078154  d :     0.269996
      dxz     :     0.068594
      dyz     :     0.096349
      dx2y2   :     0.024043
      dxy     :     0.002855
  2 C s       :     2.654606  s :     2.654606
      pz      :     0.848779  p :     2.380850
      px      :     0.772153
      py      :     0.759918
      dz2     :     0.022074  d :     0.524753
      dxz     :     0.147534
      dyz     :     0.200492
      dx2y2   :     0.118452
      dxy     :     0.036201
  3 C s       :     2.813188  s :     2.813188
      pz      :     0.475846  p :     2.483566
      px      :     0.988150
      py      :     1.019570
      dz2     :    -0.026317  d :     0.147076
      dxz     :     0.038999
      dyz     :     0.066968
      dx2y2   :     0.049733
      dxy     :     0.017692
  4 N s       :     3.176085  s :     3.176085
      pz      :     0.998942  p :     3.531531
      px      :     1.215822
      py      :     1.316767
      dz2     :    -0.003253  d :     0.009228
      dxz     :    -0.004626
      dyz     :     0.019172
      dx2y2   :     0.003962
      dxy     :    -0.006028
  5 H s       :     1.189299  s :     1.189299
      pz      :    -0.014576  p :     0.056688
      px      :     0.038411
      py      :     0.032853
  6 H s       :     1.076184  s :     1.076184
      pz      :     0.005514  p :     0.043625
      px      :    -0.001767
      py      :     0.039878
  7 H s       :     1.336429  s :     1.336429
      pz      :    -0.009730  p :     0.076676
      px      :     0.058098
      py      :     0.028308
  8 H s       :     1.259303  s :     1.259303
      pz      :     0.001776  p :     0.061338
      px      :     0.058434
      py      :     0.001127
  9 H s       :     1.443130  s :     1.443130
      pz      :     0.031742  p :     0.092367
      px      :     0.027131
      py      :     0.033494
 10 H s       :     1.526177  s :     1.526177
      pz      :     0.011031  p :     0.050081
      px      :     0.008505
      py      :     0.030545
 11 H s       :     1.123703  s :     1.123703
      pz      :     0.010126  p :     0.007356
      px      :    -0.040342
      py      :     0.037572
 12 H s       :     1.084702  s :     1.084702
      pz      :     0.013233  p :    -0.003847
      px      :     0.045328
      py      :    -0.062407


                     *******************************
                     * LOEWDIN POPULATION ANALYSIS *
                     *******************************

----------------------
LOEWDIN ATOMIC CHARGES
----------------------
   0 C :    0.215082
   1 N :   -0.025762
   2 C :   -0.255352
   3 C :    0.168086
   4 N :    0.206096
   5 H :   -0.025021
   6 H :   -0.013594
   7 H :    0.001725
   8 H :   -0.106830
   9 H :   -0.101230
  10 H :   -0.022077
  11 H :   -0.015663
  12 H :   -0.025460

-------------------------------
LOEWDIN REDUCED ORBITAL CHARGES
-------------------------------
  0 C s       :     2.690496  s :     2.690496
      pz      :     0.794405  p :     2.646876
      px      :     0.926691
      py      :     0.925781
      dz2     :     0.100939  d :     0.447545
      dxz     :     0.121857
      dyz     :     0.113155
      dx2y2   :     0.080005
      dxy     :     0.031589
  1 N s       :     2.919923  s :     2.919923
      pz      :     1.041248  p :     3.483472
      px      :     1.306896
      py      :     1.135328
      dz2     :     0.194971  d :     0.622368
      dxz     :     0.147007
      dyz     :     0.160866
      dx2y2   :     0.068189
      dxy     :     0.051334
  2 C s       :     2.635585  s :     2.635585
      pz      :     0.829495  p :     2.536802
      px      :     0.843772
      py      :     0.863534
      dz2     :     0.219097  d :     1.082966
      dxz     :     0.243044
      dyz     :     0.252202
      dx2y2   :     0.235561
      dxy     :     0.133062
  3 C s       :     2.729067  s :     2.729067
      pz      :     0.913576  p :     2.772361
      px      :     0.922601
      py      :     0.936184
      dz2     :     0.050410  d :     0.330486
      dxz     :     0.077253
      dyz     :     0.071942
      dx2y2   :     0.068972
      dxy     :     0.061909
  4 N s       :     2.946967  s :     2.946967
      pz      :     1.064540  p :     3.505868
      px      :     1.201625
      py      :     1.239703
      dz2     :     0.100068  d :     0.341069
      dxz     :     0.098070
      dyz     :     0.066105
      dx2y2   :     0.030114
      dxy     :     0.046712
  5 H s       :     0.671843  s :     0.671843
      pz      :     0.076597  p :     0.353177
      px      :     0.126861
      py      :     0.149719
  6 H s       :     0.663743  s :     0.663743
      pz      :     0.117394  p :     0.349851
      px      :     0.122537
      py      :     0.109921
  7 H s       :     0.664000  s :     0.664000
      pz      :     0.079538  p :     0.334275
      px      :     0.115983
      py      :     0.138755
  8 H s       :     0.760482  s :     0.760482
      pz      :     0.131627  p :     0.346349
      px      :     0.111015
      py      :     0.103707
  9 H s       :     0.771636  s :     0.771636
      pz      :     0.129278  p :     0.329594
      px      :     0.094454
      py      :     0.105863
 10 H s       :     0.755837  s :     0.755837
      pz      :     0.073862  p :     0.266240
      px      :     0.091576
      py      :     0.100801
 11 H s       :     0.744359  s :     0.744359
      pz      :     0.059337  p :     0.271304
      px      :     0.079947
      py      :     0.132020
 12 H s       :     0.746969  s :     0.746969
      pz      :     0.063236  p :     0.278491
      px      :     0.137995
      py      :     0.077260


                      *****************************
                      * MAYER POPULATION ANALYSIS *
                      *****************************

  NA   - Mulliken gross atomic population
  ZA   - Total nuclear charge
  QA   - Mulliken gross atomic charge
  VA   - Mayer's total valence
  BVA  - Mayer's bonded valence
  FA   - Mayer's free valence

  ATOM       NA         ZA         QA         VA         BVA        FA
  0 C      4.5450     6.0000     1.4550     3.1706     3.1706     0.0000
  1 N      7.3109     7.0000    -0.3109     4.5209     4.5209     0.0000
  2 C      5.5602     6.0000     0.4398     3.8788     3.8788     0.0000
  3 C      5.4438     6.0000     0.5562     3.5108     3.5108     0.0000
  4 N      6.7168     7.0000     0.2832     3.7203     3.7203     0.0000
  5 H      1.2460     1.0000    -0.2460     0.9699     0.9699     0.0000
  6 H      1.1198     1.0000    -0.1198     0.9173     0.9173    -0.0000
  7 H      1.4131     1.0000    -0.4131     0.9822     0.9822     0.0000
  8 H      1.3206     1.0000    -0.3206     1.1248     1.1248     0.0000
  9 H      1.5355     1.0000    -0.5355     1.1036     1.1036     0.0000
 10 H      1.5763     1.0000    -0.5763     0.7671     0.7671    -0.0000
 11 H      1.1311     1.0000    -0.1311     0.9194     0.9194     0.0000
 12 H      1.0809     1.0000    -0.0809     0.9029     0.9029     0.0000

  Mayer bond orders larger than 0.100000
B(  0-C ,  1-N ) :   0.9871 B(  0-C ,  7-H ) :  -0.1306 B(  0-C , 10-H ) :   0.6850 
B(  0-C , 11-H ) :   0.7433 B(  0-C , 12-H ) :   0.7726 B(  1-N ,  2-C ) :   1.0981 
B(  1-N ,  3-C ) :   0.4035 B(  1-N ,  4-N ) :   0.1500 B(  1-N ,  7-H ) :   1.2731 
B(  1-N , 10-H ) :   0.2009 B(  1-N , 11-H ) :   0.1853 B(  1-N , 12-H ) :   0.1400 
B(  2-C ,  3-C ) :   1.5225 B(  2-C ,  4-N ) :   0.9885 B(  2-C ,  7-H ) :  -0.1952 
B(  2-C ,  8-H ) :   0.2520 B(  2-C ,  9-H ) :   0.3106 B(  3-C ,  4-N ) :   0.2849 
B(  3-C ,  8-H ) :   0.6400 B(  3-C ,  9-H ) :   0.5968 B(  4-N ,  5-H ) :   1.0869 
B(  4-N ,  6-H ) :   1.1114 B(  5-H ,  6-H ) :  -0.1289 B(  8-H ,  9-H ) :   0.1289 


-------
TIMINGS
-------

Total SCF time: 0 days 0 hours 0 min 5 sec 

Total time                  ....       5.235 sec
Sum of individual times     ....       5.074 sec  ( 96.9%)

Fock matrix formation       ....       4.392 sec  ( 83.9%)
  Split-RI-J                ....       0.920 sec  ( 20.9% of F)
  XC integration            ....       3.432 sec  ( 78.1% of F)
    Basis function eval.    ....       1.221 sec  ( 35.6% of XC)
    Density eval.           ....       0.816 sec  ( 23.8% of XC)
    XC-Functional eval.     ....       0.168 sec  (  4.9% of XC)
    XC-Potential eval.      ....       1.072 sec  ( 31.2% of XC)
Diagonalization             ....       0.044 sec  (  0.8%)
Density matrix formation    ....       0.004 sec  (  0.1%)
Population analysis         ....       0.006 sec  (  0.1%)
Initial guess               ....       0.113 sec  (  2.2%)
Orbital Transformation      ....       0.000 sec  (  0.0%)
Orbital Orthonormalization  ....       0.000 sec  (  0.0%)
DIIS solution               ....       0.028 sec  (  0.5%)
SOSCF solution              ....       0.044 sec  (  0.8%)
Grid generation             ....       0.443 sec  (  8.5%)

Maximum memory used throughout the entire SCF-calculation: 18.7 MB


-------------------------------------------------------------------------------
                          DFT DISPERSION CORRECTION                            
                                                                               
                              DFTD3 V3.1  Rev 1                                
                          USING Becke-Johnson damping                          
-------------------------------------------------------------------------------
The BLYP functional is recognized
Active option DFTDOPT                   ...         4   

molecular C6(AA) [au] = 1312.080274 


            DFT-D V3
 parameters
 s6 scaling factor         :     1.0000 
 a1 scaling factor         :     0.4298 
 s8 scaling factor         :     2.6996 
 a2 scaling factor         :     4.2359 
 ad hoc parameters k1-k3   :    16.0000     1.3333    -4.0000 

 Edisp/kcal,au: -12.149707257813  -0.019361788888 
 E6   /kcal   :  -5.039382157 
 E8   /kcal   :  -7.110325100 
 % E8         :  58.522604286 

-------------------------   ----------------
Dispersion correction           -0.019361789
-------------------------   ----------------


-------------------------   --------------------
FINAL SINGLE POINT ENERGY      -228.352897627100
-------------------------   --------------------


                            ***************************************
                            *     ORCA property calculations      *
                            ***************************************

                                    ---------------------
                                    Active property flags
                                    ---------------------
   (+) Dipole Moment


------------------------------------------------------------------------------
                       ORCA ELECTRIC PROPERTIES CALCULATION
------------------------------------------------------------------------------

Dipole Moment Calculation                       ... on
Quadrupole Moment Calculation                   ... off
Polarizability Calculation                      ... off
GBWName                                         ... 18Feb_SVPD_BLYP_C2_wt_wb97_typm1_pos.gbw
Electron density file                           ... 18Feb_SVPD_BLYP_C2_wt_wb97_typm1_pos.scfp
The origin for moment calculation is the CENTER OF MASS  = ( 9.198393, -2.727903 -7.454420)

-------------
DIPOLE MOMENT
-------------
                                X             Y             Z
Electronic contribution:      1.11277      -0.84563       2.11738
Nuclear contribution   :     -0.77547      -0.19690      -2.16626
                        -----------------------------------------
Total Dipole Moment    :      0.33730      -1.04253      -0.04887
                        -----------------------------------------
Magnitude (a.u.)       :      1.09683
Magnitude (Debye)      :      2.78792



--------------------
Rotational spectrum 
--------------------
 
Rotational constants in cm-1:     0.340409     0.131955     0.097296 
Rotational constants in MHz : 10205.195281  3955.909122  2916.861706 

 Dipole components along the rotational axes: 
x,y,z [a.u.] :    -0.142175    -0.994149     0.441013 
x,y,z [Debye]:    -0.361381    -2.526926     1.120967 

 

Timings for individual modules:

Sum of individual times         ...        6.035 sec (=   0.101 min)
GTO integral calculation        ...        0.474 sec (=   0.008 min)   7.8 %
SCF iterations                  ...        5.561 sec (=   0.093 min)  92.2 %
                             ****ORCA TERMINATED NORMALLY****
TOTAL RUN TIME: 0 days 0 hours 0 minutes 6 seconds 544 msec
