
                                        *****************
                                        * O   R   C   A *
                                        *****************

                                            #,                                       
                                            ###                                      
                                            ####                                     
                                            #####                                    
                                            ######                                   
                                           ########,                                 
                                     ,,################,,,,,                         
                               ,,#################################,,                 
                          ,,##########################################,,             
                       ,#########################################, ''#####,          
                    ,#############################################,,   '####,        
                  ,##################################################,,,,####,       
                ,###########''''           ''''###############################       
              ,#####''   ,,,,##########,,,,          '''####'''          '####       
            ,##' ,,,,###########################,,,                        '##       
           ' ,,###''''                  '''############,,,                           
         ,,##''                                '''############,,,,        ,,,,,,###''
      ,#''                                            '''#######################'''  
     '                                                          ''''####''''         
             ,#######,   #######,   ,#######,      ##                                
            ,#'     '#,  ##    ##  ,#'     '#,    #''#        ######   ,####,        
            ##       ##  ##   ,#'  ##            #'  '#       #        #'  '#        
            ##       ##  #######   ##           ,######,      #####,   #    #        
            '#,     ,#'  ##    ##  '#,     ,#' ,#      #,         ##   #,  ,#        
             '#######'   ##     ##  '#######'  #'      '#     #####' # '####'        



                  #######################################################
                  #                        -***-                        #
                  #          Department of theory and spectroscopy      #
                  #    Directorship and core code : Frank Neese         #
                  #        Max Planck Institute fuer Kohlenforschung    #
                  #                Kaiser Wilhelm Platz 1               #
                  #                 D-45470 Muelheim/Ruhr               #
                  #                      Germany                        #
                  #                                                     #
                  #                  All rights reserved                #
                  #                        -***-                        #
                  #######################################################


                         Program Version 5.0.0 -  RELEASE  -
                                (SVN: $Rev: 19529$)
                ($Date: 2021-06-28 11:36:33 +0200 (Mo, 28 Jun 2021) $)


 With contributions from (in alphabetic order):
   Daniel Aravena         : Magnetic Suceptibility
   Michael Atanasov       : Ab Initio Ligand Field Theory (pilot matlab implementation)
   Alexander A. Auer      : GIAO ZORA, VPT2 properties, NMR spectrum
   Ute Becker             : Parallelization
   Giovanni Bistoni       : ED, misc. LED, open-shell LED, HFLD
   Martin Brehm           : Molecular dynamics
   Dmytro Bykov           : SCF Hessian
   Vijay G. Chilkuri      : MRCI spin determinant printing, contributions to CSF-ICE
   Dipayan Datta          : RHF DLPNO-CCSD density
   Achintya Kumar Dutta   : EOM-CC, STEOM-CC
   Dmitry Ganyushin       : Spin-Orbit,Spin-Spin,Magnetic field MRCI
   Miquel Garcia          : C-PCM Hessian, Gaussian charge scheme
   Yang Guo               : DLPNO-NEVPT2, F12-NEVPT2, CIM, IAO-localization
   Andreas Hansen         : Spin unrestricted coupled pair/coupled cluster methods
   Benjamin Helmich-Paris : MC-RPA, TRAH-SCF, COSX integrals
   Lee Huntington         : MR-EOM, pCC
   Robert Izsak           : Overlap fitted RIJCOSX, COSX-SCS-MP3, EOM
   Marcus Kettner         : VPT2
   Christian Kollmar      : KDIIS, OOCD, Brueckner-CCSD(T), CCSD density, CASPT2, CASPT2-K
   Simone Kossmann        : Meta GGA functionals, TD-DFT gradient, OOMP2, MP2 Hessian
   Martin Krupicka        : Initial AUTO-CI
   Lucas Lang             : DCDCAS
   Marvin Lechner         : AUTO-CI (C++ implementation), FIC-MRCC
   Dagmar Lenk            : GEPOL surface, SMD
   Dimitrios Liakos       : Extrapolation schemes; Compound Job, initial MDCI parallelization
   Dimitrios Manganas     : Further ROCIS development; embedding schemes
   Dimitrios Pantazis     : SARC Basis sets
   Anastasios Papadopoulos: AUTO-CI, single reference methods and gradients
   Taras Petrenko         : DFT Hessian,TD-DFT gradient, ASA, ECA, R-Raman, ABS, FL, XAS/XES, NRVS
   Peter Pinski           : DLPNO-MP2, DLPNO-MP2 Gradient
   Christoph Reimann      : Effective Core Potentials
   Marius Retegan         : Local ZFS, SOC
   Christoph Riplinger    : Optimizer, TS searches, QM/MM, DLPNO-CCSD(T), (RO)-DLPNO pert. Triples
   Tobias Risthaus        : Range-separated hybrids, TD-DFT gradient, RPA, STAB
   Michael Roemelt        : Original ROCIS implementation
   Masaaki Saitow         : Open-shell DLPNO-CCSD energy and density
   Barbara Sandhoefer     : DKH picture change effects
   Avijit Sen             : IP-ROCIS
   Kantharuban Sivalingam : CASSCF convergence, NEVPT2, FIC-MRCI
   Bernardo de Souza      : ESD, SOC TD-DFT
   Georgi Stoychev        : AutoAux, RI-MP2 NMR
   Willem Van den Heuvel  : Paramagnetic NMR
   Boris Wezisla          : Elementary symmetry handling
   Frank Wennmohs         : Technical directorship


 We gratefully acknowledge several colleagues who have allowed us to
 interface, adapt or use parts of their codes:
   Stefan Grimme, W. Hujo, H. Kruse, P. Pracht,  : VdW corrections, initial TS optimization,
                  C. Bannwarth, S. Ehlert          DFT functionals, gCP, sTDA/sTD-DF
   Ed Valeev, F. Pavosevic, A. Kumar             : LibInt (2-el integral package), F12 methods
   Garnet Chan, S. Sharma, J. Yang, R. Olivares  : DMRG
   Ulf Ekstrom                                   : XCFun DFT Library
   Mihaly Kallay                                 : mrcc  (arbitrary order and MRCC methods)
   Jiri Pittner, Ondrej Demel                    : Mk-CCSD
   Frank Weinhold                                : gennbo (NPA and NBO analysis)
   Christopher J. Cramer and Donald G. Truhlar   : smd solvation model
   Lars Goerigk                                  : TD-DFT with DH, B97 family of functionals
   V. Asgeirsson, H. Jonsson                     : NEB implementation
   FAccTs GmbH                                   : IRC, NEB, NEB-TS, DLPNO-Multilevel, CI-OPT
                                                   MM, QMMM, 2- and 3-layer-ONIOM, Crystal-QMMM,
                                                   LR-CPCM, SF, NACMEs, symmetry and pop. for TD-DFT,
                                                   nearIR, NL-DFT gradient (VV10), updates on ESD,
                                                   ML-optimized integration grids
   S Lehtola, MJT Oliveira, MAL Marques          : LibXC Library
   Liviu Ungur et al                             : ANISO software


 Your calculation uses the libint2 library for the computation of 2-el integrals
 For citations please refer to: http://libint.valeyev.net

 Your ORCA version has been built with support for libXC version: 5.1.0
 For citations please refer to: https://tddft.org/programs/libxc/

 This ORCA versions uses:
   CBLAS   interface :  Fast vector & matrix operations
   LAPACKE interface :  Fast linear algebra routines
   SCALAPACK package :  Parallel linear algebra routines
   Shared memory     :  Shared parallel matrices
   BLAS/LAPACK       :  OpenBLAS 0.3.15  USE64BITINT DYNAMIC_ARCH NO_AFFINITY Haswell SINGLE_THREADED
        Core in use  :  Haswell
   Copyright (c) 2011-2014, The OpenBLAS Project


Your calculation utilizes the atom-pairwise dispersion correction
with the zero-damping scheme (D30)
Cite in your paper:
S.Grimme, J.Antony, S.Ehrlich and H.Krieg, J.Chem.Phys., 132, (2010), 154104 
   

XCFun DFT library Copyright 2009-2010 Ulf Ekstrom and contributors.
See http://admol.org/xcfun for more information.
This is free software; see the source code for copying conditions.
There is ABSOLUTELY NO WARRANTY; not even for MERCHANTABILITY or FITNESS FOR A PARTICULAR PURPOSE.
For details see the documentation.
Scientific users of this library should cite U. Ekstrom, L. Visscher, R. Bast, A. J. Thorvaldsen and K. Ruud;
J.Chem.Theor.Comp. 2010, DOI: 10.1021/ct100117s
XCFun Version 0.99 

================================================================================

----- Orbital basis set information -----
Your calculation utilizes the basis: def2-TZVP
   F. Weigend and R. Ahlrichs, Phys. Chem. Chem. Phys. 7, 3297 (2005).

----- AuxJ basis set information -----
Your calculation utilizes the auxiliary basis: def2/J
   F. Weigend, Phys. Chem. Chem. Phys. 8, 1057 (2006).

================================================================================
                                        WARNINGS
                       Please study these warnings very carefully!
================================================================================


INFO   : the flag for use of the SHARK integral package has been found!

================================================================================
                                       INPUT FILE
================================================================================
NAME = A_neg.com
|  1> !wB97X-D3 RIJCOSX def2-TZVP def2/J TightSCF 
|  2> *xyz -1 1
|  3> C         -0.46129        2.23469       -4.98962
|  4> C          0.84888        2.66797       -4.30235
|  5> C          2.09343        1.86104       -4.65684
|  6> H          2.44481        2.04157       -5.67499
|  7> H          2.90175        2.13786       -3.98034
|  8> S          1.87964        0.07859       -4.46297
|  9> O          3.20757       -0.46611       -4.42026
| 10> O          1.07506       -0.05616       -3.26876
| 11> O          1.13166       -0.31996       -5.67903
| 12> H          0.66843        2.55943       -3.23285
| 13> H          1.03407        3.72943       -4.49708
| 14> H         -0.35183        2.31783       -6.05075
| 15> H         -1.26108        2.86600       -4.66300
| 16> H         -0.68032        1.21949       -4.73211
| 17> *
| 18> 
| 19> %MaxCore 64000
| 20> 
| 21> %pal nprocs 8
| 22> end  
| 23> 
| 24> %scf
| 25>   MaxIter 150
| 26> end
| 27> 
| 28> 
| 29>                          ****END OF INPUT****
================================================================================

                       ****************************
                       * Single Point Calculation *
                       ****************************

---------------------------------
CARTESIAN COORDINATES (ANGSTROEM)
---------------------------------
  C     -0.461290    2.234690   -4.989620
  C      0.848880    2.667970   -4.302350
  C      2.093430    1.861040   -4.656840
  H      2.444810    2.041570   -5.674990
  H      2.901750    2.137860   -3.980340
  S      1.879640    0.078590   -4.462970
  O      3.207570   -0.466110   -4.420260
  O      1.075060   -0.056160   -3.268760
  O      1.131660   -0.319960   -5.679030
  H      0.668430    2.559430   -3.232850
  H      1.034070    3.729430   -4.497080
  H     -0.351830    2.317830   -6.050750
  H     -1.261080    2.866000   -4.663000
  H     -0.680320    1.219490   -4.732110

----------------------------
CARTESIAN COORDINATES (A.U.)
----------------------------
  NO LB      ZA    FRAG     MASS         X           Y           Z
   0 C     6.0000    0    12.011   -0.871712    4.222952   -9.429015
   1 C     6.0000    0    12.011    1.604151    5.041733   -8.130263
   2 C     6.0000    0    12.011    3.956009    3.516856   -8.800152
   3 H     1.0000    0     1.008    4.620021    3.858008  -10.724177
   4 H     1.0000    0     1.008    5.483513    4.039970   -7.521753
   5 S    16.0000    0    32.060    3.552005    0.148514   -8.433791
   6 O     8.0000    0    15.999    6.061429   -0.880820   -8.353081
   7 O     8.0000    0    15.999    2.031569   -0.106127   -6.177061
   8 O     8.0000    0    15.999    2.138527   -0.604637  -10.731811
   9 H     1.0000    0     1.008    1.263150    4.836622   -6.109201
  10 H     1.0000    0     1.008    1.954109    7.047601   -8.498250
  11 H     1.0000    0     1.008   -0.664862    4.380064  -11.434260
  12 H     1.0000    0     1.008   -2.383096    5.415955   -8.811793
  13 H     1.0000    0     1.008   -1.285618    2.304502   -8.942392

--------------------------------
INTERNAL COORDINATES (ANGSTROEM)
--------------------------------
 C      0   0   0     0.000000000000     0.00000000     0.00000000
 C      1   0   0     1.541628048590     0.00000000     0.00000000
 C      2   1   0     1.525025864535   116.18166337     0.00000000
 H      3   2   1     1.092102745991   113.06736607    71.01533826
 H      3   2   1     1.089799424114   109.06281783   190.35266679
 S      3   2   1     1.805663241997   113.62454011   308.07276847
 O      6   3   2     1.435938828432   105.55460841   197.66012960
 O      6   3   2     1.446251728780   104.27042723   321.55528125
 O      6   3   2     1.482267892960   103.71447179    78.73659451
 H      2   1   3     1.090033661911   105.58891631   240.24026034
 H      2   1   3     1.094948601807   109.68881369   124.80111670
 H      1   2   3     1.069995620599   109.47135403   299.76021362
 H      1   2   3     1.069998590934   109.47137267   179.75919942
 H      1   2   3     1.070007748103   109.47130075    59.76007154

---------------------------
INTERNAL COORDINATES (A.U.)
---------------------------
 C      0   0   0     0.000000000000     0.00000000     0.00000000
 C      1   0   0     2.913254812207     0.00000000     0.00000000
 C      2   1   0     2.881881231117   116.18166337     0.00000000
 H      3   2   1     2.063775100025   113.06736607    71.01533826
 H      3   2   1     2.059422452481   109.06281783   190.35266679
 S      3   2   1     3.412209017463   113.62454011   308.07276847
 O      6   3   2     2.713531130801   105.55460841   197.66012960
 O      6   3   2     2.733019688105   104.27042723   321.55528125
 O      6   3   2     2.801080374799   103.71447179    78.73659451
 H      2   1   3     2.059865097768   105.58891631   240.24026034
 H      2   1   3     2.069152988136   109.68881369   124.80111670
 H      1   2   3     2.021998687426   109.47135403   299.76021362
 H      1   2   3     2.022004300546   109.47137267   179.75919942
 H      1   2   3     2.022021605088   109.47130075    59.76007154

---------------------
BASIS SET INFORMATION
---------------------
There are 4 groups of distinct atoms

 Group   1 Type C   : 11s6p2d1f contracted to 5s3p2d1f pattern {62111/411/11/1}
 Group   2 Type H   : 5s1p contracted to 3s1p pattern {311/1}
 Group   3 Type S   : 14s9p3d1f contracted to 5s5p2d1f pattern {73211/51111/21/1}
 Group   4 Type O   : 11s6p2d1f contracted to 5s3p2d1f pattern {62111/411/11/1}

Atom   0C    basis set group =>   1
Atom   1C    basis set group =>   1
Atom   2C    basis set group =>   1
Atom   3H    basis set group =>   2
Atom   4H    basis set group =>   2
Atom   5S    basis set group =>   3
Atom   6O    basis set group =>   4
Atom   7O    basis set group =>   4
Atom   8O    basis set group =>   4
Atom   9H    basis set group =>   2
Atom  10H    basis set group =>   2
Atom  11H    basis set group =>   2
Atom  12H    basis set group =>   2
Atom  13H    basis set group =>   2
---------------------------------
AUXILIARY/J BASIS SET INFORMATION
---------------------------------
There are 4 groups of distinct atoms

 Group   1 Type C   : 12s5p4d2f1g contracted to 6s4p3d1f1g pattern {711111/2111/211/2/1}
 Group   2 Type H   : 5s2p1d contracted to 3s1p1d pattern {311/2/1}
 Group   3 Type S   : 14s5p5d2f1g contracted to 8s4p3d1f1g pattern {71111111/2111/311/2/1}
 Group   4 Type O   : 12s5p4d2f1g contracted to 6s4p3d1f1g pattern {711111/2111/211/2/1}

Atom   0C    basis set group =>   1
Atom   1C    basis set group =>   1
Atom   2C    basis set group =>   1
Atom   3H    basis set group =>   2
Atom   4H    basis set group =>   2
Atom   5S    basis set group =>   3
Atom   6O    basis set group =>   4
Atom   7O    basis set group =>   4
Atom   8O    basis set group =>   4
Atom   9H    basis set group =>   2
Atom  10H    basis set group =>   2
Atom  11H    basis set group =>   2
Atom  12H    basis set group =>   2
Atom  13H    basis set group =>   2


           ************************************************************
           *        Program running with 8 parallel MPI-processes     *
           *              working on a common directory               *
           ************************************************************
------------------------------------------------------------------------------
                           ORCA GTO INTEGRAL CALCULATION
                           -- RI-GTO INTEGRALS CHOSEN --
------------------------------------------------------------------------------
------------------------------------------------------------------------------
                   ___                                                        
                  /   \      - P O W E R E D   B Y -                         
                 /     \                                                     
                 |  |  |   _    _      __       _____    __    __             
                 |  |  |  | |  | |    /  \     |  _  \  |  |  /  |          
                  \  \/   | |  | |   /    \    | | | |  |  | /  /          
                 / \  \   | |__| |  /  /\  \   | |_| |  |  |/  /          
                |  |  |   |  __  | /  /__\  \  |    /   |      \           
                |  |  |   | |  | | |   __   |  |    \   |  |\   \          
                \     /   | |  | | |  |  |  |  | |\  \  |  | \   \       
                 \___/    |_|  |_| |__|  |__|  |_| \__\ |__|  \__/        
                                                                              
                      - O R C A' S   B I G   F R I E N D -                    
                                      &                                       
                       - I N T E G R A L  F E E D E R -                       
                                                                              
 v1 FN, 2020, v2 2021                                                         
------------------------------------------------------------------------------


Reading SHARK input file A_neg.SHARKINP.tmp ... ok
----------------------
SHARK INTEGRAL PACKAGE
----------------------

Number of atoms                             ...     14
Number of basis functions                   ...    265
Number of shells                            ...    107
Maximum angular momentum                    ...      3
Integral batch strategy                     ... SHARK/LIBINT Hybrid
RI-J (if used) integral strategy            ... SPLIT-RIJ (Revised 2003 algorithm where possible)
Printlevel                                  ...      1
Contraction scheme used                     ... SEGMENTED contraction
Coulomb Range Separation                    ... NOT USED
Exchange Range Separation                   ... Long Range
   Mu parameter                             ...  0.250000
   Scaling (regular/separated)              ...  0.195728  0.804272
Finite Nucleus Model                        ... NOT USED
Auxiliary Coulomb fitting basis             ... AVAILABLE
   # of basis functions in Aux-J            ...    422
   # of shells in Aux-J                     ...    142
   Maximum angular momentum in Aux-J        ...      4
Auxiliary J/K fitting basis                 ... NOT available
Auxiliary Correlation fitting basis         ... NOT available
Auxiliary 'external' fitting basis          ... NOT available
Integral threshold                          ...     2.500000e-11
Primitive cut-off                           ...     2.500000e-12
Primitive pair pre-selection threshold      ...     2.500000e-12

Calculating pre-screening integrals         ... done (  0.1 sec) Dimension = 107
Organizing shell pair data                  ... done (  0.1 sec)
Shell pair information
Total number of shell pairs                 ...      5778
Shell pairs after pre-screening             ...      5344
Total number of primitive shell pairs       ...     18144
Primitive shell pairs kept                  ...     12580
          la=0 lb=0:   1417 shell pairs
          la=1 lb=0:   1563 shell pairs
          la=1 lb=1:    451 shell pairs
          la=2 lb=0:    717 shell pairs
          la=2 lb=1:    404 shell pairs
          la=2 lb=2:    103 shell pairs
          la=3 lb=0:    362 shell pairs
          la=3 lb=1:    204 shell pairs
          la=3 lb=2:     96 shell pairs
          la=3 lb=3:     27 shell pairs

Calculating one electron integrals          ... done (  0.0 sec)
Calculating RI/J V-Matrix + Cholesky decomp.... done (  0.0 sec)
Calculating Nuclear repulsion               ... done (  0.0 sec) ENN=    438.139581388694 Eh

SHARK setup successfully completed in   0.3 seconds

Maximum memory used throughout the entire GTOINT-calculation: 15.3 MB


           ************************************************************
           *        Program running with 8 parallel MPI-processes     *
           *              working on a common directory               *
           ************************************************************
-------------------------------------------------------------------------------
                                 ORCA SCF
-------------------------------------------------------------------------------

------------
SCF SETTINGS
------------
Hamiltonian:
 Density Functional     Method          .... DFT(GTOs)
 Exchange Functional    Exchange        .... WB97X-D3
 Correlation Functional Correlation     .... WB97X-D3
 Gradients option       PostSCFGGA      .... off
 Hybrid DFT is turned on
   Fraction HF Exchange ScalHFX         ....  0.195728
   Scaling of DF-GGA-X  ScalDFX         ....  0.000000
   Scaling of DF-GGA-C  ScalDFC         ....  1.000000
   Scaling of DF-LDA-C  ScalLDAC        ....  1.000000
   Perturbative correction              ....  0.000000
   Density functional embedding theory  .... OFF
 Long-range corrected/Screened/Range-Separated Hybrid DFT is turned on
   Amount of maximum screened exact exchange              ....  0.804272
   Range separation parameter mu (erf(mu*r12)/r12)        ....  0.250000
 RI-approximation to the Coulomb term is turned on
   Number of AuxJ basis functions       .... 422
   RIJ-COSX (HFX calculated with COS-X)).... on


General Settings:
 Integral files         IntName         .... A_neg
 Hartree-Fock type      HFTyp           .... RHF
 Total Charge           Charge          ....   -1
 Multiplicity           Mult            ....    1
 Number of Electrons    NEL             ....   66
 Basis Dimension        Dim             ....  265
 Nuclear Repulsion      ENuc            ....    438.1395813887 Eh

Convergence Acceleration:
 DIIS                   CNVDIIS         .... on
   Start iteration      DIISMaxIt       ....    12
   Startup error        DIISStart       ....  0.200000
   # of expansion vecs  DIISMaxEq       ....     5
   Bias factor          DIISBfac        ....   1.050
   Max. coefficient     DIISMaxC        ....  10.000
 Trust-Rad. Augm. Hess. CNVTRAH         .... auto
   Auto Start mean grad. ratio tolernc. ....  1.125000
   Auto Start start iteration           ....    20
   Auto Start num. interpolation iter.  ....    10
   Max. Number of Micro iterations      ....    16
   Max. Number of Macro iterations      .... Maxiter - #DIIS iter
   Number of Davidson start vectors     ....     2
   Converg. threshold I  (grad. norm)   ....   1.000e-05
   Converg. threshold II (energy diff.) ....   1.000e-08
   Grad. Scal. Fac. for Micro threshold ....   0.100
   Minimum threshold for Micro iter.    ....   0.010
   NR start threshold (gradient norm)   ....   0.001
   Initial trust radius                 ....   0.400
   Minimum AH scaling param. (alpha)    ....   1.000
   Maximum AH scaling param. (alpha)    .... 1000.000
   Orbital update algorithm             .... Taylor
   White noise on init. David. guess    .... on
   Maximum white noise                  ....   0.010
   Quad. conv. algorithm                .... NR
 SOSCF                  CNVSOSCF        .... on
   Start iteration      SOSCFMaxIt      ....   150
   Startup grad/error   SOSCFStart      ....  0.003300
 Level Shifting         CNVShift        .... on
   Level shift para.    LevelShift      ....    0.2500
   Turn off err/grad.   ShiftErr        ....    0.0010
 Zerner damping         CNVZerner       .... off
 Static damping         CNVDamp         .... on
   Fraction old density DampFac         ....    0.7000
   Max. Damping (<1)    DampMax         ....    0.9800
   Min. Damping (>=0)   DampMin         ....    0.0000
   Turn off err/grad.   DampErr         ....    0.1000
 Fernandez-Rico         CNVRico         .... off

SCF Procedure:
 Maximum # iterations   MaxIter         ....   150
 SCF integral mode      SCFMode         .... Direct
   Integral package                     .... SHARK and LIBINT hybrid scheme
 Reset frequency        DirectResetFreq ....    20
 Integral Threshold     Thresh          ....  2.500e-11 Eh
 Primitive CutOff       TCut            ....  2.500e-12 Eh

Convergence Tolerance:
 Convergence Check Mode ConvCheckMode   .... Total+1el-Energy
 Convergence forced     ConvForced      .... 0
 Energy Change          TolE            ....  1.000e-08 Eh
 1-El. energy change                    ....  1.000e-05 Eh
 Orbital Gradient       TolG            ....  1.000e-05
 Orbital Rotation angle TolX            ....  1.000e-05
 DIIS Error             TolErr          ....  5.000e-07


Diagonalization of the overlap matrix:
Smallest eigenvalue                        ... 2.532e-04
Time for diagonalization                   ...    0.019 sec
Threshold for overlap eigenvalues          ... 1.000e-08
Number of eigenvalues below threshold      ... 0
Time for construction of square roots      ...    0.017 sec
Total time needed                          ...    0.037 sec

Time for model grid setup =    0.076 sec

------------------------------
INITIAL GUESS: MODEL POTENTIAL
------------------------------
Loading Hartree-Fock densities                     ... done
Calculating cut-offs                               ... done
Initializing the effective Hamiltonian             ... done
Setting up the integral package (SHARK)            ... done
Starting the Coulomb interaction                   ... done (   0.0 sec)
Reading the grid                                   ... done
Mapping shells                                     ... done
Starting the XC term evaluation                    ... done (   0.1 sec)
  promolecular density results
     # of electrons  =     64.996717002
     EX              =    -66.878839342
     EC              =     -2.282739380
     EX+EC           =    -69.161578722
Transforming the Hamiltonian                       ... done (   0.0 sec)
Diagonalizing the Hamiltonian                      ... done (   0.0 sec)
Back transforming the eigenvectors                 ... done (   0.0 sec)
Now organizing SCF variables                       ... done
                      ------------------
                      INITIAL GUESS DONE (   0.2 sec)
                      ------------------
-------------------
DFT GRID GENERATION
-------------------

General Integration Accuracy     IntAcc      ... 4.388
Radial Grid Type                 RadialGrid  ... OptM3 with GC (2021)
Angular Grid (max. ang.)         AngularGrid ... 4 (Lebedev-302)
Angular grid pruning method      GridPruning ... 4 (adaptive)
Weight generation scheme         WeightScheme... Becke
Basis function cutoff            BFCut       ... 1.0000e-11
Integration weight cutoff        WCut        ... 1.0000e-14
Angular grids for H and He will be reduced by one unit
Partially contracted basis set               ... off
Rotationally invariant grid construction     ... off

Total number of grid points                  ...    66069
Total number of batches                      ...     1041
Average number of points per batch           ...       63
Average number of grid points per atom       ...     4719
Time for grid setup =    0.395 sec

--------------------
COSX GRID GENERATION
--------------------

GRIDX 1
-------
General Integration Accuracy     IntAcc      ... 3.816
Radial Grid Type                 RadialGrid  ... OptM3 with GC (2021)
Angular Grid (max. ang.)         AngularGrid ... 1 (Lebedev-50)
Angular grid pruning method      GridPruning ... 4 (adaptive)
Weight generation scheme         WeightScheme... Becke
Basis function cutoff            BFCut       ... 1.0000e-11
Integration weight cutoff        WCut        ... 1.0000e-14
Angular grids for H and He will be reduced by one unit
Partially contracted basis set               ... on
Rotationally invariant grid construction     ... off

Total number of grid points                  ...     8372
Total number of batches                      ...      138
Average number of points per batch           ...       60
Average number of grid points per atom       ...      598
UseSFitting                                  ... on

GRIDX 2
-------
General Integration Accuracy     IntAcc      ... 4.020
Radial Grid Type                 RadialGrid  ... OptM3 with GC (2021)
Angular Grid (max. ang.)         AngularGrid ... 2 (Lebedev-110)
Angular grid pruning method      GridPruning ... 4 (adaptive)
Weight generation scheme         WeightScheme... Becke
Basis function cutoff            BFCut       ... 1.0000e-11
Integration weight cutoff        WCut        ... 1.0000e-14
Angular grids for H and He will be reduced by one unit
Partially contracted basis set               ... on
Rotationally invariant grid construction     ... off

Total number of grid points                  ...    18160
Total number of batches                      ...      291
Average number of points per batch           ...       62
Average number of grid points per atom       ...     1297
UseSFitting                                  ... on

GRIDX 3
-------
General Integration Accuracy     IntAcc      ... 4.338
Radial Grid Type                 RadialGrid  ... OptM3 with GC (2021)
Angular Grid (max. ang.)         AngularGrid ... 3 (Lebedev-194)
Angular grid pruning method      GridPruning ... 4 (adaptive)
Weight generation scheme         WeightScheme... Becke
Basis function cutoff            BFCut       ... 1.0000e-11
Integration weight cutoff        WCut        ... 1.0000e-14
Angular grids for H and He will be reduced by one unit
Partially contracted basis set               ... on
Rotationally invariant grid construction     ... off

Total number of grid points                  ...    40445
Total number of batches                      ...      640
Average number of points per batch           ...       63
Average number of grid points per atom       ...     2889
UseSFitting                                  ... on

Time for X-Grid setup             =    0.330 sec

--------------
SCF ITERATIONS
--------------
ITER       Energy         Delta-E        Max-DP      RMS-DP      [F,P]     Damp
               ***  Starting incremental Fock matrix formation  ***
  0   -742.1299281567   0.000000000000 0.08404725  0.00125326  0.2991587 0.7000
  1   -742.3052700268  -0.175341870100 0.04561795  0.00095712  0.1461735 0.7000
                               ***Turning on DIIS***
  2   -742.3827227361  -0.077452709305 0.10326896  0.00187582  0.0575018 0.0000
  3   -742.5095323503  -0.126809614168 0.03952687  0.00058006  0.0712645 0.0000
  4   -742.5304781761  -0.020945825816 0.01082632  0.00016882  0.0100181 0.0000
  5   -742.5311004780  -0.000622301828 0.00205579  0.00005229  0.0034642 0.0000
                      *** Initiating the SOSCF procedure ***
                           *** Shutting down DIIS ***
                      *** Re-Reading the Fockian *** 
                      *** Removing any level shift *** 
ITER      Energy       Delta-E        Grad      Rot      Max-DP    RMS-DP
  6   -742.53115751  -0.0000570288  0.000337  0.000337  0.001698  0.000042
               *** Restarting incremental Fock matrix formation ***
  7   -742.53116279  -0.0000052809  0.000083  0.000126  0.000540  0.000014
  8   -742.53116313  -0.0000003417  0.000076  0.000074  0.000209  0.000005
  9   -742.53116348  -0.0000003487  0.000012  0.000016  0.000094  0.000001
 10   -742.53116349  -0.0000000114  0.000008  0.000007  0.000041  0.000001
                  ***Gradient check signals convergence***
              ***Rediagonalizing the Fockian in SOSCF/NRSCF***

               *****************************************************
               *                     SUCCESS                       *
               *           SCF CONVERGED AFTER  11 CYCLES          *
               *****************************************************

Old exchange energy                            =    -20.487143650 Eh
New exchange energy                            =    -20.487139942 Eh
Exchange energy change after final integration =      0.000003708 Eh
Total energy after final integration           =   -742.531159789 Eh
Final COS-X integration done in                =     4.537 sec

----------------
TOTAL SCF ENERGY
----------------

Total Energy       :         -742.53115979 Eh          -20205.30008 eV

Components:
Nuclear Repulsion  :          438.13958139 Eh           11922.38413 eV
Electronic Energy  :        -1180.67074118 Eh          -32127.68421 eV
One Electron Energy:        -1903.39742686 Eh          -51794.07714 eV
Two Electron Energy:          722.72668569 Eh           19666.39294 eV
Max COSX asymmetry :            0.00000184 Eh               0.00005 eV

Virial components:
Potential Energy   :        -1483.07727710 Eh          -40356.58440 eV
Kinetic Energy     :          740.54611731 Eh           20151.28432 eV
Virial Ratio       :            2.00268051


DFT components:
N(Alpha)           :       33.000002738335 electrons
N(Beta)            :       33.000002738335 electrons
N(Total)           :       66.000005476670 electrons
E(XC)              :      -50.337109107010 Eh       
DFET-embed. en.    :        0.000000000000 Eh       

---------------
SCF CONVERGENCE
---------------

  Last Energy change         ...   -7.3189e-09  Tolerance :   1.0000e-08
  Last MAX-Density change    ...    1.3323e-15  Tolerance :   1.0000e-07
  Last RMS-Density change    ...    2.0826e-17  Tolerance :   5.0000e-09
  Last Orbital Gradient      ...    1.0409e-06  Tolerance :   1.0000e-05
  Last Orbital Rotation      ...    1.2756e-06  Tolerance :   1.0000e-05

             **** THE GBW FILE WAS UPDATED (A_neg.gbw) ****
             **** DENSITY A_neg.scfp WAS UPDATED ****
             **** ENERGY FILE WAS UPDATED (A_neg.en.tmp) ****
             **** THE GBW FILE WAS UPDATED (A_neg.gbw) ****
             **** DENSITY A_neg.scfp WAS UPDATED ****
----------------
ORBITAL ENERGIES
----------------

  NO   OCC          E(Eh)            E(eV) 
   0   2.0000     -88.931310     -2419.9440 
   1   2.0000     -19.009005      -517.2613 
   2   2.0000     -19.007021      -517.2073 
   3   2.0000     -18.992932      -516.8240 
   4   2.0000     -10.138276      -275.8765 
   5   2.0000     -10.130551      -275.6663 
   6   2.0000     -10.115851      -275.2663 
   7   2.0000      -7.994157      -217.5321 
   8   2.0000      -5.948551      -161.8683 
   9   2.0000      -5.947154      -161.8303 
  10   2.0000      -5.946724      -161.8186 
  11   2.0000      -1.040251       -28.3067 
  12   2.0000      -0.910034       -24.7633 
  13   2.0000      -0.884259       -24.0619 
  14   2.0000      -0.764968       -20.8158 
  15   2.0000      -0.672260       -18.2931 
  16   2.0000      -0.572752       -15.5854 
  17   2.0000      -0.482465       -13.1286 
  18   2.0000      -0.430751       -11.7213 
  19   2.0000      -0.413069       -11.2402 
  20   2.0000      -0.388493       -10.5714 
  21   2.0000      -0.374843       -10.2000 
  22   2.0000      -0.356453        -9.6996 
  23   2.0000      -0.343490        -9.3468 
  24   2.0000      -0.315195        -8.5769 
  25   2.0000      -0.303175        -8.2498 
  26   2.0000      -0.286001        -7.7825 
  27   2.0000      -0.248704        -6.7676 
  28   2.0000      -0.246062        -6.6957 
  29   2.0000      -0.212131        -5.7724 
  30   2.0000      -0.200715        -5.4617 
  31   2.0000      -0.188663        -5.1338 
  32   2.0000      -0.158248        -4.3062 
  33   0.0000       0.244774         6.6606 
  34   0.0000       0.284182         7.7330 
  35   0.0000       0.293067         7.9747 
  36   0.0000       0.306416         8.3380 
  37   0.0000       0.320621         8.7245 
  38   0.0000       0.340718         9.2714 
  39   0.0000       0.360155         9.8003 
  40   0.0000       0.371004        10.0955 
  41   0.0000       0.390095        10.6150 
  42   0.0000       0.399585        10.8733 
  43   0.0000       0.416936        11.3454 
  44   0.0000       0.423076        11.5125 
  45   0.0000       0.433257        11.7895 
  46   0.0000       0.445351        12.1186 
  47   0.0000       0.457019        12.4361 
  48   0.0000       0.475203        12.9309 
  49   0.0000       0.508976        13.8500 
  50   0.0000       0.521522        14.1913 
  51   0.0000       0.560431        15.2501 
  52   0.0000       0.564783        15.3685 
  53   0.0000       0.573612        15.6088 
  54   0.0000       0.582471        15.8498 
  55   0.0000       0.599333        16.3087 
  56   0.0000       0.615797        16.7567 
  57   0.0000       0.635814        17.3014 
  58   0.0000       0.648559        17.6482 
  59   0.0000       0.654120        17.7995 
  60   0.0000       0.658733        17.9250 
  61   0.0000       0.672541        18.3008 
  62   0.0000       0.682073        18.5602 
  63   0.0000       0.702128        19.1059 
  64   0.0000       0.706252        19.2181 
  65   0.0000       0.730251        19.8711 
  66   0.0000       0.731849        19.9146 
  67   0.0000       0.733320        19.9547 
  68   0.0000       0.772271        21.0146 
  69   0.0000       0.782630        21.2964 
  70   0.0000       0.790769        21.5179 
  71   0.0000       0.814044        22.1513 
  72   0.0000       0.838431        22.8149 
  73   0.0000       0.857701        23.3392 
  74   0.0000       0.866582        23.5809 
  75   0.0000       0.871848        23.7242 
  76   0.0000       0.884270        24.0622 
  77   0.0000       0.915480        24.9115 
  78   0.0000       0.940189        25.5838 
  79   0.0000       0.982667        26.7397 
  80   0.0000       1.005712        27.3668 
  81   0.0000       1.012881        27.5619 
  82   0.0000       1.058875        28.8135 
  83   0.0000       1.064383        28.9633 
  84   0.0000       1.111521        30.2460 
  85   0.0000       1.119520        30.4637 
  86   0.0000       1.147410        31.2226 
  87   0.0000       1.163689        31.6656 
  88   0.0000       1.173857        31.9423 
  89   0.0000       1.186934        32.2981 
  90   0.0000       1.217300        33.1244 
  91   0.0000       1.247166        33.9371 
  92   0.0000       1.273591        34.6562 
  93   0.0000       1.281929        34.8831 
  94   0.0000       1.312306        35.7097 
  95   0.0000       1.342575        36.5333 
  96   0.0000       1.384719        37.6801 
  97   0.0000       1.403944        38.2033 
  98   0.0000       1.420530        38.6546 
  99   0.0000       1.437341        39.1120 
 100   0.0000       1.501242        40.8509 
 101   0.0000       1.644701        44.7546 
 102   0.0000       1.648794        44.8660 
 103   0.0000       1.667005        45.3615 
 104   0.0000       1.707218        46.4558 
 105   0.0000       1.711762        46.5794 
 106   0.0000       1.724056        46.9139 
 107   0.0000       1.741304        47.3833 
 108   0.0000       1.771488        48.2046 
 109   0.0000       1.796693        48.8905 
 110   0.0000       1.798914        48.9509 
 111   0.0000       1.803281        49.0698 
 112   0.0000       1.816911        49.4407 
 113   0.0000       1.838118        50.0177 
 114   0.0000       1.864838        50.7448 
 115   0.0000       1.884309        51.2747 
 116   0.0000       1.888679        51.3936 
 117   0.0000       1.902095        51.7586 
 118   0.0000       1.913614        52.0721 
 119   0.0000       1.942733        52.8645 
 120   0.0000       1.947407        52.9916 
 121   0.0000       1.969860        53.6026 
 122   0.0000       2.003486        54.5176 
 123   0.0000       2.027108        55.1604 
 124   0.0000       2.047229        55.7079 
 125   0.0000       2.066431        56.2304 
 126   0.0000       2.101035        57.1721 
 127   0.0000       2.137173        58.1554 
 128   0.0000       2.163152        58.8624 
 129   0.0000       2.166782        58.9611 
 130   0.0000       2.185275        59.4643 
 131   0.0000       2.193555        59.6897 
 132   0.0000       2.226617        60.5893 
 133   0.0000       2.247750        61.1644 
 134   0.0000       2.282326        62.1053 
 135   0.0000       2.327332        63.3299 
 136   0.0000       2.367953        64.4353 
 137   0.0000       2.396976        65.2250 
 138   0.0000       2.434743        66.2527 
 139   0.0000       2.466128        67.1068 
 140   0.0000       2.482813        67.5608 
 141   0.0000       2.532217        68.9051 
 142   0.0000       2.537826        69.0578 
 143   0.0000       2.571559        69.9757 
 144   0.0000       2.592634        70.5492 
 145   0.0000       2.608390        70.9779 
 146   0.0000       2.624300        71.4108 
 147   0.0000       2.630429        71.5776 
 148   0.0000       2.644820        71.9692 
 149   0.0000       2.668266        72.6072 
 150   0.0000       2.690773        73.2197 
 151   0.0000       2.712436        73.8091 
 152   0.0000       2.726483        74.1914 
 153   0.0000       2.744706        74.6873 
 154   0.0000       2.759468        75.0889 
 155   0.0000       2.776447        75.5510 
 156   0.0000       2.789237        75.8990 
 157   0.0000       2.799338        76.1739 
 158   0.0000       2.830545        77.0231 
 159   0.0000       2.852339        77.6161 
 160   0.0000       2.882731        78.4431 
 161   0.0000       2.891623        78.6851 
 162   0.0000       2.914243        79.3006 
 163   0.0000       2.938552        79.9621 
 164   0.0000       2.943720        80.1027 
 165   0.0000       2.979078        81.0648 
 166   0.0000       3.009145        81.8830 
 167   0.0000       3.046406        82.8969 
 168   0.0000       3.064145        83.3796 
 169   0.0000       3.107425        84.5573 
 170   0.0000       3.162545        86.0572 
 171   0.0000       3.195498        86.9539 
 172   0.0000       3.220797        87.6424 
 173   0.0000       3.259448        88.6941 
 174   0.0000       3.282895        89.3321 
 175   0.0000       3.291394        89.5634 
 176   0.0000       3.306038        89.9619 
 177   0.0000       3.340277        90.8936 
 178   0.0000       3.389673        92.2377 
 179   0.0000       3.403932        92.6257 
 180   0.0000       3.416526        92.9684 
 181   0.0000       3.423348        93.1540 
 182   0.0000       3.439579        93.5957 
 183   0.0000       3.461035        94.1795 
 184   0.0000       3.480454        94.7080 
 185   0.0000       3.507585        95.4462 
 186   0.0000       3.513770        95.6146 
 187   0.0000       3.543820        96.4322 
 188   0.0000       3.572405        97.2101 
 189   0.0000       3.592860        97.7667 
 190   0.0000       3.625580        98.6570 
 191   0.0000       3.651484        99.3619 
 192   0.0000       3.676874       100.0528 
 193   0.0000       3.724330       101.3442 
 194   0.0000       3.755288       102.1866 
 195   0.0000       3.774660       102.7137 
 196   0.0000       3.825641       104.1010 
 197   0.0000       3.849594       104.7528 
 198   0.0000       3.885095       105.7188 
 199   0.0000       3.923419       106.7617 
 200   0.0000       4.018225       109.3415 
 201   0.0000       4.074439       110.8711 
 202   0.0000       4.114690       111.9664 
 203   0.0000       4.139407       112.6390 
 204   0.0000       4.219258       114.8118 
 205   0.0000       4.239331       115.3581 
 206   0.0000       4.294645       116.8632 
 207   0.0000       4.336446       118.0007 
 208   0.0000       4.463324       121.4532 
 209   0.0000       4.513393       122.8157 
 210   0.0000       4.548219       123.7633 
 211   0.0000       4.617196       125.6403 
 212   0.0000       4.625427       125.8643 
 213   0.0000       4.676058       127.2420 
 214   0.0000       4.802054       130.6705 
 215   0.0000       4.839342       131.6852 
 216   0.0000       4.901750       133.3834 
 217   0.0000       5.054801       137.5481 
 218   0.0000       5.098076       138.7257 
 219   0.0000       5.392131       146.7273 
 220   0.0000       5.445909       148.1907 
 221   0.0000       5.451502       148.3429 
 222   0.0000       5.454889       148.4351 
 223   0.0000       5.457378       148.5028 
 224   0.0000       5.465684       148.7288 
 225   0.0000       5.468809       148.8139 
 226   0.0000       5.472894       148.9250 
 227   0.0000       5.488596       149.3523 
 228   0.0000       5.553122       151.1081 
 229   0.0000       5.603761       152.4861 
 230   0.0000       5.611249       152.6899 
 231   0.0000       5.635557       153.3513 
 232   0.0000       5.660821       154.0388 
 233   0.0000       5.763221       156.8252 
 234   0.0000       5.826154       158.5377 
 235   0.0000       5.876402       159.9050 
 236   0.0000       5.979529       162.7113 
 237   0.0000       6.004197       163.3825 
 238   0.0000       6.026931       164.0011 
 239   0.0000       6.192557       168.5080 
 240   0.0000       6.601403       179.6333 
 241   0.0000       6.609315       179.8486 
 242   0.0000       6.620601       180.1557 
 243   0.0000       6.716357       182.7614 
 244   0.0000       6.724461       182.9819 
 245   0.0000       6.777280       184.4192 
 246   0.0000       6.994888       190.3406 
 247   0.0000       7.023568       191.1210 
 248   0.0000       7.035996       191.4592 
 249   0.0000       7.058292       192.0659 
 250   0.0000       7.161652       194.8785 
 251   0.0000       7.174867       195.2381 
 252   0.0000       7.205916       196.0830 
 253   0.0000       7.258570       197.5157 
 254   0.0000       7.280422       198.1104 
 255   0.0000       9.684775       263.5361 
 256   0.0000       9.880684       268.8671 
 257   0.0000       9.985819       271.7279 
 258   0.0000      22.560142       613.8927 
 259   0.0000      22.663765       616.7124 
 260   0.0000      22.707736       617.9089 
 261   0.0000      23.137530       629.6042 
 262   0.0000      43.731710      1190.0003 
 263   0.0000      44.013256      1197.6616 
 264   0.0000      44.052082      1198.7181 

                    ********************************
                    * MULLIKEN POPULATION ANALYSIS *
                    ********************************

-----------------------
MULLIKEN ATOMIC CHARGES
-----------------------
   0 C :   -0.332372
   1 C :   -0.145133
   2 C :   -0.255293
   3 H :    0.081128
   4 H :    0.081005
   5 S :    0.864017
   6 O :   -0.559492
   7 O :   -0.564904
   8 O :   -0.598489
   9 H :    0.086466
  10 H :    0.046986
  11 H :    0.078129
  12 H :    0.060151
  13 H :    0.157801
Sum of atomic charges:   -1.0000000

--------------------------------
MULLIKEN REDUCED ORBITAL CHARGES
--------------------------------
  0 C s       :     3.226693  s :     3.226693
      pz      :     1.011528  p :     3.050316
      px      :     0.961337
      py      :     1.077451
      dz2     :     0.018565  d :     0.052307
      dxz     :     0.006963
      dyz     :     0.001995
      dx2y2   :     0.008856
      dxy     :     0.015927
      f0      :     0.000721  f :     0.003057
      f+1     :     0.000701
      f-1     :     0.000040
      f+2     :     0.000169
      f-2     :     0.000180
      f+3     :     0.000551
      f-3     :     0.000694
  1 C s       :     3.160961  s :     3.160961
      pz      :     1.016679  p :     2.877046
      px      :     0.909650
      py      :     0.950718
      dz2     :     0.027541  d :     0.101718
      dxz     :     0.018661
      dyz     :     0.003109
      dx2y2   :     0.032332
      dxy     :     0.020075
      f0      :     0.000732  f :     0.005408
      f+1     :     0.001047
      f-1     :     0.000240
      f+2     :     0.000437
      f-2     :     0.000631
      f+3     :     0.001278
      f-3     :     0.001043
  2 C s       :     3.179245  s :     3.179245
      pz      :     1.009660  p :     2.989733
      px      :     0.996982
      py      :     0.983091
      dz2     :     0.013458  d :     0.081906
      dxz     :     0.018572
      dyz     :     0.009060
      dx2y2   :     0.025546
      dxy     :     0.015270
      f0      :     0.000594  f :     0.004408
      f+1     :     0.000687
      f-1     :     0.000383
      f+2     :     0.000323
      f-2     :     0.000426
      f+3     :     0.001173
      f-3     :     0.000823
  3 H s       :     0.896768  s :     0.896768
      pz      :     0.012013  p :     0.022105
      px      :     0.005375
      py      :     0.004717
  4 H s       :     0.896646  s :     0.896646
      pz      :     0.007329  p :     0.022348
      px      :     0.009819
      py      :     0.005201
  5 S s       :     5.301019  s :     5.301019
      pz      :     2.830957  p :     8.580410
      px      :     2.786390
      py      :     2.963063
      dz2     :     0.251407  d :     1.131686
      dxz     :     0.258342
      dyz     :     0.180455
      dx2y2   :     0.251096
      dxy     :     0.190387
      f0      :     0.031057  f :     0.122868
      f+1     :     0.014584
      f-1     :     0.013292
      f+2     :     0.020224
      f-2     :     0.019315
      f+3     :     0.015410
      f-3     :     0.008986
  6 O s       :     3.798040  s :     3.798040
      pz      :     1.701838  p :     4.726618
      px      :     1.388088
      py      :     1.636692
      dz2     :     0.003577  d :     0.032798
      dxz     :     0.007926
      dyz     :     0.001828
      dx2y2   :     0.009723
      dxy     :     0.009745
      f0      :     0.000244  f :     0.002035
      f+1     :     0.000266
      f-1     :     0.000078
      f+2     :     0.000204
      f-2     :     0.000206
      f+3     :     0.000557
      f-3     :     0.000479
  7 O s       :     3.805757  s :     3.805757
      pz      :     1.459379  p :     4.725182
      px      :     1.580039
      py      :     1.685765
      dz2     :     0.009379  d :     0.031987
      dxz     :     0.009640
      dyz     :     0.006493
      dx2y2   :     0.003205
      dxy     :     0.003270
      f0      :     0.000441  f :     0.001978
      f+1     :     0.000525
      f-1     :     0.000226
      f+2     :     0.000330
      f-2     :     0.000329
      f+3     :     0.000065
      f-3     :     0.000062
  8 O s       :     3.817366  s :     3.817366
      pz      :     1.450612  p :     4.749107
      px      :     1.619180
      py      :     1.679315
      dz2     :     0.008713  d :     0.030183
      dxz     :     0.008761
      dyz     :     0.006669
      dx2y2   :     0.002929
      dxy     :     0.003111
      f0      :     0.000382  f :     0.001834
      f+1     :     0.000465
      f-1     :     0.000262
      f+2     :     0.000299
      f-2     :     0.000305
      f+3     :     0.000063
      f-3     :     0.000058
  9 H s       :     0.891667  s :     0.891667
      pz      :     0.013097  p :     0.021867
      px      :     0.004397
      py      :     0.004373
 10 H s       :     0.931820  s :     0.931820
      pz      :     0.004457  p :     0.021194
      px      :     0.004428
      py      :     0.012309
 11 H s       :     0.899850  s :     0.899850
      pz      :     0.012744  p :     0.022021
      px      :     0.004660
      py      :     0.004618
 12 H s       :     0.918213  s :     0.918213
      pz      :     0.005102  p :     0.021636
      px      :     0.009529
      py      :     0.007005
 13 H s       :     0.818899  s :     0.818899
      pz      :     0.004832  p :     0.023300
      px      :     0.004661
      py      :     0.013807


                     *******************************
                     * LOEWDIN POPULATION ANALYSIS *
                     *******************************

----------------------
LOEWDIN ATOMIC CHARGES
----------------------
   0 C :   -0.319791
   1 C :   -0.325275
   2 C :   -0.404537
   3 H :    0.118200
   4 H :    0.119054
   5 S :    0.414890
   6 O :   -0.371740
   7 O :   -0.377208
   8 O :   -0.425499
   9 H :    0.132372
  10 H :    0.114271
  11 H :    0.106738
  12 H :    0.095874
  13 H :    0.122651

-------------------------------
LOEWDIN REDUCED ORBITAL CHARGES
-------------------------------
  0 C s       :     2.821970  s :     2.821970
      pz      :     1.071639  p :     3.212590
      px      :     1.045329
      py      :     1.095622
      dz2     :     0.083670  d :     0.260367
      dxz     :     0.040447
      dyz     :     0.015974
      dx2y2   :     0.051387
      dxy     :     0.068889
      f0      :     0.003450  f :     0.024864
      f+1     :     0.004149
      f-1     :     0.001473
      f+2     :     0.004035
      f-2     :     0.004405
      f+3     :     0.003210
      f-3     :     0.004142
  1 C s       :     2.784125  s :     2.784125
      pz      :     1.041443  p :     3.091202
      px      :     1.032315
      py      :     1.017444
      dz2     :     0.107724  d :     0.411373
      dxz     :     0.075707
      dyz     :     0.021188
      dx2y2   :     0.121895
      dxy     :     0.084859
      f0      :     0.004484  f :     0.038575
      f+1     :     0.006090
      f-1     :     0.002682
      f+2     :     0.004853
      f-2     :     0.006402
      f+3     :     0.007588
      f-3     :     0.006477
  2 C s       :     2.846679  s :     2.846679
      pz      :     1.056785  p :     3.169872
      px      :     1.047035
      py      :     1.066051
      dz2     :     0.063721  d :     0.356793
      dxz     :     0.079811
      dyz     :     0.040721
      dx2y2   :     0.103784
      dxy     :     0.068756
      f0      :     0.003327  f :     0.031193
      f+1     :     0.003354
      f-1     :     0.003632
      f+2     :     0.003989
      f-2     :     0.004917
      f+3     :     0.006646
      f-3     :     0.005328
  3 H s       :     0.819970  s :     0.819970
      pz      :     0.032303  p :     0.061830
      px      :     0.014879
      py      :     0.014648
  4 H s       :     0.818769  s :     0.818769
      pz      :     0.021721  p :     0.062177
      px      :     0.024532
      py      :     0.015924
  5 S s       :     4.720505  s :     4.720505
      pz      :     2.866616  p :     8.613235
      px      :     2.863545
      py      :     2.883073
      dz2     :     0.425239  d :     1.877508
      dxz     :     0.460929
      dyz     :     0.270183
      dx2y2   :     0.420206
      dxy     :     0.300952
      f0      :     0.086316  f :     0.373863
      f+1     :     0.053701
      f-1     :     0.039058
      f+2     :     0.061198
      f-2     :     0.054847
      f+3     :     0.046884
      f-3     :     0.031859
  6 O s       :     3.549120  s :     3.549120
      pz      :     1.637124  p :     4.754819
      px      :     1.525262
      py      :     1.592433
      dz2     :     0.009820  d :     0.063344
      dxz     :     0.010813
      dyz     :     0.002154
      dx2y2   :     0.020477
      dxy     :     0.020080
      f0      :     0.000378  f :     0.004458
      f+1     :     0.000825
      f-1     :     0.000201
      f+2     :     0.000370
      f-2     :     0.000329
      f+3     :     0.000998
      f-3     :     0.001357
  7 O s       :     3.550348  s :     3.550348
      pz      :     1.556245  p :     4.759962
      px      :     1.592193
      py      :     1.611524
      dz2     :     0.017910  d :     0.062539
      dxz     :     0.025324
      dyz     :     0.008985
      dx2y2   :     0.005683
      dxy     :     0.004636
      f0      :     0.000777  f :     0.004359
      f+1     :     0.001607
      f-1     :     0.000389
      f+2     :     0.000787
      f-2     :     0.000545
      f+3     :     0.000146
      f-3     :     0.000110
  8 O s       :     3.575040  s :     3.575040
      pz      :     1.543156  p :     4.788339
      px      :     1.619625
      py      :     1.625558
      dz2     :     0.016334  d :     0.058167
      dxz     :     0.021017
      dyz     :     0.011199
      dx2y2   :     0.004491
      dxy     :     0.005125
      f0      :     0.000648  f :     0.003952
      f+1     :     0.001274
      f-1     :     0.000555
      f+2     :     0.000563
      f-2     :     0.000669
      f+3     :     0.000127
      f-3     :     0.000116
  9 H s       :     0.808027  s :     0.808027
      pz      :     0.032647  p :     0.059601
      px      :     0.013646
      py      :     0.013309
 10 H s       :     0.828043  s :     0.828043
      pz      :     0.014458  p :     0.057686
      px      :     0.013445
      py      :     0.029784
 11 H s       :     0.829194  s :     0.829194
      pz      :     0.034357  p :     0.064068
      px      :     0.014640
      py      :     0.015071
 12 H s       :     0.840571  s :     0.840571
      pz      :     0.016780  p :     0.063555
      px      :     0.024501
      py      :     0.022274
 13 H s       :     0.809192  s :     0.809192
      pz      :     0.015479  p :     0.068157
      px      :     0.014233
      py      :     0.038444


                      *****************************
                      * MAYER POPULATION ANALYSIS *
                      *****************************

  NA   - Mulliken gross atomic population
  ZA   - Total nuclear charge
  QA   - Mulliken gross atomic charge
  VA   - Mayer's total valence
  BVA  - Mayer's bonded valence
  FA   - Mayer's free valence

  ATOM       NA         ZA         QA         VA         BVA        FA
  0 C      6.3324     6.0000    -0.3324     3.9065     3.9065    -0.0000
  1 C      6.1451     6.0000    -0.1451     3.9074     3.9074    -0.0000
  2 C      6.2553     6.0000    -0.2553     3.8869     3.8869    -0.0000
  3 H      0.9189     1.0000     0.0811     0.9878     0.9878     0.0000
  4 H      0.9190     1.0000     0.0810     0.9846     0.9846     0.0000
  5 S     15.1360    16.0000     0.8640     6.2363     6.2363    -0.0000
  6 O      8.5595     8.0000    -0.5595     1.9102     1.9102    -0.0000
  7 O      8.5649     8.0000    -0.5649     1.8464     1.8464     0.0000
  8 O      8.5985     8.0000    -0.5985     1.8048     1.8048    -0.0000
  9 H      0.9135     1.0000     0.0865     0.9883     0.9883    -0.0000
 10 H      0.9530     1.0000     0.0470     0.9587     0.9587     0.0000
 11 H      0.9219     1.0000     0.0781     0.9787     0.9787     0.0000
 12 H      0.9398     1.0000     0.0602     0.9611     0.9611    -0.0000
 13 H      0.8422     1.0000     0.1578     1.0079     1.0079     0.0000

  Mayer bond orders larger than 0.100000
B(  0-C ,  1-C ) :   0.9858 B(  0-C , 11-H ) :   0.9780 B(  0-C , 12-H ) :   0.9727 
B(  0-C , 13-H ) :   0.9696 B(  1-C ,  2-C ) :   0.9832 B(  1-C ,  9-H ) :   0.9761 
B(  1-C , 10-H ) :   0.9645 B(  2-C ,  3-H ) :   0.9641 B(  2-C ,  4-H ) :   0.9594 
B(  2-C ,  5-S ) :   0.8869 B(  5-S ,  6-O ) :   1.8407 B(  5-S ,  7-O ) :   1.7450 
B(  5-S ,  8-O ) :   1.7235 

-------
TIMINGS
-------

Total SCF time: 0 days 0 hours 0 min 26 sec 

Total time                  ....      26.532 sec
Sum of individual times     ....      26.259 sec  ( 99.0%)

Fock matrix formation       ....      25.001 sec  ( 94.2%)
  Split-RI-J                ....       1.457 sec  (  5.8% of F)
  Chain of spheres X        ....      21.194 sec  ( 84.8% of F)
  XC integration            ....       2.166 sec  (  8.7% of F)
    Basis function eval.    ....       0.659 sec  ( 30.4% of XC)
    Density eval.           ....       0.531 sec  ( 24.5% of XC)
    XC-Functional eval.     ....       0.163 sec  (  7.5% of XC)
    XC-Potential eval.      ....       0.633 sec  ( 29.2% of XC)
Diagonalization             ....       0.139 sec  (  0.5%)
Density matrix formation    ....       0.011 sec  (  0.0%)
Population analysis         ....       0.017 sec  (  0.1%)
Initial guess               ....       0.142 sec  (  0.5%)
Orbital Transformation      ....       0.000 sec  (  0.0%)
Orbital Orthonormalization  ....       0.000 sec  (  0.0%)
DIIS solution               ....       0.081 sec  (  0.3%)
SOSCF solution              ....       0.066 sec  (  0.2%)
Grid generation             ....       0.802 sec  (  3.0%)

Maximum memory used throughout the entire SCF-calculation: 73.8 MB


-------------------------------------------------------------------------------
                          DFT DISPERSION CORRECTION                            
                                                                               
                              DFTD3 V3.1  Rev 1                                
                              USING zero damping                               
-------------------------------------------------------------------------------
The omegaB97X-D3 functional is recognized. Fit by Chai et al.
Active option DFTDOPT                   ...         3   

molecular C6(AA) [au] = 2189.475265 


            DFT-D V3
 parameters
 s6 scaling factor         :     1.0000 
 rs6 scaling factor        :     1.2810 
 s8 scaling factor         :     1.0000 
 rs8 scaling factor        :     1.0940 
 Damping factor alpha6     :    14.0000 
 Damping factor alpha8     :    16.0000 
 ad hoc parameters k1-k3   :    16.0000     1.3333    -4.0000 

 Edisp/kcal,au: -2.922037017990  -0.004656561896 
 E6   /kcal   :  -0.999840590 
 E8   /kcal   :  -1.922196428 
 % E8         :  65.782754169 

-------------------------   ----------------
Dispersion correction           -0.004656562
-------------------------   ----------------


-------------------------   --------------------
FINAL SINGLE POINT ENERGY      -742.535816350589
-------------------------   --------------------


                            ***************************************
                            *     ORCA property calculations      *
                            ***************************************

                                    ---------------------
                                    Active property flags
                                    ---------------------
   (+) Dipole Moment


------------------------------------------------------------------------------
                       ORCA ELECTRIC PROPERTIES CALCULATION
------------------------------------------------------------------------------

Dipole Moment Calculation                       ... on
Quadrupole Moment Calculation                   ... off
Polarizability Calculation                      ... off
GBWName                                         ... A_neg.gbw
Electron density file                           ... A_neg.scfp
The origin for moment calculation is the CENTER OF MASS  = ( 2.784853,  1.339503 -8.556466)

-------------
DIPOLE MOMENT
-------------
                                X             Y             Z
Electronic contribution:      4.90495      -9.14657       1.04541
Nuclear contribution   :     -5.21326      11.14780      -1.06438
                        -----------------------------------------
Total Dipole Moment    :     -0.30831       2.00123      -0.01896
                        -----------------------------------------
Magnitude (a.u.)       :      2.02493
Magnitude (Debye)      :      5.14697



--------------------
Rotational spectrum 
--------------------
 
Rotational constants in cm-1:     0.135673     0.057896     0.054396 
Rotational constants in MHz :  4067.361083  1735.682437  1630.763840 

 Dipole components along the rotational axes: 
x,y,z [a.u.] :     1.770504     0.948454    -0.257107 
x,y,z [Debye]:     4.500265     2.410778    -0.653513 

 

Timings for individual modules:

Sum of individual times         ...       27.547 sec (=   0.459 min)
GTO integral calculation        ...        0.643 sec (=   0.011 min)   2.3 %
SCF iterations                  ...       26.904 sec (=   0.448 min)  97.7 %
                             ****ORCA TERMINATED NORMALLY****
TOTAL RUN TIME: 0 days 0 hours 0 minutes 28 seconds 104 msec
