
                                        *****************
                                        * O   R   C   A *
                                        *****************

                                            #,                                       
                                            ###                                      
                                            ####                                     
                                            #####                                    
                                            ######                                   
                                           ########,                                 
                                     ,,################,,,,,                         
                               ,,#################################,,                 
                          ,,##########################################,,             
                       ,#########################################, ''#####,          
                    ,#############################################,,   '####,        
                  ,##################################################,,,,####,       
                ,###########''''           ''''###############################       
              ,#####''   ,,,,##########,,,,          '''####'''          '####       
            ,##' ,,,,###########################,,,                        '##       
           ' ,,###''''                  '''############,,,                           
         ,,##''                                '''############,,,,        ,,,,,,###''
      ,#''                                            '''#######################'''  
     '                                                          ''''####''''         
             ,#######,   #######,   ,#######,      ##                                
            ,#'     '#,  ##    ##  ,#'     '#,    #''#        ######   ,####,        
            ##       ##  ##   ,#'  ##            #'  '#       #        #'  '#        
            ##       ##  #######   ##           ,######,      #####,   #    #        
            '#,     ,#'  ##    ##  '#,     ,#' ,#      #,         ##   #,  ,#        
             '#######'   ##     ##  '#######'  #'      '#     #####' # '####'        



                  #######################################################
                  #                        -***-                        #
                  #          Department of theory and spectroscopy      #
                  #    Directorship and core code : Frank Neese         #
                  #        Max Planck Institute fuer Kohlenforschung    #
                  #                Kaiser Wilhelm Platz 1               #
                  #                 D-45470 Muelheim/Ruhr               #
                  #                      Germany                        #
                  #                                                     #
                  #                  All rights reserved                #
                  #                        -***-                        #
                  #######################################################


                         Program Version 5.0.0 -  RELEASE  -
                                (SVN: $Rev: 19529$)
                ($Date: 2021-06-28 11:36:33 +0200 (Mo, 28 Jun 2021) $)


 With contributions from (in alphabetic order):
   Daniel Aravena         : Magnetic Suceptibility
   Michael Atanasov       : Ab Initio Ligand Field Theory (pilot matlab implementation)
   Alexander A. Auer      : GIAO ZORA, VPT2 properties, NMR spectrum
   Ute Becker             : Parallelization
   Giovanni Bistoni       : ED, misc. LED, open-shell LED, HFLD
   Martin Brehm           : Molecular dynamics
   Dmytro Bykov           : SCF Hessian
   Vijay G. Chilkuri      : MRCI spin determinant printing, contributions to CSF-ICE
   Dipayan Datta          : RHF DLPNO-CCSD density
   Achintya Kumar Dutta   : EOM-CC, STEOM-CC
   Dmitry Ganyushin       : Spin-Orbit,Spin-Spin,Magnetic field MRCI
   Miquel Garcia          : C-PCM Hessian, Gaussian charge scheme
   Yang Guo               : DLPNO-NEVPT2, F12-NEVPT2, CIM, IAO-localization
   Andreas Hansen         : Spin unrestricted coupled pair/coupled cluster methods
   Benjamin Helmich-Paris : MC-RPA, TRAH-SCF, COSX integrals
   Lee Huntington         : MR-EOM, pCC
   Robert Izsak           : Overlap fitted RIJCOSX, COSX-SCS-MP3, EOM
   Marcus Kettner         : VPT2
   Christian Kollmar      : KDIIS, OOCD, Brueckner-CCSD(T), CCSD density, CASPT2, CASPT2-K
   Simone Kossmann        : Meta GGA functionals, TD-DFT gradient, OOMP2, MP2 Hessian
   Martin Krupicka        : Initial AUTO-CI
   Lucas Lang             : DCDCAS
   Marvin Lechner         : AUTO-CI (C++ implementation), FIC-MRCC
   Dagmar Lenk            : GEPOL surface, SMD
   Dimitrios Liakos       : Extrapolation schemes; Compound Job, initial MDCI parallelization
   Dimitrios Manganas     : Further ROCIS development; embedding schemes
   Dimitrios Pantazis     : SARC Basis sets
   Anastasios Papadopoulos: AUTO-CI, single reference methods and gradients
   Taras Petrenko         : DFT Hessian,TD-DFT gradient, ASA, ECA, R-Raman, ABS, FL, XAS/XES, NRVS
   Peter Pinski           : DLPNO-MP2, DLPNO-MP2 Gradient
   Christoph Reimann      : Effective Core Potentials
   Marius Retegan         : Local ZFS, SOC
   Christoph Riplinger    : Optimizer, TS searches, QM/MM, DLPNO-CCSD(T), (RO)-DLPNO pert. Triples
   Tobias Risthaus        : Range-separated hybrids, TD-DFT gradient, RPA, STAB
   Michael Roemelt        : Original ROCIS implementation
   Masaaki Saitow         : Open-shell DLPNO-CCSD energy and density
   Barbara Sandhoefer     : DKH picture change effects
   Avijit Sen             : IP-ROCIS
   Kantharuban Sivalingam : CASSCF convergence, NEVPT2, FIC-MRCI
   Bernardo de Souza      : ESD, SOC TD-DFT
   Georgi Stoychev        : AutoAux, RI-MP2 NMR
   Willem Van den Heuvel  : Paramagnetic NMR
   Boris Wezisla          : Elementary symmetry handling
   Frank Wennmohs         : Technical directorship


 We gratefully acknowledge several colleagues who have allowed us to
 interface, adapt or use parts of their codes:
   Stefan Grimme, W. Hujo, H. Kruse, P. Pracht,  : VdW corrections, initial TS optimization,
                  C. Bannwarth, S. Ehlert          DFT functionals, gCP, sTDA/sTD-DF
   Ed Valeev, F. Pavosevic, A. Kumar             : LibInt (2-el integral package), F12 methods
   Garnet Chan, S. Sharma, J. Yang, R. Olivares  : DMRG
   Ulf Ekstrom                                   : XCFun DFT Library
   Mihaly Kallay                                 : mrcc  (arbitrary order and MRCC methods)
   Jiri Pittner, Ondrej Demel                    : Mk-CCSD
   Frank Weinhold                                : gennbo (NPA and NBO analysis)
   Christopher J. Cramer and Donald G. Truhlar   : smd solvation model
   Lars Goerigk                                  : TD-DFT with DH, B97 family of functionals
   V. Asgeirsson, H. Jonsson                     : NEB implementation
   FAccTs GmbH                                   : IRC, NEB, NEB-TS, DLPNO-Multilevel, CI-OPT
                                                   MM, QMMM, 2- and 3-layer-ONIOM, Crystal-QMMM,
                                                   LR-CPCM, SF, NACMEs, symmetry and pop. for TD-DFT,
                                                   nearIR, NL-DFT gradient (VV10), updates on ESD,
                                                   ML-optimized integration grids
   S Lehtola, MJT Oliveira, MAL Marques          : LibXC Library
   Liviu Ungur et al                             : ANISO software


 Your calculation uses the libint2 library for the computation of 2-el integrals
 For citations please refer to: http://libint.valeyev.net

 Your ORCA version has been built with support for libXC version: 5.1.0
 For citations please refer to: https://tddft.org/programs/libxc/

 This ORCA versions uses:
   CBLAS   interface :  Fast vector & matrix operations
   LAPACKE interface :  Fast linear algebra routines
   SCALAPACK package :  Parallel linear algebra routines
   Shared memory     :  Shared parallel matrices
   BLAS/LAPACK       :  OpenBLAS 0.3.15  USE64BITINT DYNAMIC_ARCH NO_AFFINITY Haswell SINGLE_THREADED
        Core in use  :  Haswell
   Copyright (c) 2011-2014, The OpenBLAS Project


XCFun DFT library Copyright 2009-2010 Ulf Ekstrom and contributors.
See http://admol.org/xcfun for more information.
This is free software; see the source code for copying conditions.
There is ABSOLUTELY NO WARRANTY; not even for MERCHANTABILITY or FITNESS FOR A PARTICULAR PURPOSE.
For details see the documentation.
Scientific users of this library should cite U. Ekstrom, L. Visscher, R. Bast, A. J. Thorvaldsen and K. Ruud;
J.Chem.Theor.Comp. 2010, DOI: 10.1021/ct100117s
XCFun Version 0.99 

================================================================================

----- Orbital basis set information -----
Your calculation utilizes the basis: def2-SVPD
   F. Weigend and R. Ahlrichs, Phys. Chem. Chem. Phys. 7, 3297 (2005).
   D. Rappoport and F. Furche, J. Chem. Phys. 133 134105 (2010).

----- AuxJ basis set information -----
Your calculation utilizes the auxiliary basis: def2/J
   F. Weigend, Phys. Chem. Chem. Phys. 8, 1057 (2006).

================================================================================
                                        WARNINGS
                       Please study these warnings very carefully!
================================================================================


INFO   : the flag for use of the SHARK integral package has been found!

================================================================================
                                       INPUT FILE
================================================================================
NAME = 14Feb_SVPD_CAMB3LYP_A_wt_wb97_typ1_pos.com
|  1> !CAM-B3LYP RIJCOSX def2-SVPD def2/J TightSCF 
|  2> *xyz 1 1
|  3> C          1.96337       -1.74915       -1.89689
|  4> N          2.73849       -2.01517       -3.09711
|  5> C          4.04974       -2.15472       -3.15204
|  6> N          4.65821       -1.98629       -4.31866
|  7> N          4.76423       -2.45444       -2.05049
|  8> H          4.28736       -2.77626       -1.21750
|  9> H          5.75082       -2.65835       -2.12599
| 10> H          2.34518       -1.69027       -3.97145
| 11> H          4.10900       -1.59268       -5.07176
| 12> H          5.64910       -2.15646       -4.42724
| 13> C          2.08852       -0.30091       -1.41520
| 14> H          2.23127       -2.45162       -1.10264
| 15> H          0.93025       -1.97780       -2.15544
| 16> C          1.96899        0.73358       -2.53565
| 17> H          3.05136       -0.16860       -0.91187
| 18> H          1.31650       -0.13623       -0.65725
| 19> H          2.73046        0.55745       -3.26643
| 20> H          2.08619        1.71595       -2.12808
| 21> H          1.00672        0.65098       -2.99620
| 22> *
| 23> %MaxCore 64000
| 24> 
| 25> %pal nprocs 8
| 26> end  
| 27> 
| 28> %scf
| 29>   MaxIter 150
| 30> end
| 31> 
| 32> 
| 33>                          ****END OF INPUT****
================================================================================

                       ****************************
                       * Single Point Calculation *
                       ****************************

---------------------------------
CARTESIAN COORDINATES (ANGSTROEM)
---------------------------------
  C      1.963370   -1.749150   -1.896890
  N      2.738490   -2.015170   -3.097110
  C      4.049740   -2.154720   -3.152040
  N      4.658210   -1.986290   -4.318660
  N      4.764230   -2.454440   -2.050490
  H      4.287360   -2.776260   -1.217500
  H      5.750820   -2.658350   -2.125990
  H      2.345180   -1.690270   -3.971450
  H      4.109000   -1.592680   -5.071760
  H      5.649100   -2.156460   -4.427240
  C      2.088520   -0.300910   -1.415200
  H      2.231270   -2.451620   -1.102640
  H      0.930250   -1.977800   -2.155440
  C      1.968990    0.733580   -2.535650
  H      3.051360   -0.168600   -0.911870
  H      1.316500   -0.136230   -0.657250
  H      2.730460    0.557450   -3.266430
  H      2.086190    1.715950   -2.128080
  H      1.006720    0.650980   -2.996200

----------------------------
CARTESIAN COORDINATES (A.U.)
----------------------------
  NO LB      ZA    FRAG     MASS         X           Y           Z
   0 C     6.0000    0    12.011    3.710232   -3.305414   -3.584603
   1 N     7.0000    0    14.007    5.174996   -3.808119   -5.852690
   2 C     6.0000    0    12.011    7.652900   -4.071831   -5.956492
   3 N     7.0000    0    14.007    8.802741   -3.753544   -8.161085
   4 N     7.0000    0    14.007    9.003090   -4.638219   -3.874865
   5 H     1.0000    0     1.008    8.101936   -5.246371   -2.300742
   6 H     1.0000    0     1.008   10.867475   -5.023553   -4.017539
   7 H     1.0000    0     1.008    4.431748   -3.194147   -7.504953
   8 H     1.0000    0     1.008    7.764885   -3.009729   -9.584237
   9 H     1.0000    0     1.008   10.675252   -4.075119   -8.366271
  10 C     6.0000    0    12.011    3.946731   -0.568637   -2.674340
  11 H     1.0000    0     1.008    4.216489   -4.632890   -2.083688
  12 H     1.0000    0     1.008    1.757918   -3.737500   -4.073191
  13 C     6.0000    0    12.011    3.720852    1.386265   -4.791684
  14 H     1.0000    0     1.008    5.766235   -0.318608   -1.723185
  15 H     1.0000    0     1.008    2.487824   -0.257437   -1.242023
  16 H     1.0000    0     1.008    5.159822    1.053428   -6.172658
  17 H     1.0000    0     1.008    3.942328    3.242676   -4.021488
  18 H     1.0000    0     1.008    1.902425    1.230174   -5.661997

--------------------------------
INTERNAL COORDINATES (ANGSTROEM)
--------------------------------
 C      0   0   0     0.000000000000     0.00000000     0.00000000
 N      1   0   0     1.453308536822     0.00000000     0.00000000
 C      2   1   0     1.319798495945   125.70558414     0.00000000
 N      3   2   1     1.326501651036   118.61421616   200.38175597
 N      3   2   1     1.346751811211   121.10321023    20.01727886
 H      5   3   2     1.012346506588   119.59453702    13.56866466
 H      5   3   2     1.010266977685   120.12495650   173.22985716
 H      2   1   3     1.012286126399   116.57303880   207.34688220
 H      4   3   2     1.011790524862   117.06612917    10.99918763
 H      4   3   2     1.011242027113   121.50248980   185.08027543
 C      1   2   3     1.531367648933   112.91044782    74.86377029
 H      1   2   3     1.093648743153   110.58185151   309.76306189
 H      1   2   3     1.089250136286   105.74830411   195.84517559
 C     11   1   2     1.529661787292   113.75259684    44.99004915
 H     11   1   2     1.094489785517   109.32177231   283.03708796
 H     11   1   2     1.094359440632   107.60872258   167.76513934
 H     14  11   1     1.069998946822   109.47123491   301.16694694
 H     14  11   1     1.069999982150   109.47128959   181.16744222
 H     14  11   1     1.069996549247   109.47184795    61.16727111

---------------------------
INTERNAL COORDINATES (A.U.)
---------------------------
 C      0   0   0     0.000000000000     0.00000000     0.00000000
 N      1   0   0     2.746355122684     0.00000000     0.00000000
 C      2   1   0     2.494057709298   125.70558414     0.00000000
 N      3   2   1     2.506724836652   118.61421616   200.38175597
 N      3   2   1     2.544992093551   121.10321023    20.01727886
 H      5   3   2     1.913057650082   119.59453702    13.56866466
 H      5   3   2     1.909127909968   120.12495650   173.22985716
 H      2   1   3     1.912943548062   116.57303880   207.34688220
 H      4   3   2     1.912006996885   117.06612917    10.99918763
 H      4   3   2     1.910970486355   121.50248980   185.08027543
 C      1   2   3     2.893865466831   112.91044782    74.86377029
 H      1   2   3     2.066696611266   110.58185151   309.76306189
 H      1   2   3     2.058384448918   105.74830411   195.84517559
 C     11   1   2     2.890641855506   113.75259684    44.99004915
 H     11   1   2     2.068285951000   109.32177231   283.03708796
 H     11   1   2     2.068039634865   107.60872258   167.76513934
 H     14  11   1     2.022004973078   109.47123491   301.16694694
 H     14  11   1     2.022006929563   109.47128959   181.16744222
 H     14  11   1     2.022000442317   109.47184795    61.16727111

---------------------
BASIS SET INFORMATION
---------------------
There are 3 groups of distinct atoms

 Group   1 Type C   : 8s4p2d contracted to 4s2p2d pattern {5111/31/11}
 Group   2 Type N   : 8s4p2d contracted to 4s2p2d pattern {5111/31/11}
 Group   3 Type H   : 4s2p contracted to 2s2p pattern {31/11}

Atom   0C    basis set group =>   1
Atom   1N    basis set group =>   2
Atom   2C    basis set group =>   1
Atom   3N    basis set group =>   2
Atom   4N    basis set group =>   2
Atom   5H    basis set group =>   3
Atom   6H    basis set group =>   3
Atom   7H    basis set group =>   3
Atom   8H    basis set group =>   3
Atom   9H    basis set group =>   3
Atom  10C    basis set group =>   1
Atom  11H    basis set group =>   3
Atom  12H    basis set group =>   3
Atom  13C    basis set group =>   1
Atom  14H    basis set group =>   3
Atom  15H    basis set group =>   3
Atom  16H    basis set group =>   3
Atom  17H    basis set group =>   3
Atom  18H    basis set group =>   3
---------------------------------
AUXILIARY/J BASIS SET INFORMATION
---------------------------------
There are 3 groups of distinct atoms

 Group   1 Type C   : 12s5p4d2f1g contracted to 6s4p3d1f1g pattern {711111/2111/211/2/1}
 Group   2 Type N   : 12s5p4d2f1g contracted to 6s4p3d1f1g pattern {711111/2111/211/2/1}
 Group   3 Type H   : 5s2p1d contracted to 3s1p1d pattern {311/2/1}

Atom   0C    basis set group =>   1
Atom   1N    basis set group =>   2
Atom   2C    basis set group =>   1
Atom   3N    basis set group =>   2
Atom   4N    basis set group =>   2
Atom   5H    basis set group =>   3
Atom   6H    basis set group =>   3
Atom   7H    basis set group =>   3
Atom   8H    basis set group =>   3
Atom   9H    basis set group =>   3
Atom  10C    basis set group =>   1
Atom  11H    basis set group =>   3
Atom  12H    basis set group =>   3
Atom  13C    basis set group =>   1
Atom  14H    basis set group =>   3
Atom  15H    basis set group =>   3
Atom  16H    basis set group =>   3
Atom  17H    basis set group =>   3
Atom  18H    basis set group =>   3


           ************************************************************
           *        Program running with 8 parallel MPI-processes     *
           *              working on a common directory               *
           ************************************************************
------------------------------------------------------------------------------
                           ORCA GTO INTEGRAL CALCULATION
                           -- RI-GTO INTEGRALS CHOSEN --
------------------------------------------------------------------------------
------------------------------------------------------------------------------
                   ___                                                        
                  /   \      - P O W E R E D   B Y -                         
                 /     \                                                     
                 |  |  |   _    _      __       _____    __    __             
                 |  |  |  | |  | |    /  \     |  _  \  |  |  /  |          
                  \  \/   | |  | |   /    \    | | | |  |  | /  /          
                 / \  \   | |__| |  /  /\  \   | |_| |  |  |/  /          
                |  |  |   |  __  | /  /__\  \  |    /   |      \           
                |  |  |   | |  | | |   __   |  |    \   |  |\   \          
                \     /   | |  | | |  |  |  |  | |\  \  |  | \   \       
                 \___/    |_|  |_| |__|  |__|  |_| \__\ |__|  \__/        
                                                                              
                      - O R C A' S   B I G   F R I E N D -                    
                                      &                                       
                       - I N T E G R A L  F E E D E R -                       
                                                                              
 v1 FN, 2020, v2 2021                                                         
------------------------------------------------------------------------------


Reading SHARK input file 14Feb_SVPD_CAMB3LYP_A_wt_wb97_typ1_pos.SHARKINP.tmp ... ok
----------------------
SHARK INTEGRAL PACKAGE
----------------------

Number of atoms                             ...     19
Number of basis functions                   ...    236
Number of shells                            ...    104
Maximum angular momentum                    ...      2
Integral batch strategy                     ... SHARK/LIBINT Hybrid
RI-J (if used) integral strategy            ... SPLIT-RIJ (Revised 2003 algorithm where possible)
Printlevel                                  ...      1
Contraction scheme used                     ... SEGMENTED contraction
Coulomb Range Separation                    ... NOT USED
Exchange Range Separation                   ... Long Range
   Mu parameter                             ...  0.330000
   Scaling (regular/separated)              ...  0.190000  0.460000
Finite Nucleus Model                        ... NOT USED
Auxiliary Coulomb fitting basis             ... AVAILABLE
   # of basis functions in Aux-J            ...    475
   # of shells in Aux-J                     ...    165
   Maximum angular momentum in Aux-J        ...      4
Auxiliary J/K fitting basis                 ... NOT available
Auxiliary Correlation fitting basis         ... NOT available
Auxiliary 'external' fitting basis          ... NOT available
Integral threshold                          ...     2.500000e-11
Primitive cut-off                           ...     2.500000e-12
Primitive pair pre-selection threshold      ...     2.500000e-12

Calculating pre-screening integrals         ... done (  0.0 sec) Dimension = 104
Organizing shell pair data                  ... done (  0.0 sec)
Shell pair information
Total number of shell pairs                 ...      5460
Shell pairs after pre-screening             ...      5326
Total number of primitive shell pairs       ...     14662
Primitive shell pairs kept                  ...     11702
          la=0 lb=0:   1341 shell pairs
          la=1 lb=0:   1920 shell pairs
          la=1 lb=1:    721 shell pairs
          la=2 lb=0:    715 shell pairs
          la=2 lb=1:    524 shell pairs
          la=2 lb=2:    105 shell pairs

Calculating one electron integrals          ... done (  0.0 sec)
Calculating RI/J V-Matrix + Cholesky decomp.... done (  0.0 sec)
Calculating Nuclear repulsion               ... done (  0.0 sec) ENN=    334.070010164456 Eh

SHARK setup successfully completed in   0.2 seconds

Maximum memory used throughout the entire GTOINT-calculation: 10.5 MB


           ************************************************************
           *        Program running with 8 parallel MPI-processes     *
           *              working on a common directory               *
           ************************************************************
-------------------------------------------------------------------------------
                                 ORCA SCF
-------------------------------------------------------------------------------

------------
SCF SETTINGS
------------
Hamiltonian:
 Density Functional     Method          .... DFT(GTOs)
 Exchange Functional    Exchange        .... WB88
 Correlation Functional Correlation     .... LYP
 LDA part of GGA corr.  LDAOpt          .... VWN-5
 Gradients option       PostSCFGGA      .... off
 Hybrid DFT is turned on
   Fraction HF Exchange ScalHFX         ....  0.190000
   Scaling of DF-GGA-X  ScalDFX         ....  0.350000
   Scaling of DF-GGA-C  ScalDFC         ....  0.810000
   Scaling of DF-LDA-C  ScalLDAC        ....  1.000000
   Perturbative correction              ....  0.000000
   Density functional embedding theory  .... OFF
 Long-range corrected/Screened/Range-Separated Hybrid DFT is turned on
   Amount of maximum screened exact exchange              ....  0.460000
   Range separation parameter mu (erf(mu*r12)/r12)        ....  0.330000
 RI-approximation to the Coulomb term is turned on
   Number of AuxJ basis functions       .... 475
   RIJ-COSX (HFX calculated with COS-X)).... on


General Settings:
 Integral files         IntName         .... 14Feb_SVPD_CAMB3LYP_A_wt_wb97_typ1_pos
 Hartree-Fock type      HFTyp           .... RHF
 Total Charge           Charge          ....    1
 Multiplicity           Mult            ....    1
 Number of Electrons    NEL             ....   56
 Basis Dimension        Dim             ....  236
 Nuclear Repulsion      ENuc            ....    334.0700101645 Eh

Convergence Acceleration:
 DIIS                   CNVDIIS         .... on
   Start iteration      DIISMaxIt       ....    12
   Startup error        DIISStart       ....  0.200000
   # of expansion vecs  DIISMaxEq       ....     5
   Bias factor          DIISBfac        ....   1.050
   Max. coefficient     DIISMaxC        ....  10.000
 Trust-Rad. Augm. Hess. CNVTRAH         .... auto
   Auto Start mean grad. ratio tolernc. ....  1.125000
   Auto Start start iteration           ....    20
   Auto Start num. interpolation iter.  ....    10
   Max. Number of Micro iterations      ....    16
   Max. Number of Macro iterations      .... Maxiter - #DIIS iter
   Number of Davidson start vectors     ....     2
   Converg. threshold I  (grad. norm)   ....   1.000e-05
   Converg. threshold II (energy diff.) ....   1.000e-08
   Grad. Scal. Fac. for Micro threshold ....   0.100
   Minimum threshold for Micro iter.    ....   0.010
   NR start threshold (gradient norm)   ....   0.001
   Initial trust radius                 ....   0.400
   Minimum AH scaling param. (alpha)    ....   1.000
   Maximum AH scaling param. (alpha)    .... 1000.000
   Orbital update algorithm             .... Taylor
   White noise on init. David. guess    .... on
   Maximum white noise                  ....   0.010
   Quad. conv. algorithm                .... NR
 SOSCF                  CNVSOSCF        .... on
   Start iteration      SOSCFMaxIt      ....   150
   Startup grad/error   SOSCFStart      ....  0.003300
 Level Shifting         CNVShift        .... on
   Level shift para.    LevelShift      ....    0.2500
   Turn off err/grad.   ShiftErr        ....    0.0010
 Zerner damping         CNVZerner       .... off
 Static damping         CNVDamp         .... on
   Fraction old density DampFac         ....    0.7000
   Max. Damping (<1)    DampMax         ....    0.9800
   Min. Damping (>=0)   DampMin         ....    0.0000
   Turn off err/grad.   DampErr         ....    0.1000
 Fernandez-Rico         CNVRico         .... off

SCF Procedure:
 Maximum # iterations   MaxIter         ....   150
 SCF integral mode      SCFMode         .... Direct
   Integral package                     .... SHARK and LIBINT hybrid scheme
 Reset frequency        DirectResetFreq ....    20
 Integral Threshold     Thresh          ....  2.500e-11 Eh
 Primitive CutOff       TCut            ....  2.500e-12 Eh

Convergence Tolerance:
 Convergence Check Mode ConvCheckMode   .... Total+1el-Energy
 Convergence forced     ConvForced      .... 0
 Energy Change          TolE            ....  1.000e-08 Eh
 1-El. energy change                    ....  1.000e-05 Eh
 Orbital Gradient       TolG            ....  1.000e-05
 Orbital Rotation angle TolX            ....  1.000e-05
 DIIS Error             TolErr          ....  5.000e-07


Diagonalization of the overlap matrix:
Smallest eigenvalue                        ... 5.716e-05
Time for diagonalization                   ...    0.015 sec
Threshold for overlap eigenvalues          ... 1.000e-08
Number of eigenvalues below threshold      ... 0
Time for construction of square roots      ...    0.011 sec
Total time needed                          ...    0.027 sec

Time for model grid setup =    0.084 sec

------------------------------
INITIAL GUESS: MODEL POTENTIAL
------------------------------
Loading Hartree-Fock densities                     ... done
Calculating cut-offs                               ... done
Initializing the effective Hamiltonian             ... done
Setting up the integral package (SHARK)            ... done
Starting the Coulomb interaction                   ... done (   0.0 sec)
Reading the grid                                   ... done
Mapping shells                                     ... done
Starting the XC term evaluation                    ... done (   0.1 sec)
  promolecular density results
     # of electrons  =     56.994002928
     EX              =    -43.720719768
     EC              =     -1.883335184
     EX+EC           =    -45.604054953
Transforming the Hamiltonian                       ... done (   0.0 sec)
Diagonalizing the Hamiltonian                      ... done (   0.0 sec)
Back transforming the eigenvectors                 ... done (   0.0 sec)
Now organizing SCF variables                       ... done
                      ------------------
                      INITIAL GUESS DONE (   0.2 sec)
                      ------------------
-------------------
DFT GRID GENERATION
-------------------

General Integration Accuracy     IntAcc      ... 4.388
Radial Grid Type                 RadialGrid  ... OptM3 with GC (2021)
Angular Grid (max. ang.)         AngularGrid ... 4 (Lebedev-302)
Angular grid pruning method      GridPruning ... 4 (adaptive)
Weight generation scheme         WeightScheme... Becke
Basis function cutoff            BFCut       ... 1.0000e-11
Integration weight cutoff        WCut        ... 1.0000e-14
Angular grids for H and He will be reduced by one unit
Partially contracted basis set               ... off
Rotationally invariant grid construction     ... off

Total number of grid points                  ...    82777
Total number of batches                      ...     1302
Average number of points per batch           ...       63
Average number of grid points per atom       ...     4357
Time for grid setup =    0.445 sec

--------------------
COSX GRID GENERATION
--------------------

GRIDX 1
-------
General Integration Accuracy     IntAcc      ... 3.816
Radial Grid Type                 RadialGrid  ... OptM3 with GC (2021)
Angular Grid (max. ang.)         AngularGrid ... 1 (Lebedev-50)
Angular grid pruning method      GridPruning ... 4 (adaptive)
Weight generation scheme         WeightScheme... Becke
Basis function cutoff            BFCut       ... 1.0000e-11
Integration weight cutoff        WCut        ... 1.0000e-14
Angular grids for H and He will be reduced by one unit
Partially contracted basis set               ... on
Rotationally invariant grid construction     ... off

Total number of grid points                  ...    10355
Total number of batches                      ...      175
Average number of points per batch           ...       59
Average number of grid points per atom       ...      545
UseSFitting                                  ... on

GRIDX 2
-------
General Integration Accuracy     IntAcc      ... 4.020
Radial Grid Type                 RadialGrid  ... OptM3 with GC (2021)
Angular Grid (max. ang.)         AngularGrid ... 2 (Lebedev-110)
Angular grid pruning method      GridPruning ... 4 (adaptive)
Weight generation scheme         WeightScheme... Becke
Basis function cutoff            BFCut       ... 1.0000e-11
Integration weight cutoff        WCut        ... 1.0000e-14
Angular grids for H and He will be reduced by one unit
Partially contracted basis set               ... on
Rotationally invariant grid construction     ... off

Total number of grid points                  ...    22533
Total number of batches                      ...      360
Average number of points per batch           ...       62
Average number of grid points per atom       ...     1186
UseSFitting                                  ... on

GRIDX 3
-------
General Integration Accuracy     IntAcc      ... 4.338
Radial Grid Type                 RadialGrid  ... OptM3 with GC (2021)
Angular Grid (max. ang.)         AngularGrid ... 3 (Lebedev-194)
Angular grid pruning method      GridPruning ... 4 (adaptive)
Weight generation scheme         WeightScheme... Becke
Basis function cutoff            BFCut       ... 1.0000e-11
Integration weight cutoff        WCut        ... 1.0000e-14
Angular grids for H and He will be reduced by one unit
Partially contracted basis set               ... on
Rotationally invariant grid construction     ... off

Total number of grid points                  ...    51363
Total number of batches                      ...      812
Average number of points per batch           ...       63
Average number of grid points per atom       ...     2703
UseSFitting                                  ... on

Time for X-Grid setup             =    0.406 sec

--------------
SCF ITERATIONS
--------------
ITER       Energy         Delta-E        Max-DP      RMS-DP      [F,P]     Damp
               ***  Starting incremental Fock matrix formation  ***
  0   -323.1278803915   0.000000000000 0.08527935  0.00186580  0.1746250 0.7000
  1   -323.2146166524  -0.086736260886 0.04929032  0.00124002  0.0961146 0.7000
                               ***Turning on DIIS***
  2   -323.2546970303  -0.040080377904 0.07726837  0.00232968  0.0445516 0.0000
  3   -323.3154758780  -0.060778847673 0.04983024  0.00095241  0.0442090 0.0000
  4   -323.3279188791  -0.012443001110 0.00645584  0.00017930  0.0067344 0.0000
                      *** Initiating the SOSCF procedure ***
                           *** Shutting down DIIS ***
                      *** Re-Reading the Fockian *** 
                      *** Removing any level shift *** 
ITER      Energy       Delta-E        Grad      Rot      Max-DP    RMS-DP
  5   -323.32815275  -0.0002338741  0.000765  0.000765  0.002908  0.000072
               *** Restarting incremental Fock matrix formation ***
  6   -323.32818116  -0.0000284079  0.000201  0.000436  0.001707  0.000046
  7   -323.32818406  -0.0000028979  0.000136  0.000252  0.001098  0.000020
  8   -323.32818510  -0.0000010368  0.000018  0.000036  0.000285  0.000006
  9   -323.32818512  -0.0000000220  0.000014  0.000017  0.000061  0.000002
 10   -323.32818513  -0.0000000091  0.000003  0.000008  0.000060  0.000001
                  ***Gradient check signals convergence***
              ***Rediagonalizing the Fockian in SOSCF/NRSCF***

               *****************************************************
               *                     SUCCESS                       *
               *           SCF CONVERGED AFTER  11 CYCLES          *
               *****************************************************

Old exchange energy                            =    -12.855374589 Eh
New exchange energy                            =    -12.855337509 Eh
Exchange energy change after final integration =      0.000037081 Eh
Total energy after final integration           =   -323.328148046 Eh
Final COS-X integration done in                =     4.424 sec

----------------
TOTAL SCF ENERGY
----------------

Total Energy       :         -323.32814805 Eh           -8798.20620 eV

Components:
Nuclear Repulsion  :          334.07001016 Eh            9090.50713 eV
Electronic Energy  :         -657.39815821 Eh          -17888.71333 eV
One Electron Energy:        -1087.16198457 Eh          -29583.18158 eV
Two Electron Energy:          429.76382636 Eh           11694.46825 eV
Max COSX asymmetry :            0.00000277 Eh               0.00008 eV

Virial components:
Potential Energy   :         -643.12879645 Eh          -17500.42426 eV
Kinetic Energy     :          319.80064841 Eh            8702.21806 eV
Virial Ratio       :            2.01103031


DFT components:
N(Alpha)           :       27.999989163200 electrons
N(Beta)            :       27.999989163200 electrons
N(Total)           :       55.999978326401 electrons
E(XC)              :      -33.683222195370 Eh       
DFET-embed. en.    :        0.000000000000 Eh       

---------------
SCF CONVERGENCE
---------------

  Last Energy change         ...    1.6541e-10  Tolerance :   1.0000e-08
  Last MAX-Density change    ...    3.1086e-15  Tolerance :   1.0000e-07
  Last RMS-Density change    ...    3.0865e-17  Tolerance :   5.0000e-09
  Last Orbital Gradient      ...    1.1733e-06  Tolerance :   1.0000e-05
  Last Orbital Rotation      ...    2.4983e-06  Tolerance :   1.0000e-05

             **** THE GBW FILE WAS UPDATED (14Feb_SVPD_CAMB3LYP_A_wt_wb97_typ1_pos.gbw) ****
             **** DENSITY 14Feb_SVPD_CAMB3LYP_A_wt_wb97_typ1_pos.scfp WAS UPDATED ****
             **** ENERGY FILE WAS UPDATED (14Feb_SVPD_CAMB3LYP_A_wt_wb97_typ1_pos.en.tmp) ****
             **** THE GBW FILE WAS UPDATED (14Feb_SVPD_CAMB3LYP_A_wt_wb97_typ1_pos.gbw) ****
             **** DENSITY 14Feb_SVPD_CAMB3LYP_A_wt_wb97_typ1_pos.scfp WAS UPDATED ****
----------------
ORBITAL ENERGIES
----------------

  NO   OCC          E(Eh)            E(eV) 
   0   2.0000     -14.630081      -398.1048 
   1   2.0000     -14.627295      -398.0289 
   2   2.0000     -14.626005      -397.9938 
   3   2.0000     -10.597453      -288.3713 
   4   2.0000     -10.461490      -284.6716 
   5   2.0000     -10.400878      -283.0223 
   6   2.0000     -10.378558      -282.4149 
   7   2.0000      -1.293840       -35.2072 
   8   2.0000      -1.179631       -32.0994 
   9   2.0000      -1.166400       -31.7393 
  10   2.0000      -1.016755       -27.6673 
  11   2.0000      -0.940722       -25.5983 
  12   2.0000      -0.899376       -24.4733 
  13   2.0000      -0.858320       -23.3561 
  14   2.0000      -0.842944       -22.9377 
  15   2.0000      -0.799054       -21.7434 
  16   2.0000      -0.764518       -20.8036 
  17   2.0000      -0.755698       -20.5636 
  18   2.0000      -0.730660       -19.8823 
  19   2.0000      -0.697192       -18.9716 
  20   2.0000      -0.671235       -18.2652 
  21   2.0000      -0.655595       -17.8396 
  22   2.0000      -0.617299       -16.7976 
  23   2.0000      -0.574042       -15.6205 
  24   2.0000      -0.561067       -15.2674 
  25   2.0000      -0.549570       -14.9546 
  26   2.0000      -0.538660       -14.6577 
  27   2.0000      -0.510104       -13.8806 
  28   0.0000      -0.123867        -3.3706 
  29   0.0000      -0.119960        -3.2643 
  30   0.0000      -0.089654        -2.4396 
  31   0.0000      -0.077007        -2.0955 
  32   0.0000      -0.051531        -1.4022 
  33   0.0000      -0.044017        -1.1978 
  34   0.0000      -0.039236        -1.0677 
  35   0.0000      -0.029921        -0.8142 
  36   0.0000      -0.014491        -0.3943 
  37   0.0000      -0.006698        -0.1823 
  38   0.0000       0.009383         0.2553 
  39   0.0000       0.012867         0.3501 
  40   0.0000       0.022372         0.6088 
  41   0.0000       0.032530         0.8852 
  42   0.0000       0.037426         1.0184 
  43   0.0000       0.041842         1.1386 
  44   0.0000       0.053029         1.4430 
  45   0.0000       0.056521         1.5380 
  46   0.0000       0.069251         1.8844 
  47   0.0000       0.075068         2.0427 
  48   0.0000       0.082565         2.2467 
  49   0.0000       0.091999         2.5034 
  50   0.0000       0.098915         2.6916 
  51   0.0000       0.110195         2.9986 
  52   0.0000       0.119174         3.2429 
  53   0.0000       0.121683         3.3112 
  54   0.0000       0.137353         3.7376 
  55   0.0000       0.139873         3.8061 
  56   0.0000       0.151112         4.1120 
  57   0.0000       0.154496         4.2041 
  58   0.0000       0.162013         4.4086 
  59   0.0000       0.177374         4.8266 
  60   0.0000       0.185298         5.0422 
  61   0.0000       0.187674         5.1069 
  62   0.0000       0.203366         5.5339 
  63   0.0000       0.207715         5.6522 
  64   0.0000       0.220046         5.9878 
  65   0.0000       0.225682         6.1411 
  66   0.0000       0.230284         6.2663 
  67   0.0000       0.234934         6.3929 
  68   0.0000       0.241270         6.5653 
  69   0.0000       0.251323         6.8389 
  70   0.0000       0.255069         6.9408 
  71   0.0000       0.258385         7.0310 
  72   0.0000       0.272777         7.4226 
  73   0.0000       0.273244         7.4353 
  74   0.0000       0.281899         7.6709 
  75   0.0000       0.285673         7.7736 
  76   0.0000       0.290563         7.9066 
  77   0.0000       0.294744         8.0204 
  78   0.0000       0.304834         8.2949 
  79   0.0000       0.309838         8.4311 
  80   0.0000       0.315900         8.5961 
  81   0.0000       0.321153         8.7390 
  82   0.0000       0.330725         8.9995 
  83   0.0000       0.347541         9.4571 
  84   0.0000       0.352908         9.6031 
  85   0.0000       0.355229         9.6663 
  86   0.0000       0.366339         9.9686 
  87   0.0000       0.370334        10.0773 
  88   0.0000       0.379798        10.3348 
  89   0.0000       0.385067        10.4782 
  90   0.0000       0.387313        10.5393 
  91   0.0000       0.399266        10.8646 
  92   0.0000       0.406293        11.0558 
  93   0.0000       0.406968        11.0742 
  94   0.0000       0.418354        11.3840 
  95   0.0000       0.424359        11.5474 
  96   0.0000       0.430062        11.7026 
  97   0.0000       0.430975        11.7274 
  98   0.0000       0.442904        12.0520 
  99   0.0000       0.448208        12.1964 
 100   0.0000       0.461741        12.5646 
 101   0.0000       0.466822        12.7029 
 102   0.0000       0.471142        12.8204 
 103   0.0000       0.478879        13.0310 
 104   0.0000       0.481370        13.0987 
 105   0.0000       0.496547        13.5117 
 106   0.0000       0.507327        13.8051 
 107   0.0000       0.518977        14.1221 
 108   0.0000       0.525178        14.2908 
 109   0.0000       0.531054        14.4507 
 110   0.0000       0.550390        14.9769 
 111   0.0000       0.559611        15.2278 
 112   0.0000       0.562234        15.2992 
 113   0.0000       0.569089        15.4857 
 114   0.0000       0.586868        15.9695 
 115   0.0000       0.604326        16.4446 
 116   0.0000       0.618037        16.8176 
 117   0.0000       0.622354        16.9351 
 118   0.0000       0.639432        17.3998 
 119   0.0000       0.648881        17.6569 
 120   0.0000       0.657120        17.8812 
 121   0.0000       0.662360        18.0237 
 122   0.0000       0.672206        18.2917 
 123   0.0000       0.684901        18.6371 
 124   0.0000       0.703000        19.1296 
 125   0.0000       0.743081        20.2203 
 126   0.0000       0.794787        21.6273 
 127   0.0000       0.830637        22.6028 
 128   0.0000       0.853833        23.2340 
 129   0.0000       0.861266        23.4362 
 130   0.0000       0.885401        24.0930 
 131   0.0000       0.893524        24.3140 
 132   0.0000       0.910071        24.7643 
 133   0.0000       0.920629        25.0516 
 134   0.0000       0.943754        25.6809 
 135   0.0000       0.954517        25.9737 
 136   0.0000       0.962361        26.1872 
 137   0.0000       0.972955        26.4754 
 138   0.0000       0.988728        26.9047 
 139   0.0000       1.001556        27.2537 
 140   0.0000       1.008322        27.4378 
 141   0.0000       1.038497        28.2589 
 142   0.0000       1.058929        28.8149 
 143   0.0000       1.073737        29.2179 
 144   0.0000       1.082384        29.4532 
 145   0.0000       1.115901        30.3652 
 146   0.0000       1.120523        30.4910 
 147   0.0000       1.135938        30.9104 
 148   0.0000       1.144437        31.1417 
 149   0.0000       1.193570        32.4787 
 150   0.0000       1.201137        32.6846 
 151   0.0000       1.223325        33.2884 
 152   0.0000       1.297151        35.2973 
 153   0.0000       1.307187        35.5704 
 154   0.0000       1.362051        37.0633 
 155   0.0000       1.377298        37.4782 
 156   0.0000       1.416146        38.5353 
 157   0.0000       1.446656        39.3655 
 158   0.0000       1.469478        39.9865 
 159   0.0000       1.514453        41.2104 
 160   0.0000       1.517984        41.3065 
 161   0.0000       1.527561        41.5670 
 162   0.0000       1.556276        42.3484 
 163   0.0000       1.570725        42.7416 
 164   0.0000       1.578968        42.9659 
 165   0.0000       1.603780        43.6411 
 166   0.0000       1.626652        44.2634 
 167   0.0000       1.646131        44.7935 
 168   0.0000       1.668516        45.4026 
 169   0.0000       1.682456        45.7819 
 170   0.0000       1.694079        46.0982 
 171   0.0000       1.727939        47.0196 
 172   0.0000       1.746266        47.5183 
 173   0.0000       1.752349        47.6839 
 174   0.0000       1.783364        48.5278 
 175   0.0000       1.795545        48.8593 
 176   0.0000       1.828212        49.7482 
 177   0.0000       1.836786        49.9815 
 178   0.0000       1.857570        50.5471 
 179   0.0000       1.870283        50.8930 
 180   0.0000       1.883233        51.2454 
 181   0.0000       1.898654        51.6650 
 182   0.0000       1.917133        52.1678 
 183   0.0000       1.929933        52.5161 
 184   0.0000       1.937088        52.7109 
 185   0.0000       1.961283        53.3692 
 186   0.0000       1.980199        53.8840 
 187   0.0000       1.987501        54.0827 
 188   0.0000       1.991690        54.1966 
 189   0.0000       1.998546        54.3832 
 190   0.0000       2.016974        54.8846 
 191   0.0000       2.027964        55.1837 
 192   0.0000       2.046561        55.6898 
 193   0.0000       2.082740        56.6742 
 194   0.0000       2.103477        57.2385 
 195   0.0000       2.136623        58.1405 
 196   0.0000       2.158368        58.7322 
 197   0.0000       2.168359        59.0040 
 198   0.0000       2.218032        60.3557 
 199   0.0000       2.249590        61.2144 
 200   0.0000       2.267438        61.7001 
 201   0.0000       2.293117        62.3989 
 202   0.0000       2.308889        62.8281 
 203   0.0000       2.354300        64.0638 
 204   0.0000       2.374893        64.6241 
 205   0.0000       2.397540        65.2404 
 206   0.0000       2.408172        65.5297 
 207   0.0000       2.426339        66.0240 
 208   0.0000       2.456401        66.8421 
 209   0.0000       2.489299        67.7373 
 210   0.0000       2.520459        68.5852 
 211   0.0000       2.532815        68.9214 
 212   0.0000       2.577489        70.1370 
 213   0.0000       2.598424        70.7067 
 214   0.0000       2.635998        71.7292 
 215   0.0000       2.648113        72.0588 
 216   0.0000       2.648878        72.0796 
 217   0.0000       2.662978        72.4633 
 218   0.0000       2.744808        74.6900 
 219   0.0000       2.773402        75.4681 
 220   0.0000       2.817326        76.6633 
 221   0.0000       2.932534        79.7983 
 222   0.0000       2.990772        81.3831 
 223   0.0000       3.006888        81.8216 
 224   0.0000       3.025054        82.3159 
 225   0.0000       3.085133        83.9507 
 226   0.0000       3.109572        84.6158 
 227   0.0000       3.131052        85.2002 
 228   0.0000       3.144397        85.5634 
 229   0.0000       3.168191        86.2109 
 230   0.0000       3.181892        86.5837 
 231   0.0000       3.217128        87.5425 
 232   0.0000       3.274844        89.1130 
 233   0.0000       3.330910        90.6387 
 234   0.0000       3.586944        97.6057 
 235   0.0000       3.624897        98.6385 

                    ********************************
                    * MULLIKEN POPULATION ANALYSIS *
                    ********************************

-----------------------
MULLIKEN ATOMIC CHARGES
-----------------------
   0 C :    0.899012
   1 N :   -0.349711
   2 C :    1.207279
   3 N :    0.026475
   4 N :    0.129475
   5 H :   -0.062507
   6 H :   -0.188326
   7 H :   -0.135753
   8 H :   -0.018128
   9 H :   -0.133404
  10 C :   -0.151871
  11 H :   -0.186911
  12 H :   -0.326896
  13 C :    0.995919
  14 H :   -0.084280
  15 H :   -0.161673
  16 H :   -0.249026
  17 H :   -0.151350
  18 H :   -0.058323
Sum of atomic charges:    1.0000000

--------------------------------
MULLIKEN REDUCED ORBITAL CHARGES
--------------------------------
  0 C s       :     2.592176  s :     2.592176
      pz      :     0.711330  p :     2.421968
      px      :     0.760417
      py      :     0.950221
      dz2     :    -0.055985  d :     0.086845
      dxz     :     0.005126
      dyz     :     0.090788
      dx2y2   :    -0.004853
      dxy     :     0.051768
  1 N s       :     3.459845  s :     3.459845
      pz      :     1.118598  p :     3.686720
      px      :     1.011604
      py      :     1.556518
      dz2     :     0.042370  d :     0.203147
      dxz     :     0.031933
      dyz     :     0.034296
      dx2y2   :     0.069409
      dxy     :     0.025139
  2 C s       :     2.989931  s :     2.989931
      pz      :     0.661679  p :     2.108391
      px      :     0.779406
      py      :     0.667306
      dz2     :    -0.117403  d :    -0.305600
      dxz     :    -0.192030
      dyz     :     0.018761
      dx2y2   :    -0.018000
      dxy     :     0.003072
  3 N s       :     3.382433  s :     3.382433
      pz      :     1.018620  p :     3.620426
      px      :     1.041345
      py      :     1.560461
      dz2     :    -0.013513  d :    -0.029334
      dxz     :    -0.020181
      dyz     :     0.005350
      dx2y2   :    -0.007453
      dxy     :     0.006462
  4 N s       :     3.306141  s :     3.306141
      pz      :     1.053474  p :     3.610029
      px      :     0.998107
      py      :     1.558449
      dz2     :    -0.026810  d :    -0.045645
      dxz     :    -0.013356
      dyz     :     0.011132
      dx2y2   :    -0.013879
      dxy     :    -0.002731
  5 H s       :     1.055565  s :     1.055565
      pz      :     0.013822  p :     0.006943
      px      :    -0.055498
      py      :     0.048619
  6 H s       :     1.161296  s :     1.161296
      pz      :    -0.015385  p :     0.027030
      px      :    -0.008529
      py      :     0.050943
  7 H s       :     1.133528  s :     1.133528
      pz      :     0.001905  p :     0.002225
      px      :    -0.030748
      py      :     0.031068
  8 H s       :     1.007066  s :     1.007066
      pz      :     0.006650  p :     0.011062
      px      :    -0.043326
      py      :     0.047738
  9 H s       :     1.098183  s :     1.098183
      pz      :    -0.010749  p :     0.035222
      px      :    -0.003317
      py      :     0.049287
 10 C s       :     2.826921  s :     2.826921
      pz      :     0.980028  p :     2.805275
      px      :     0.875043
      py      :     0.950204
      dz2     :     0.128360  d :     0.519675
      dxz     :     0.157234
      dyz     :     0.053849
      dx2y2   :     0.093189
      dxy     :     0.087041
 11 H s       :     1.155750  s :     1.155750
      pz      :     0.015345  p :     0.031161
      px      :     0.003673
      py      :     0.012142
 12 H s       :     1.303957  s :     1.303957
      pz      :     0.006269  p :     0.022939
      px      :     0.036026
      py      :    -0.019356
 13 C s       :     2.289265  s :     2.289265
      pz      :     0.891758  p :     2.627986
      px      :     0.871192
      py      :     0.865036
      dz2     :     0.055621  d :     0.086830
      dxz     :     0.036544
      dyz     :     0.010173
      dx2y2   :    -0.015334
      dxy     :    -0.000174
 14 H s       :     1.071208  s :     1.071208
      pz      :    -0.002663  p :     0.013073
      px      :     0.036724
      py      :    -0.020988
 15 H s       :     1.152077  s :     1.152077
      pz      :     0.019274  p :     0.009596
      px      :     0.008484
      py      :    -0.018162
 16 H s       :     1.179886  s :     1.179886
      pz      :     0.001606  p :     0.069140
      px      :     0.066393
      py      :     0.001142
 17 H s       :     1.153588  s :     1.153588
      pz      :     0.013097  p :    -0.002238
      px      :    -0.042086
      py      :     0.026751
 18 H s       :     1.055065  s :     1.055065
      pz      :    -0.023042  p :     0.003257
      px      :     0.046608
      py      :    -0.020309


                     *******************************
                     * LOEWDIN POPULATION ANALYSIS *
                     *******************************

----------------------
LOEWDIN ATOMIC CHARGES
----------------------
   0 C :    0.073580
   1 N :    0.046887
   2 C :   -0.039108
   3 N :    0.269542
   4 N :    0.284242
   5 H :    0.021213
   6 H :    0.035893
   7 H :    0.051476
   8 H :    0.037561
   9 H :    0.042895
  10 C :   -0.045581
  11 H :    0.026684
  12 H :    0.042692
  13 C :    0.136370
  14 H :    0.020673
  15 H :    0.037130
  16 H :   -0.034879
  17 H :   -0.001230
  18 H :   -0.006041

-------------------------------
LOEWDIN REDUCED ORBITAL CHARGES
-------------------------------
  0 C s       :     2.665309  s :     2.665309
      pz      :     0.809500  p :     2.595689
      px      :     0.870444
      py      :     0.915745
      dz2     :     0.118694  d :     0.665422
      dxz     :     0.104001
      dyz     :     0.195293
      dx2y2   :     0.130204
      dxy     :     0.117230
  1 N s       :     2.910655  s :     2.910655
      pz      :     1.081440  p :     3.453798
      px      :     1.058035
      py      :     1.314323
      dz2     :     0.135712  d :     0.588660
      dxz     :     0.165804
      dyz     :     0.082938
      dx2y2   :     0.119042
      dxy     :     0.085164
  2 C s       :     2.611470  s :     2.611470
      pz      :     0.860178  p :     2.390822
      px      :     0.879087
      py      :     0.651557
      dz2     :     0.238210  d :     1.036816
      dxz     :     0.275463
      dyz     :     0.189519
      dx2y2   :     0.143274
      dxy     :     0.190349
  3 N s       :     2.926158  s :     2.926158
      pz      :     1.082389  p :     3.510935
      px      :     1.082093
      py      :     1.346452
      dz2     :     0.088193  d :     0.293366
      dxz     :     0.085691
      dyz     :     0.055160
      dx2y2   :     0.041088
      dxy     :     0.023233
  4 N s       :     2.929884  s :     2.929884
      pz      :     1.087479  p :     3.504538
      px      :     1.070008
      py      :     1.347051
      dz2     :     0.087165  d :     0.281337
      dxz     :     0.077119
      dyz     :     0.048108
      dx2y2   :     0.042604
      dxy     :     0.026341
  5 H s       :     0.632506  s :     0.632506
      pz      :     0.122833  p :     0.346280
      px      :     0.112959
      py      :     0.110488
  6 H s       :     0.642727  s :     0.642727
      pz      :     0.071230  p :     0.321379
      px      :     0.145302
      py      :     0.104848
  7 H s       :     0.627012  s :     0.627012
      pz      :     0.128166  p :     0.321512
      px      :     0.086680
      py      :     0.106666
  8 H s       :     0.636791  s :     0.636791
      pz      :     0.112939  p :     0.325649
      px      :     0.100720
      py      :     0.111990
  9 H s       :     0.639497  s :     0.639497
      pz      :     0.068930  p :     0.317609
      px      :     0.146837
      py      :     0.101842
 10 C s       :     2.694120  s :     2.694120
      pz      :     0.913392  p :     2.706013
      px      :     0.927621
      py      :     0.865000
      dz2     :     0.109449  d :     0.645449
      dxz     :     0.141002
      dyz     :     0.139252
      dx2y2   :     0.153968
      dxy     :     0.101778
 11 H s       :     0.722457  s :     0.722457
      pz      :     0.082457  p :     0.250859
      px      :     0.083896
      py      :     0.084506
 12 H s       :     0.720594  s :     0.720594
      pz      :     0.061096  p :     0.236713
      px      :     0.112980
      py      :     0.062638
 13 C s       :     2.698334  s :     2.698334
      pz      :     0.912397  p :     2.763609
      px      :     0.934597
      py      :     0.916615
      dz2     :     0.072825  d :     0.401687
      dxz     :     0.119110
      dyz     :     0.084565
      dx2y2   :     0.089840
      dxy     :     0.035348
 14 H s       :     0.728373  s :     0.728373
      pz      :     0.073232  p :     0.250953
      px      :     0.116986
      py      :     0.060735
 15 H s       :     0.720553  s :     0.720553
      pz      :     0.087162  p :     0.242317
      px      :     0.097880
      py      :     0.057276
 16 H s       :     0.741551  s :     0.741551
      pz      :     0.096138  p :     0.293327
      px      :     0.109221
      py      :     0.087968
 17 H s       :     0.732909  s :     0.732909
      pz      :     0.078073  p :     0.268321
      px      :     0.073481
      py      :     0.116767
 18 H s       :     0.736819  s :     0.736819
      pz      :     0.077472  p :     0.269222
      px      :     0.120854
      py      :     0.070896


                      *****************************
                      * MAYER POPULATION ANALYSIS *
                      *****************************

  NA   - Mulliken gross atomic population
  ZA   - Total nuclear charge
  QA   - Mulliken gross atomic charge
  VA   - Mayer's total valence
  BVA  - Mayer's bonded valence
  FA   - Mayer's free valence

  ATOM       NA         ZA         QA         VA         BVA        FA
  0 C      5.1010     6.0000     0.8990     3.6509     3.6509     0.0000
  1 N      7.3497     7.0000    -0.3497     4.1748     4.1748     0.0000
  2 C      4.7927     6.0000     1.2073     2.0145     2.0145     0.0000
  3 N      6.9735     7.0000     0.0265     3.7341     3.7341     0.0000
  4 N      6.8705     7.0000     0.1295     3.7347     3.7347     0.0000
  5 H      1.0625     1.0000    -0.0625     0.8733     0.8733     0.0000
  6 H      1.1883     1.0000    -0.1883     0.8786     0.8786    -0.0000
  7 H      1.1358     1.0000    -0.1358     0.8061     0.8061     0.0000
  8 H      1.0181     1.0000    -0.0181     0.8443     0.8443     0.0000
  9 H      1.1334     1.0000    -0.1334     0.9226     0.9226    -0.0000
 10 C      6.1519     6.0000    -0.1519     5.1706     5.1706     0.0000
 11 H      1.1869     1.0000    -0.1869     0.9773     0.9773     0.0000
 12 H      1.3269     1.0000    -0.3269     0.9668     0.9668     0.0000
 13 C      5.0041     6.0000     0.9959     3.6469     3.6469     0.0000
 14 H      1.0843     1.0000    -0.0843     1.0307     1.0307    -0.0000
 15 H      1.1617     1.0000    -0.1617     1.0998     1.0998     0.0000
 16 H      1.2490     1.0000    -0.2490     1.1239     1.1239     0.0000
 17 H      1.1513     1.0000    -0.1513     0.9225     0.9225     0.0000
 18 H      1.0583     1.0000    -0.0583     0.9608     0.9608     0.0000

  Mayer bond orders larger than 0.100000
B(  0-C ,  1-N ) :   0.9800 B(  0-C ,  2-C ) :  -0.1000 B(  0-C ,  7-H ) :  -0.1428 
B(  0-C , 10-C ) :   1.0762 B(  0-C , 11-H ) :   0.8667 B(  0-C , 12-H ) :   0.6714 
B(  0-C , 15-H ) :   0.1215 B(  1-N ,  2-C ) :   1.1027 B(  1-N ,  3-N ) :   0.2973 
B(  1-N ,  4-N ) :   0.1917 B(  1-N ,  7-H ) :   1.1974 B(  1-N , 11-H ) :   0.1282 
B(  1-N , 12-H ) :   0.2850 B(  2-C ,  3-N ) :   0.8319 B(  2-C ,  4-N ) :   0.9978 
B(  2-C ,  5-H ) :  -0.1237 B(  2-C ,  6-H ) :  -0.1694 B(  2-C ,  7-H ) :  -0.2085 
B(  2-C ,  8-H ) :  -0.1486 B(  2-C ,  9-H ) :  -0.1722 B(  3-N ,  4-N ) :   0.1480 
B(  3-N ,  8-H ) :   1.1481 B(  3-N ,  9-H ) :   1.3023 B(  4-N ,  5-H ) :   1.0936 
B(  4-N ,  6-H ) :   1.2947 B(  5-H ,  6-H ) :  -0.2186 B(  8-H ,  9-H ) :  -0.1866 
B( 10-C , 11-H ) :   0.1020 B( 10-C , 12-H ) :   0.1400 B( 10-C , 13-C ) :   1.2832 
B( 10-C , 14-H ) :   0.9112 B( 10-C , 15-H ) :   0.9190 B( 10-C , 16-H ) :   0.2291 
B( 10-C , 17-H ) :   0.2301 B( 10-C , 18-H ) :   0.2228 B( 11-H , 12-H ) :  -0.1239 
B( 13-C , 16-H ) :   0.7635 B( 13-C , 17-H ) :   0.7482 B( 13-C , 18-H ) :   0.7124 
B( 16-H , 18-H ) :   0.1178 

-------
TIMINGS
-------

Total SCF time: 0 days 0 hours 0 min 26 sec 

Total time                  ....      26.372 sec
Sum of individual times     ....      26.141 sec  ( 99.1%)

Fock matrix formation       ....      24.884 sec  ( 94.4%)
  Split-RI-J                ....       1.095 sec  (  4.4% of F)
  Chain of spheres X        ....      20.915 sec  ( 84.0% of F)
  XC integration            ....       2.825 sec  ( 11.4% of F)
    Basis function eval.    ....       0.820 sec  ( 29.0% of XC)
    Density eval.           ....       0.667 sec  ( 23.6% of XC)
    XC-Functional eval.     ....       0.332 sec  ( 11.8% of XC)
    XC-Potential eval.      ....       0.785 sec  ( 27.8% of XC)
Diagonalization             ....       0.076 sec  (  0.3%)
Density matrix formation    ....       0.006 sec  (  0.0%)
Population analysis         ....       0.011 sec  (  0.0%)
Initial guess               ....       0.129 sec  (  0.5%)
Orbital Transformation      ....       0.000 sec  (  0.0%)
Orbital Orthonormalization  ....       0.000 sec  (  0.0%)
DIIS solution               ....       0.042 sec  (  0.2%)
SOSCF solution              ....       0.057 sec  (  0.2%)
Grid generation             ....       0.936 sec  (  3.5%)

Maximum memory used throughout the entire SCF-calculation: 58.5 MB

-------------------------   --------------------
FINAL SINGLE POINT ENERGY      -323.328148045879
-------------------------   --------------------


                            ***************************************
                            *     ORCA property calculations      *
                            ***************************************

                                    ---------------------
                                    Active property flags
                                    ---------------------
   (+) Dipole Moment


------------------------------------------------------------------------------
                       ORCA ELECTRIC PROPERTIES CALCULATION
------------------------------------------------------------------------------

Dipole Moment Calculation                       ... on
Quadrupole Moment Calculation                   ... off
Polarizability Calculation                      ... off
GBWName                                         ... 14Feb_SVPD_CAMB3LYP_A_wt_wb97_typ1_pos.gbw
Electron density file                           ... 14Feb_SVPD_CAMB3LYP_A_wt_wb97_typ1_pos.scfp
The origin for moment calculation is the CENTER OF MASS  = ( 6.050071, -2.680398 -5.012134)

-------------
DIPOLE MOMENT
-------------
                                X             Y             Z
Electronic contribution:      3.88815      -4.89643      -2.31826
Nuclear contribution   :     -2.72963       4.05673       1.67650
                        -----------------------------------------
Total Dipole Moment    :      1.15852      -0.83970      -0.64176
                        -----------------------------------------
Magnitude (a.u.)       :      1.56816
Magnitude (Debye)      :      3.98595



--------------------
Rotational spectrum 
--------------------
 
Rotational constants in cm-1:     0.140891     0.054763     0.048590 
Rotational constants in MHz :  4223.814968  1641.764475  1456.690885 

 Dipole components along the rotational axes: 
x,y,z [a.u.] :    -1.564845    -0.093385    -0.040835 
x,y,z [Debye]:    -3.977519    -0.237366    -0.103795 

 

Timings for individual modules:

Sum of individual times         ...       26.975 sec (=   0.450 min)
GTO integral calculation        ...        0.396 sec (=   0.007 min)   1.5 %
SCF iterations                  ...       26.579 sec (=   0.443 min)  98.5 %
                             ****ORCA TERMINATED NORMALLY****
TOTAL RUN TIME: 0 days 0 hours 0 minutes 27 seconds 345 msec
