
                                        *****************
                                        * O   R   C   A *
                                        *****************

                                            #,                                       
                                            ###                                      
                                            ####                                     
                                            #####                                    
                                            ######                                   
                                           ########,                                 
                                     ,,################,,,,,                         
                               ,,#################################,,                 
                          ,,##########################################,,             
                       ,#########################################, ''#####,          
                    ,#############################################,,   '####,        
                  ,##################################################,,,,####,       
                ,###########''''           ''''###############################       
              ,#####''   ,,,,##########,,,,          '''####'''          '####       
            ,##' ,,,,###########################,,,                        '##       
           ' ,,###''''                  '''############,,,                           
         ,,##''                                '''############,,,,        ,,,,,,###''
      ,#''                                            '''#######################'''  
     '                                                          ''''####''''         
             ,#######,   #######,   ,#######,      ##                                
            ,#'     '#,  ##    ##  ,#'     '#,    #''#        ######   ,####,        
            ##       ##  ##   ,#'  ##            #'  '#       #        #'  '#        
            ##       ##  #######   ##           ,######,      #####,   #    #        
            '#,     ,#'  ##    ##  '#,     ,#' ,#      #,         ##   #,  ,#        
             '#######'   ##     ##  '#######'  #'      '#     #####' # '####'        



                  #######################################################
                  #                        -***-                        #
                  #          Department of theory and spectroscopy      #
                  #    Directorship and core code : Frank Neese         #
                  #        Max Planck Institute fuer Kohlenforschung    #
                  #                Kaiser Wilhelm Platz 1               #
                  #                 D-45470 Muelheim/Ruhr               #
                  #                      Germany                        #
                  #                                                     #
                  #                  All rights reserved                #
                  #                        -***-                        #
                  #######################################################


                         Program Version 5.0.0 -  RELEASE  -
                                (SVN: $Rev: 19529$)
                ($Date: 2021-06-28 11:36:33 +0200 (Mo, 28 Jun 2021) $)


 With contributions from (in alphabetic order):
   Daniel Aravena         : Magnetic Suceptibility
   Michael Atanasov       : Ab Initio Ligand Field Theory (pilot matlab implementation)
   Alexander A. Auer      : GIAO ZORA, VPT2 properties, NMR spectrum
   Ute Becker             : Parallelization
   Giovanni Bistoni       : ED, misc. LED, open-shell LED, HFLD
   Martin Brehm           : Molecular dynamics
   Dmytro Bykov           : SCF Hessian
   Vijay G. Chilkuri      : MRCI spin determinant printing, contributions to CSF-ICE
   Dipayan Datta          : RHF DLPNO-CCSD density
   Achintya Kumar Dutta   : EOM-CC, STEOM-CC
   Dmitry Ganyushin       : Spin-Orbit,Spin-Spin,Magnetic field MRCI
   Miquel Garcia          : C-PCM Hessian, Gaussian charge scheme
   Yang Guo               : DLPNO-NEVPT2, F12-NEVPT2, CIM, IAO-localization
   Andreas Hansen         : Spin unrestricted coupled pair/coupled cluster methods
   Benjamin Helmich-Paris : MC-RPA, TRAH-SCF, COSX integrals
   Lee Huntington         : MR-EOM, pCC
   Robert Izsak           : Overlap fitted RIJCOSX, COSX-SCS-MP3, EOM
   Marcus Kettner         : VPT2
   Christian Kollmar      : KDIIS, OOCD, Brueckner-CCSD(T), CCSD density, CASPT2, CASPT2-K
   Simone Kossmann        : Meta GGA functionals, TD-DFT gradient, OOMP2, MP2 Hessian
   Martin Krupicka        : Initial AUTO-CI
   Lucas Lang             : DCDCAS
   Marvin Lechner         : AUTO-CI (C++ implementation), FIC-MRCC
   Dagmar Lenk            : GEPOL surface, SMD
   Dimitrios Liakos       : Extrapolation schemes; Compound Job, initial MDCI parallelization
   Dimitrios Manganas     : Further ROCIS development; embedding schemes
   Dimitrios Pantazis     : SARC Basis sets
   Anastasios Papadopoulos: AUTO-CI, single reference methods and gradients
   Taras Petrenko         : DFT Hessian,TD-DFT gradient, ASA, ECA, R-Raman, ABS, FL, XAS/XES, NRVS
   Peter Pinski           : DLPNO-MP2, DLPNO-MP2 Gradient
   Christoph Reimann      : Effective Core Potentials
   Marius Retegan         : Local ZFS, SOC
   Christoph Riplinger    : Optimizer, TS searches, QM/MM, DLPNO-CCSD(T), (RO)-DLPNO pert. Triples
   Tobias Risthaus        : Range-separated hybrids, TD-DFT gradient, RPA, STAB
   Michael Roemelt        : Original ROCIS implementation
   Masaaki Saitow         : Open-shell DLPNO-CCSD energy and density
   Barbara Sandhoefer     : DKH picture change effects
   Avijit Sen             : IP-ROCIS
   Kantharuban Sivalingam : CASSCF convergence, NEVPT2, FIC-MRCI
   Bernardo de Souza      : ESD, SOC TD-DFT
   Georgi Stoychev        : AutoAux, RI-MP2 NMR
   Willem Van den Heuvel  : Paramagnetic NMR
   Boris Wezisla          : Elementary symmetry handling
   Frank Wennmohs         : Technical directorship


 We gratefully acknowledge several colleagues who have allowed us to
 interface, adapt or use parts of their codes:
   Stefan Grimme, W. Hujo, H. Kruse, P. Pracht,  : VdW corrections, initial TS optimization,
                  C. Bannwarth, S. Ehlert          DFT functionals, gCP, sTDA/sTD-DF
   Ed Valeev, F. Pavosevic, A. Kumar             : LibInt (2-el integral package), F12 methods
   Garnet Chan, S. Sharma, J. Yang, R. Olivares  : DMRG
   Ulf Ekstrom                                   : XCFun DFT Library
   Mihaly Kallay                                 : mrcc  (arbitrary order and MRCC methods)
   Jiri Pittner, Ondrej Demel                    : Mk-CCSD
   Frank Weinhold                                : gennbo (NPA and NBO analysis)
   Christopher J. Cramer and Donald G. Truhlar   : smd solvation model
   Lars Goerigk                                  : TD-DFT with DH, B97 family of functionals
   V. Asgeirsson, H. Jonsson                     : NEB implementation
   FAccTs GmbH                                   : IRC, NEB, NEB-TS, DLPNO-Multilevel, CI-OPT
                                                   MM, QMMM, 2- and 3-layer-ONIOM, Crystal-QMMM,
                                                   LR-CPCM, SF, NACMEs, symmetry and pop. for TD-DFT,
                                                   nearIR, NL-DFT gradient (VV10), updates on ESD,
                                                   ML-optimized integration grids
   S Lehtola, MJT Oliveira, MAL Marques          : LibXC Library
   Liviu Ungur et al                             : ANISO software


 Your calculation uses the libint2 library for the computation of 2-el integrals
 For citations please refer to: http://libint.valeyev.net

 Your ORCA version has been built with support for libXC version: 5.1.0
 For citations please refer to: https://tddft.org/programs/libxc/

 This ORCA versions uses:
   CBLAS   interface :  Fast vector & matrix operations
   LAPACKE interface :  Fast linear algebra routines
   SCALAPACK package :  Parallel linear algebra routines
   Shared memory     :  Shared parallel matrices
   BLAS/LAPACK       :  OpenBLAS 0.3.15  USE64BITINT DYNAMIC_ARCH NO_AFFINITY Haswell SINGLE_THREADED
        Core in use  :  Haswell
   Copyright (c) 2011-2014, The OpenBLAS Project


Your calculation utilizes the atom-pairwise dispersion correction
with the zero-damping scheme (D30)
Cite in your paper:
S.Grimme, J.Antony, S.Ehrlich and H.Krieg, J.Chem.Phys., 132, (2010), 154104 
   

XCFun DFT library Copyright 2009-2010 Ulf Ekstrom and contributors.
See http://admol.org/xcfun for more information.
This is free software; see the source code for copying conditions.
There is ABSOLUTELY NO WARRANTY; not even for MERCHANTABILITY or FITNESS FOR A PARTICULAR PURPOSE.
For details see the documentation.
Scientific users of this library should cite U. Ekstrom, L. Visscher, R. Bast, A. J. Thorvaldsen and K. Ruud;
J.Chem.Theor.Comp. 2010, DOI: 10.1021/ct100117s
XCFun Version 0.99 

================================================================================

----- Orbital basis set information -----
Your calculation utilizes the basis: def2-SVP
   F. Weigend and R. Ahlrichs, Phys. Chem. Chem. Phys. 7, 3297 (2005).

----- AuxJ basis set information -----
Your calculation utilizes the auxiliary basis: def2/J
   F. Weigend, Phys. Chem. Chem. Phys. 8, 1057 (2006).

================================================================================
                                        WARNINGS
                       Please study these warnings very carefully!
================================================================================


INFO   : the flag for use of the SHARK integral package has been found!

================================================================================
                                       INPUT FILE
================================================================================
NAME = SVP_wB97XD3_C3_wt_dlpno_neg.com
|  1> !wB97X-D3 RIJCOSX def2-SVP def2/J TightSCF
|  2> *xyz 0 1 
|  3> C         -5.57236       -5.80780       -0.81644
|  4> S         -6.90318       -4.61903       -0.52846
|  5> O         -8.11485       -5.25093       -0.95701
|  6> O         -6.53271       -3.42684       -1.31485
|  7> F         -6.86563       -4.29496        0.91412
|  8> C         -4.45780       -5.94187        0.22919
|  9> H         -5.17735       -5.54257       -1.79771
| 10> H         -6.07420       -6.76889       -0.92127
| 11> H         -3.75515       -6.68239       -0.09144
| 12> H         -4.88182       -6.23486        1.16689
| 13> H         -3.95908       -5.00189        0.34143
| 14> *
| 15> %MaxCore 64000
| 16> 
| 17> %pal nprocs 4
| 18> end  
| 19> 
| 20> %scf
| 21>   MaxIter 150
| 22> end
| 23> 
| 24>                          ****END OF INPUT****
================================================================================

                       ****************************
                       * Single Point Calculation *
                       ****************************

---------------------------------
CARTESIAN COORDINATES (ANGSTROEM)
---------------------------------
  C     -5.572360   -5.807800   -0.816440
  S     -6.903180   -4.619030   -0.528460
  O     -8.114850   -5.250930   -0.957010
  O     -6.532710   -3.426840   -1.314850
  F     -6.865630   -4.294960    0.914120
  C     -4.457800   -5.941870    0.229190
  H     -5.177350   -5.542570   -1.797710
  H     -6.074200   -6.768890   -0.921270
  H     -3.755150   -6.682390   -0.091440
  H     -4.881820   -6.234860    1.166890
  H     -3.959080   -5.001890    0.341430

----------------------------
CARTESIAN COORDINATES (A.U.)
----------------------------
  NO LB      ZA    FRAG     MASS         X           Y           Z
   0 C     6.0000    0    12.011  -10.530234  -10.975151   -1.542848
   1 S    16.0000    0    32.060  -13.045120   -8.728702   -0.998645
   2 O     8.0000    0    15.999  -15.334844   -9.922820   -1.808487
   3 O     8.0000    0    15.999  -12.345033   -6.475789   -2.484706
   4 F     9.0000    0    18.998  -12.974160   -8.116298    1.727436
   5 C     6.0000    0    12.011   -8.424021  -11.228507    0.433106
   6 H     1.0000    0     1.008   -9.783774  -10.473939   -3.397180
   7 H     1.0000    0     1.008  -11.478574  -12.791348   -1.740948
   8 H     1.0000    0     1.008   -7.096205  -12.627887   -0.172797
   9 H     1.0000    0     1.008   -9.225303  -11.782178    2.205103
  10 H     1.0000    0     1.008   -7.481577   -9.452202    0.645209

--------------------------------
INTERNAL COORDINATES (ANGSTROEM)
--------------------------------
 C      0   0   0     0.000000000000     0.00000000     0.00000000
 S      1   0   0     1.807536573821     0.00000000     0.00000000
 O      2   1   0     1.432165109685   106.56208582     0.00000000
 O      2   1   3     1.475457301686   105.16666730   238.45210070
 F      2   1   3     1.479009271032   106.30854122   122.18883319
 C      1   2   3     1.534131955016   118.93292281   220.05041070
 H      1   2   3     1.090536870491   104.48290251    94.52506513
 H      1   2   3     1.089278064867   104.85705990   341.96808105
 H      6   1   2     1.069995555972   109.47104647   179.99982600
 H      6   1   2     1.070008126371   109.47102823    60.00051838
 H      6   1   2     1.069991521649   109.47204847   300.00069232

---------------------------
INTERNAL COORDINATES (A.U.)
---------------------------
 C      0   0   0     0.000000000000     0.00000000     0.00000000
 S      1   0   0     3.415749101568     0.00000000     0.00000000
 O      2   1   0     2.706399835863   106.56208582     0.00000000
 O      2   1   3     2.788210222482   105.16666730   238.45210070
 F      2   1   3     2.794922471782   106.30854122   122.18883319
 C      1   2   3     2.899089248277   118.93292281   220.05041070
 H      1   2   3     2.060816024171   104.48290251    94.52506513
 H      1   2   3     2.058437226286   104.85705990   341.96808105
 H      6   1   2     2.021998565300   109.47104647   179.99982600
 H      6   1   2     2.022022319911   109.47102823    60.00051838
 H      6   1   2     2.021990941534   109.47204847   300.00069232

---------------------
BASIS SET INFORMATION
---------------------
There are 5 groups of distinct atoms

 Group   1 Type C   : 7s4p1d contracted to 3s2p1d pattern {511/31/1}
 Group   2 Type S   : 10s7p1d contracted to 4s3p1d pattern {5311/511/1}
 Group   3 Type O   : 7s4p1d contracted to 3s2p1d pattern {511/31/1}
 Group   4 Type F   : 7s4p1d contracted to 3s2p1d pattern {511/31/1}
 Group   5 Type H   : 4s1p contracted to 2s1p pattern {31/1}

Atom   0C    basis set group =>   1
Atom   1S    basis set group =>   2
Atom   2O    basis set group =>   3
Atom   3O    basis set group =>   3
Atom   4F    basis set group =>   4
Atom   5C    basis set group =>   1
Atom   6H    basis set group =>   5
Atom   7H    basis set group =>   5
Atom   8H    basis set group =>   5
Atom   9H    basis set group =>   5
Atom  10H    basis set group =>   5
---------------------------------
AUXILIARY/J BASIS SET INFORMATION
---------------------------------
There are 5 groups of distinct atoms

 Group   1 Type C   : 12s5p4d2f1g contracted to 6s4p3d1f1g pattern {711111/2111/211/2/1}
 Group   2 Type S   : 14s5p5d2f1g contracted to 8s4p3d1f1g pattern {71111111/2111/311/2/1}
 Group   3 Type O   : 12s5p4d2f1g contracted to 6s4p3d1f1g pattern {711111/2111/211/2/1}
 Group   4 Type F   : 12s5p4d2f1g contracted to 6s4p3d1f1g pattern {711111/2111/211/2/1}
 Group   5 Type H   : 5s2p1d contracted to 3s1p1d pattern {311/2/1}

Atom   0C    basis set group =>   1
Atom   1S    basis set group =>   2
Atom   2O    basis set group =>   3
Atom   3O    basis set group =>   3
Atom   4F    basis set group =>   4
Atom   5C    basis set group =>   1
Atom   6H    basis set group =>   5
Atom   7H    basis set group =>   5
Atom   8H    basis set group =>   5
Atom   9H    basis set group =>   5
Atom  10H    basis set group =>   5


           ************************************************************
           *        Program running with 4 parallel MPI-processes     *
           *              working on a common directory               *
           ************************************************************
------------------------------------------------------------------------------
                           ORCA GTO INTEGRAL CALCULATION
                           -- RI-GTO INTEGRALS CHOSEN --
------------------------------------------------------------------------------
------------------------------------------------------------------------------
                   ___                                                        
                  /   \      - P O W E R E D   B Y -                         
                 /     \                                                     
                 |  |  |   _    _      __       _____    __    __             
                 |  |  |  | |  | |    /  \     |  _  \  |  |  /  |          
                  \  \/   | |  | |   /    \    | | | |  |  | /  /          
                 / \  \   | |__| |  /  /\  \   | |_| |  |  |/  /          
                |  |  |   |  __  | /  /__\  \  |    /   |      \           
                |  |  |   | |  | | |   __   |  |    \   |  |\   \          
                \     /   | |  | | |  |  |  |  | |\  \  |  | \   \       
                 \___/    |_|  |_| |__|  |__|  |_| \__\ |__|  \__/        
                                                                              
                      - O R C A' S   B I G   F R I E N D -                    
                                      &                                       
                       - I N T E G R A L  F E E D E R -                       
                                                                              
 v1 FN, 2020, v2 2021                                                         
------------------------------------------------------------------------------


Reading SHARK input file SVP_wB97XD3_C3_wt_dlpno_neg.SHARKINP.tmp ... ok
----------------------
SHARK INTEGRAL PACKAGE
----------------------

Number of atoms                             ...     11
Number of basis functions                   ...    113
Number of shells                            ...     53
Maximum angular momentum                    ...      2
Integral batch strategy                     ... SHARK/LIBINT Hybrid
RI-J (if used) integral strategy            ... SPLIT-RIJ (Revised 2003 algorithm where possible)
Printlevel                                  ...      1
Contraction scheme used                     ... SEGMENTED contraction
Coulomb Range Separation                    ... NOT USED
Exchange Range Separation                   ... Long Range
   Mu parameter                             ...  0.250000
   Scaling (regular/separated)              ...  0.195728  0.804272
Finite Nucleus Model                        ... NOT USED
Auxiliary Coulomb fitting basis             ... AVAILABLE
   # of basis functions in Aux-J            ...    351
   # of shells in Aux-J                     ...    117
   Maximum angular momentum in Aux-J        ...      4
Auxiliary J/K fitting basis                 ... NOT available
Auxiliary Correlation fitting basis         ... NOT available
Auxiliary 'external' fitting basis          ... NOT available
Integral threshold                          ...     2.500000e-11
Primitive cut-off                           ...     2.500000e-12
Primitive pair pre-selection threshold      ...     2.500000e-12

Calculating pre-screening integrals         ... done (  0.0 sec) Dimension = 53
Organizing shell pair data                  ... done (  0.0 sec)
Shell pair information
Total number of shell pairs                 ...      1431
Shell pairs after pre-screening             ...      1380
Total number of primitive shell pairs       ...      5459
Primitive shell pairs kept                  ...      3966
          la=0 lb=0:    414 shell pairs
          la=1 lb=0:    504 shell pairs
          la=1 lb=1:    167 shell pairs
          la=2 lb=0:    169 shell pairs
          la=2 lb=1:    105 shell pairs
          la=2 lb=2:     21 shell pairs

Calculating one electron integrals          ... done (  0.0 sec)
Calculating RI/J V-Matrix + Cholesky decomp.... done (  0.0 sec)
Calculating Nuclear repulsion               ... done (  0.0 sec) ENN=    360.389013463034 Eh

SHARK setup successfully completed in   0.1 seconds

Maximum memory used throughout the entire GTOINT-calculation: 8.8 MB


           ************************************************************
           *        Program running with 4 parallel MPI-processes     *
           *              working on a common directory               *
           ************************************************************
-------------------------------------------------------------------------------
                                 ORCA SCF
-------------------------------------------------------------------------------

------------
SCF SETTINGS
------------
Hamiltonian:
 Density Functional     Method          .... DFT(GTOs)
 Exchange Functional    Exchange        .... WB97X-D3
 Correlation Functional Correlation     .... WB97X-D3
 Gradients option       PostSCFGGA      .... off
 Hybrid DFT is turned on
   Fraction HF Exchange ScalHFX         ....  0.195728
   Scaling of DF-GGA-X  ScalDFX         ....  0.000000
   Scaling of DF-GGA-C  ScalDFC         ....  1.000000
   Scaling of DF-LDA-C  ScalLDAC        ....  1.000000
   Perturbative correction              ....  0.000000
   Density functional embedding theory  .... OFF
 Long-range corrected/Screened/Range-Separated Hybrid DFT is turned on
   Amount of maximum screened exact exchange              ....  0.804272
   Range separation parameter mu (erf(mu*r12)/r12)        ....  0.250000
 RI-approximation to the Coulomb term is turned on
   Number of AuxJ basis functions       .... 351
   RIJ-COSX (HFX calculated with COS-X)).... on


General Settings:
 Integral files         IntName         .... SVP_wB97XD3_C3_wt_dlpno_neg
 Hartree-Fock type      HFTyp           .... RHF
 Total Charge           Charge          ....    0
 Multiplicity           Mult            ....    1
 Number of Electrons    NEL             ....   58
 Basis Dimension        Dim             ....  113
 Nuclear Repulsion      ENuc            ....    360.3890134630 Eh

Convergence Acceleration:
 DIIS                   CNVDIIS         .... on
   Start iteration      DIISMaxIt       ....    12
   Startup error        DIISStart       ....  0.200000
   # of expansion vecs  DIISMaxEq       ....     5
   Bias factor          DIISBfac        ....   1.050
   Max. coefficient     DIISMaxC        ....  10.000
 Trust-Rad. Augm. Hess. CNVTRAH         .... auto
   Auto Start mean grad. ratio tolernc. ....  1.125000
   Auto Start start iteration           ....    20
   Auto Start num. interpolation iter.  ....    10
   Max. Number of Micro iterations      ....    16
   Max. Number of Macro iterations      .... Maxiter - #DIIS iter
   Number of Davidson start vectors     ....     2
   Converg. threshold I  (grad. norm)   ....   1.000e-05
   Converg. threshold II (energy diff.) ....   1.000e-08
   Grad. Scal. Fac. for Micro threshold ....   0.100
   Minimum threshold for Micro iter.    ....   0.010
   NR start threshold (gradient norm)   ....   0.001
   Initial trust radius                 ....   0.400
   Minimum AH scaling param. (alpha)    ....   1.000
   Maximum AH scaling param. (alpha)    .... 1000.000
   Orbital update algorithm             .... Taylor
   White noise on init. David. guess    .... on
   Maximum white noise                  ....   0.010
   Quad. conv. algorithm                .... NR
 SOSCF                  CNVSOSCF        .... on
   Start iteration      SOSCFMaxIt      ....   150
   Startup grad/error   SOSCFStart      ....  0.003300
 Level Shifting         CNVShift        .... on
   Level shift para.    LevelShift      ....    0.2500
   Turn off err/grad.   ShiftErr        ....    0.0010
 Zerner damping         CNVZerner       .... off
 Static damping         CNVDamp         .... on
   Fraction old density DampFac         ....    0.7000
   Max. Damping (<1)    DampMax         ....    0.9800
   Min. Damping (>=0)   DampMin         ....    0.0000
   Turn off err/grad.   DampErr         ....    0.1000
 Fernandez-Rico         CNVRico         .... off

SCF Procedure:
 Maximum # iterations   MaxIter         ....   150
 SCF integral mode      SCFMode         .... Direct
   Integral package                     .... SHARK and LIBINT hybrid scheme
 Reset frequency        DirectResetFreq ....    20
 Integral Threshold     Thresh          ....  2.500e-11 Eh
 Primitive CutOff       TCut            ....  2.500e-12 Eh

Convergence Tolerance:
 Convergence Check Mode ConvCheckMode   .... Total+1el-Energy
 Convergence forced     ConvForced      .... 0
 Energy Change          TolE            ....  1.000e-08 Eh
 1-El. energy change                    ....  1.000e-05 Eh
 Orbital Gradient       TolG            ....  1.000e-05
 Orbital Rotation angle TolX            ....  1.000e-05
 DIIS Error             TolErr          ....  5.000e-07


Diagonalization of the overlap matrix:
Smallest eigenvalue                        ... 3.360e-03
Time for diagonalization                   ...    0.004 sec
Threshold for overlap eigenvalues          ... 1.000e-08
Number of eigenvalues below threshold      ... 0
Time for construction of square roots      ...    0.003 sec
Total time needed                          ...    0.007 sec

Time for model grid setup =    0.064 sec

------------------------------
INITIAL GUESS: MODEL POTENTIAL
------------------------------
Loading Hartree-Fock densities                     ... done
Calculating cut-offs                               ... done
Initializing the effective Hamiltonian             ... done
Setting up the integral package (SHARK)            ... done
Starting the Coulomb interaction                   ... done (   0.0 sec)
Reading the grid                                   ... done
Mapping shells                                     ... done
Starting the XC term evaluation                    ... done (   0.0 sec)
  promolecular density results
     # of electrons  =     57.996896630
     EX              =    -63.041787101
     EC              =     -2.061037465
     EX+EC           =    -65.102824566
Transforming the Hamiltonian                       ... done (   0.0 sec)
Diagonalizing the Hamiltonian                      ... done (   0.0 sec)
Back transforming the eigenvectors                 ... done (   0.0 sec)
Now organizing SCF variables                       ... done
                      ------------------
                      INITIAL GUESS DONE (   0.1 sec)
                      ------------------
-------------------
DFT GRID GENERATION
-------------------

General Integration Accuracy     IntAcc      ... 4.388
Radial Grid Type                 RadialGrid  ... OptM3 with GC (2021)
Angular Grid (max. ang.)         AngularGrid ... 4 (Lebedev-302)
Angular grid pruning method      GridPruning ... 4 (adaptive)
Weight generation scheme         WeightScheme... Becke
Basis function cutoff            BFCut       ... 1.0000e-11
Integration weight cutoff        WCut        ... 1.0000e-14
Angular grids for H and He will be reduced by one unit
Partially contracted basis set               ... off
Rotationally invariant grid construction     ... off

Total number of grid points                  ...    53877
Total number of batches                      ...      847
Average number of points per batch           ...       63
Average number of grid points per atom       ...     4898
Time for grid setup =    0.342 sec

--------------------
COSX GRID GENERATION
--------------------

GRIDX 1
-------
General Integration Accuracy     IntAcc      ... 3.816
Radial Grid Type                 RadialGrid  ... OptM3 with GC (2021)
Angular Grid (max. ang.)         AngularGrid ... 1 (Lebedev-50)
Angular grid pruning method      GridPruning ... 4 (adaptive)
Weight generation scheme         WeightScheme... Becke
Basis function cutoff            BFCut       ... 1.0000e-11
Integration weight cutoff        WCut        ... 1.0000e-14
Angular grids for H and He will be reduced by one unit
Partially contracted basis set               ... on
Rotationally invariant grid construction     ... off

Total number of grid points                  ...     6798
Total number of batches                      ...      112
Average number of points per batch           ...       60
Average number of grid points per atom       ...      618
UseSFitting                                  ... on

GRIDX 2
-------
General Integration Accuracy     IntAcc      ... 4.020
Radial Grid Type                 RadialGrid  ... OptM3 with GC (2021)
Angular Grid (max. ang.)         AngularGrid ... 2 (Lebedev-110)
Angular grid pruning method      GridPruning ... 4 (adaptive)
Weight generation scheme         WeightScheme... Becke
Basis function cutoff            BFCut       ... 1.0000e-11
Integration weight cutoff        WCut        ... 1.0000e-14
Angular grids for H and He will be reduced by one unit
Partially contracted basis set               ... on
Rotationally invariant grid construction     ... off

Total number of grid points                  ...    14993
Total number of batches                      ...      239
Average number of points per batch           ...       62
Average number of grid points per atom       ...     1363
UseSFitting                                  ... on

GRIDX 3
-------
General Integration Accuracy     IntAcc      ... 4.338
Radial Grid Type                 RadialGrid  ... OptM3 with GC (2021)
Angular Grid (max. ang.)         AngularGrid ... 3 (Lebedev-194)
Angular grid pruning method      GridPruning ... 4 (adaptive)
Weight generation scheme         WeightScheme... Becke
Basis function cutoff            BFCut       ... 1.0000e-11
Integration weight cutoff        WCut        ... 1.0000e-14
Angular grids for H and He will be reduced by one unit
Partially contracted basis set               ... on
Rotationally invariant grid construction     ... off

Total number of grid points                  ...    33675
Total number of batches                      ...      530
Average number of points per batch           ...       63
Average number of grid points per atom       ...     3061
UseSFitting                                  ... on

Time for X-Grid setup             =    0.281 sec

--------------
SCF ITERATIONS
--------------
ITER       Energy         Delta-E        Max-DP      RMS-DP      [F,P]     Damp
               ***  Starting incremental Fock matrix formation  ***
  0   -726.8188480822   0.000000000000 0.17364965  0.00394597  0.2911427 0.7000
  1   -726.9672219329  -0.148373850738 0.09570420  0.00241825  0.1297303 0.7000
                               ***Turning on DIIS***
  2   -727.0263732930  -0.059151360110 0.09462859  0.00348914  0.0497256 0.0000
  3   -727.1255547460  -0.099181452916 0.08427781  0.00177239  0.0652765 0.0000
  4   -727.1429732226  -0.017418476616 0.01009932  0.00030550  0.0102434 0.0000
                      *** Initiating the SOSCF procedure ***
                           *** Shutting down DIIS ***
                      *** Re-Reading the Fockian *** 
                      *** Removing any level shift *** 
ITER      Energy       Delta-E        Grad      Rot      Max-DP    RMS-DP
  5   -727.14342770  -0.0004544739  0.000637  0.000637  0.001920  0.000077
               *** Restarting incremental Fock matrix formation ***
  6   -727.14343988  -0.0000121800  0.000258  0.000443  0.000839  0.000044
  7   -727.14344252  -0.0000026438  0.000261  0.000210  0.000465  0.000024
  8   -727.14344392  -0.0000014031  0.000036  0.000032  0.000346  0.000007
  9   -727.14344397  -0.0000000431  0.000024  0.000013  0.000128  0.000003
 10   -727.14344399  -0.0000000250  0.000009  0.000008  0.000027  0.000001
 11   -727.14344399  -0.0000000029  0.000004  0.000003  0.000021  0.000000
                  ***Gradient check signals convergence***
              ***Rediagonalizing the Fockian in SOSCF/NRSCF***

               *****************************************************
               *                     SUCCESS                       *
               *           SCF CONVERGED AFTER  12 CYCLES          *
               *****************************************************

Old exchange energy                            =    -18.784351463 Eh
New exchange energy                            =    -18.784402641 Eh
Exchange energy change after final integration =     -0.000051178 Eh
Total energy after final integration           =   -727.143495169 Eh
Final COS-X integration done in                =     2.018 sec

----------------
TOTAL SCF ENERGY
----------------

Total Energy       :         -727.14349517 Eh          -19786.58043 eV

Components:
Nuclear Repulsion  :          360.38901346 Eh            9806.68362 eV
Electronic Energy  :        -1087.53250863 Eh          -29593.26405 eV
One Electron Energy:        -1715.79085884 Eh          -46689.04289 eV
Two Electron Energy:          628.25835021 Eh           17095.77884 eV
Max COSX asymmetry :            0.00000463 Eh               0.00013 eV

Virial components:
Potential Energy   :        -1451.06550144 Eh          -39485.49970 eV
Kinetic Energy     :          723.92200627 Eh           19698.91926 eV
Virial Ratio       :            2.00445005


DFT components:
N(Alpha)           :       29.000009805603 electrons
N(Beta)            :       29.000009805603 electrons
N(Total)           :       58.000019611206 electrons
E(XC)              :      -47.341368007965 Eh       
DFET-embed. en.    :        0.000000000000 Eh       

---------------
SCF CONVERGENCE
---------------

  Last Energy change         ...    3.1425e-09  Tolerance :   1.0000e-08
  Last MAX-Density change    ...    2.2204e-15  Tolerance :   1.0000e-07
  Last RMS-Density change    ...    5.1257e-17  Tolerance :   5.0000e-09
  Last Orbital Gradient      ...    8.5356e-07  Tolerance :   1.0000e-05
  Last Orbital Rotation      ...    1.0092e-06  Tolerance :   1.0000e-05

             **** THE GBW FILE WAS UPDATED (SVP_wB97XD3_C3_wt_dlpno_neg.gbw) ****
             **** DENSITY SVP_wB97XD3_C3_wt_dlpno_neg.scfp WAS UPDATED ****
             **** ENERGY FILE WAS UPDATED (SVP_wB97XD3_C3_wt_dlpno_neg.en.tmp) ****
             **** THE GBW FILE WAS UPDATED (SVP_wB97XD3_C3_wt_dlpno_neg.gbw) ****
             **** DENSITY SVP_wB97XD3_C3_wt_dlpno_neg.scfp WAS UPDATED ****
----------------
ORBITAL ENERGIES
----------------

  NO   OCC          E(Eh)            E(eV) 
   0   2.0000     -89.210868     -2427.5511 
   1   2.0000     -24.890021      -677.2919 
   2   2.0000     -19.246737      -523.7303 
   3   2.0000     -19.229800      -523.2695 
   4   2.0000     -10.349246      -281.6173 
   5   2.0000     -10.318784      -280.7884 
   6   2.0000      -8.293810      -225.6860 
   7   2.0000      -6.256879      -170.2583 
   8   2.0000      -6.250374      -170.0813 
   9   2.0000      -6.249336      -170.0531 
  10   2.0000      -1.456770       -39.6407 
  11   2.0000      -1.221078       -33.2272 
  12   2.0000      -1.114375       -30.3237 
  13   2.0000      -0.936993       -25.4969 
  14   2.0000      -0.829680       -22.5767 
  15   2.0000      -0.782999       -21.3065 
  16   2.0000      -0.688035       -18.7224 
  17   2.0000      -0.666816       -18.1450 
  18   2.0000      -0.639072       -17.3900 
  19   2.0000      -0.598593       -16.2885 
  20   2.0000      -0.571933       -15.5631 
  21   2.0000      -0.549515       -14.9531 
  22   2.0000      -0.535427       -14.5697 
  23   2.0000      -0.509404       -13.8616 
  24   2.0000      -0.493215       -13.4211 
  25   2.0000      -0.476767       -12.9735 
  26   2.0000      -0.424255       -11.5446 
  27   2.0000      -0.409458       -11.1419 
  28   2.0000      -0.396556       -10.7908 
  29   0.0000       0.104556         2.8451 
  30   0.0000       0.145083         3.9479 
  31   0.0000       0.165522         4.5041 
  32   0.0000       0.170577         4.6416 
  33   0.0000       0.184639         5.0243 
  34   0.0000       0.189867         5.1665 
  35   0.0000       0.194580         5.2948 
  36   0.0000       0.215586         5.8664 
  37   0.0000       0.256263         6.9733 
  38   0.0000       0.307955         8.3799 
  39   0.0000       0.432942        11.7809 
  40   0.0000       0.483636        13.1604 
  41   0.0000       0.511313        13.9135 
  42   0.0000       0.533141        14.5075 
  43   0.0000       0.549818        14.9613 
  44   0.0000       0.589622        16.0444 
  45   0.0000       0.689373        18.7588 
  46   0.0000       0.713202        19.4072 
  47   0.0000       0.715977        19.4827 
  48   0.0000       0.732271        19.9261 
  49   0.0000       0.734952        19.9991 
  50   0.0000       0.751944        20.4614 
  51   0.0000       0.777803        21.1651 
  52   0.0000       0.780017        21.2253 
  53   0.0000       0.798912        21.7395 
  54   0.0000       0.820287        22.3211 
  55   0.0000       0.826081        22.4788 
  56   0.0000       0.860672        23.4201 
  57   0.0000       0.941193        25.6112 
  58   0.0000       0.951525        25.8923 
  59   0.0000       0.986873        26.8542 
  60   0.0000       1.078443        29.3459 
  61   0.0000       1.097534        29.8654 
  62   0.0000       1.106664        30.1139 
  63   0.0000       1.141533        31.0627 
  64   0.0000       1.166146        31.7324 
  65   0.0000       1.220126        33.2013 
  66   0.0000       1.244051        33.8523 
  67   0.0000       1.278406        34.7872 
  68   0.0000       1.289796        35.0971 
  69   0.0000       1.372327        37.3429 
  70   0.0000       1.393370        37.9155 
  71   0.0000       1.427068        38.8325 
  72   0.0000       1.431614        38.9562 
  73   0.0000       1.535469        41.7822 
  74   0.0000       1.586975        43.1838 
  75   0.0000       1.626827        44.2682 
  76   0.0000       1.660401        45.1818 
  77   0.0000       1.807601        49.1873 
  78   0.0000       1.824165        49.6381 
  79   0.0000       1.850049        50.3424 
  80   0.0000       1.867480        50.8167 
  81   0.0000       1.922796        52.3219 
  82   0.0000       1.950806        53.0841 
  83   0.0000       1.957893        53.2770 
  84   0.0000       1.965621        53.4873 
  85   0.0000       2.034802        55.3698 
  86   0.0000       2.172729        59.1230 
  87   0.0000       2.268004        61.7155 
  88   0.0000       2.318206        63.0816 
  89   0.0000       2.455470        66.8167 
  90   0.0000       2.496057        67.9212 
  91   0.0000       2.606087        70.9152 
  92   0.0000       2.657124        72.3040 
  93   0.0000       2.711377        73.7803 
  94   0.0000       2.715364        73.8888 
  95   0.0000       2.734878        74.4198 
  96   0.0000       2.737752        74.4980 
  97   0.0000       2.754424        74.9517 
  98   0.0000       2.834830        77.1397 
  99   0.0000       2.869977        78.0960 
 100   0.0000       2.891424        78.6797 
 101   0.0000       2.962692        80.6190 
 102   0.0000       3.008561        81.8671 
 103   0.0000       3.021246        82.2123 
 104   0.0000       3.059355        83.2493 
 105   0.0000       3.072369        83.6034 
 106   0.0000       3.107554        84.5608 
 107   0.0000       3.127404        85.1010 
 108   0.0000       3.228099        87.8410 
 109   0.0000       3.296613        89.7054 
 110   0.0000       3.351783        91.2066 
 111   0.0000       3.524113        95.8960 
 112   0.0000       3.722431       101.2925 

                    ********************************
                    * MULLIKEN POPULATION ANALYSIS *
                    ********************************

-----------------------
MULLIKEN ATOMIC CHARGES
-----------------------
   0 C :   -0.183940
   1 S :    0.976867
   2 O :   -0.435137
   3 O :   -0.486117
   4 F :   -0.210178
   5 C :   -0.039065
   6 H :    0.111599
   7 H :    0.093179
   8 H :    0.060416
   9 H :    0.051902
  10 H :    0.060474
Sum of atomic charges:    0.0000000

--------------------------------
MULLIKEN REDUCED ORBITAL CHARGES
--------------------------------
  0 C s       :     3.112457  s :     3.112457
      pz      :     1.087919  p :     3.037768
      px      :     0.961797
      py      :     0.988052
      dz2     :     0.009127  d :     0.033715
      dxz     :     0.005622
      dyz     :     0.003458
      dx2y2   :     0.003612
      dxy     :     0.011897
  1 S s       :     5.304955  s :     5.304955
      pz      :     2.852773  p :     8.902001
      px      :     3.033583
      py      :     3.015645
      dz2     :     0.200708  d :     0.816177
      dxz     :     0.128546
      dyz     :     0.139190
      dx2y2   :     0.147074
      dxy     :     0.200659
  2 O s       :     3.831245  s :     3.831245
      pz      :     1.570738  p :     4.584176
      px      :     1.405400
      py      :     1.608038
      dz2     :     0.002509  d :     0.019715
      dxz     :     0.004963
      dyz     :     0.001757
      dx2y2   :     0.005174
      dxy     :     0.005312
  3 O s       :     3.853274  s :     3.853274
      pz      :     1.500230  p :     4.615102
      px      :     1.681688
      py      :     1.433184
      dz2     :     0.003033  d :     0.017741
      dxz     :     0.001939
      dyz     :     0.005511
      dx2y2   :     0.003773
      dxy     :     0.003485
  4 F s       :     3.909136  s :     3.909136
      pz      :     1.544900  p :     5.290139
      px      :     1.879675
      py      :     1.865565
      dz2     :     0.005163  d :     0.010903
      dxz     :     0.002438
      dyz     :     0.002903
      dx2y2   :     0.000194
      dxy     :     0.000205
  5 C s       :     3.004840  s :     3.004840
      pz      :     0.985098  p :     3.006104
      px      :     0.971640
      py      :     1.049367
      dz2     :     0.006580  d :     0.028121
      dxz     :     0.007297
      dyz     :     0.003202
      dx2y2   :     0.003156
      dxy     :     0.007886
  6 H s       :     0.865240  s :     0.865240
      pz      :     0.013075  p :     0.023161
      px      :     0.005401
      py      :     0.004685
  7 H s       :     0.883740  s :     0.883740
      pz      :     0.004297  p :     0.023080
      px      :     0.006068
      py      :     0.012715
  8 H s       :     0.914546  s :     0.914546
      pz      :     0.005653  p :     0.025038
      px      :     0.009283
      py      :     0.010103
  9 H s       :     0.923289  s :     0.923289
      pz      :     0.012689  p :     0.024809
      px      :     0.006157
      py      :     0.005963
 10 H s       :     0.914694  s :     0.914694
      pz      :     0.004931  p :     0.024832
      px      :     0.006873
      py      :     0.013028


                     *******************************
                     * LOEWDIN POPULATION ANALYSIS *
                     *******************************

----------------------
LOEWDIN ATOMIC CHARGES
----------------------
   0 C :   -0.153825
   1 S :    1.171643
   2 O :   -0.475023
   3 O :   -0.526330
   4 F :   -0.155048
   5 C :   -0.059494
   6 H :    0.053051
   7 H :    0.041720
   8 H :    0.040535
   9 H :    0.029725
  10 H :    0.033046

-------------------------------
LOEWDIN REDUCED ORBITAL CHARGES
-------------------------------
  0 C s       :     2.900082  s :     2.900082
      pz      :     1.090710  p :     3.174650
      px      :     1.034544
      py      :     1.049396
      dz2     :     0.020593  d :     0.079093
      dxz     :     0.015509
      dyz     :     0.007009
      dx2y2   :     0.009038
      dxy     :     0.026944
  1 S s       :     5.035990  s :     5.035990
      pz      :     2.820979  p :     8.733006
      px      :     2.962924
      py      :     2.949103
      dz2     :     0.275939  d :     1.059362
      dxz     :     0.157559
      dyz     :     0.185081
      dx2y2   :     0.179049
      dxy     :     0.261734
  2 O s       :     3.671149  s :     3.671149
      pz      :     1.608424  p :     4.772684
      px      :     1.516292
      py      :     1.647968
      dz2     :     0.003918  d :     0.031190
      dxz     :     0.007530
      dyz     :     0.002547
      dx2y2   :     0.007651
      dxy     :     0.009545
  3 O s       :     3.699772  s :     3.699772
      pz      :     1.567431  p :     4.798471
      px      :     1.703331
      py      :     1.527708
      dz2     :     0.003577  d :     0.028087
      dxz     :     0.002654
      dyz     :     0.010676
      dx2y2   :     0.006215
      dxy     :     0.004965
  4 F s       :     3.779516  s :     3.779516
      pz      :     1.607807  p :     5.359233
      px      :     1.881357
      py      :     1.870069
      dz2     :     0.008904  d :     0.016299
      dxz     :     0.002972
      dyz     :     0.003955
      dx2y2   :     0.000227
      dxy     :     0.000242
  5 C s       :     2.819627  s :     2.819627
      pz      :     1.042924  p :     3.166631
      px      :     1.039329
      py      :     1.084378
      dz2     :     0.016378  d :     0.073236
      dxz     :     0.020644
      dyz     :     0.007528
      dx2y2   :     0.008365
      dxy     :     0.020322
  6 H s       :     0.874800  s :     0.874800
      pz      :     0.040162  p :     0.072149
      px      :     0.018197
      py      :     0.013790
  7 H s       :     0.885816  s :     0.885816
      pz      :     0.014590  p :     0.072463
      px      :     0.018264
      py      :     0.039609
  8 H s       :     0.889040  s :     0.889040
      pz      :     0.016205  p :     0.070425
      px      :     0.026559
      py      :     0.027660
  9 H s       :     0.899891  s :     0.899891
      pz      :     0.036004  p :     0.070384
      px      :     0.018056
      py      :     0.016324
 10 H s       :     0.896350  s :     0.896350
      pz      :     0.014189  p :     0.070605
      px      :     0.020388
      py      :     0.036028


                      *****************************
                      * MAYER POPULATION ANALYSIS *
                      *****************************

  NA   - Mulliken gross atomic population
  ZA   - Total nuclear charge
  QA   - Mulliken gross atomic charge
  VA   - Mayer's total valence
  BVA  - Mayer's bonded valence
  FA   - Mayer's free valence

  ATOM       NA         ZA         QA         VA         BVA        FA
  0 C      6.1839     6.0000    -0.1839     3.9689     3.9689     0.0000
  1 S     15.0231    16.0000     0.9769     5.4925     5.4925     0.0000
  2 O      8.4351     8.0000    -0.4351     1.9854     1.9854     0.0000
  3 O      8.4861     8.0000    -0.4861     1.9270     1.9270     0.0000
  4 F      9.2102     9.0000    -0.2102     1.1125     1.1125    -0.0000
  5 C      6.0391     6.0000    -0.0391     3.9869     3.9869     0.0000
  6 H      0.8884     1.0000     0.1116     0.9905     0.9905     0.0000
  7 H      0.9068     1.0000     0.0932     0.9882     0.9882     0.0000
  8 H      0.9396     1.0000     0.0604     0.9926     0.9926     0.0000
  9 H      0.9481     1.0000     0.0519     0.9923     0.9923     0.0000
 10 H      0.9395     1.0000     0.0605     0.9902     0.9902     0.0000

  Mayer bond orders larger than 0.100000
B(  0-C ,  1-S ) :   0.9158 B(  0-C ,  5-C ) :   1.0517 B(  0-C ,  6-H ) :   0.9382 
B(  0-C ,  7-H ) :   0.9424 B(  1-S ,  2-O ) :   1.8046 B(  1-S ,  3-O ) :   1.7545 
B(  1-S ,  4-F ) :   0.9872 B(  5-C ,  8-H ) :   0.9660 B(  5-C ,  9-H ) :   0.9758 
B(  5-C , 10-H ) :   0.9747 

-------
TIMINGS
-------

Total SCF time: 0 days 0 hours 0 min 13 sec 

Total time                  ....      13.466 sec
Sum of individual times     ....      13.316 sec  ( 98.9%)

Fock matrix formation       ....      12.503 sec  ( 92.8%)
  Split-RI-J                ....       0.647 sec  (  5.2% of F)
  Chain of spheres X        ....      10.319 sec  ( 82.5% of F)
  XC integration            ....       1.512 sec  ( 12.1% of F)
    Basis function eval.    ....       0.597 sec  ( 39.5% of XC)
    Density eval.           ....       0.283 sec  ( 18.7% of XC)
    XC-Functional eval.     ....       0.288 sec  ( 19.0% of XC)
    XC-Potential eval.      ....       0.245 sec  ( 16.2% of XC)
Diagonalization             ....       0.022 sec  (  0.2%)
Density matrix formation    ....       0.002 sec  (  0.0%)
Population analysis         ....       0.005 sec  (  0.0%)
Initial guess               ....       0.062 sec  (  0.5%)
Orbital Transformation      ....       0.000 sec  (  0.0%)
Orbital Orthonormalization  ....       0.000 sec  (  0.0%)
DIIS solution               ....       0.015 sec  (  0.1%)
SOSCF solution              ....       0.019 sec  (  0.1%)
Grid generation             ....       0.688 sec  (  5.1%)

Maximum memory used throughout the entire SCF-calculation: 48.3 MB


-------------------------------------------------------------------------------
                          DFT DISPERSION CORRECTION                            
                                                                               
                              DFTD3 V3.1  Rev 1                                
                              USING zero damping                               
-------------------------------------------------------------------------------
The omegaB97X-D3 functional is recognized. Fit by Chai et al.
Active option DFTDOPT                   ...         3   

molecular C6(AA) [au] = 1445.774125 


            DFT-D V3
 parameters
 s6 scaling factor         :     1.0000 
 rs6 scaling factor        :     1.2810 
 s8 scaling factor         :     1.0000 
 rs8 scaling factor        :     1.0940 
 Damping factor alpha6     :    14.0000 
 Damping factor alpha8     :    16.0000 
 ad hoc parameters k1-k3   :    16.0000     1.3333    -4.0000 

 Edisp/kcal,au: -1.753058385514  -0.002793676065 
 E6   /kcal   :  -0.636302352 
 E8   /kcal   :  -1.116756034 
 % E8         :  63.703299488 

-------------------------   ----------------
Dispersion correction           -0.002793676
-------------------------   ----------------


-------------------------   --------------------
FINAL SINGLE POINT ENERGY      -727.146288845519
-------------------------   --------------------


                            ***************************************
                            *     ORCA property calculations      *
                            ***************************************

                                    ---------------------
                                    Active property flags
                                    ---------------------
   (+) Dipole Moment


------------------------------------------------------------------------------
                       ORCA ELECTRIC PROPERTIES CALCULATION
------------------------------------------------------------------------------

Dipole Moment Calculation                       ... on
Quadrupole Moment Calculation                   ... off
Polarizability Calculation                      ... off
GBWName                                         ... SVP_wB97XD3_C3_wt_dlpno_neg.gbw
Electron density file                           ... SVP_wB97XD3_C3_wt_dlpno_neg.scfp
The origin for moment calculation is the CENTER OF MASS  = (-12.314218, -9.103531 -0.746490)

-------------
DIPOLE MOMENT
-------------
                                X             Y             Z
Electronic contribution:     -7.27114       5.17592       1.32044
Nuclear contribution   :      8.50531      -6.23950      -0.59960
                        -----------------------------------------
Total Dipole Moment    :      1.23417      -1.06358       0.72084
                        -----------------------------------------
Magnitude (a.u.)       :      1.78157
Magnitude (Debye)      :      4.52839



--------------------
Rotational spectrum 
--------------------
 
Rotational constants in cm-1:     0.152799     0.080212     0.076962 
Rotational constants in MHz :  4580.804531  2404.707790  2307.252710 

 Dipole components along the rotational axes: 
x,y,z [a.u.] :    -1.722080     0.187048     0.416471 
x,y,z [Debye]:    -4.377180     0.475439     1.058584 

 

Timings for individual modules:

Sum of individual times         ...       16.833 sec (=   0.281 min)
GTO integral calculation        ...        2.360 sec (=   0.039 min)  14.0 %
SCF iterations                  ...       14.473 sec (=   0.241 min)  86.0 %
                             ****ORCA TERMINATED NORMALLY****
TOTAL RUN TIME: 0 days 0 hours 0 minutes 17 seconds 361 msec
