
                                        *****************
                                        * O   R   C   A *
                                        *****************

                                            #,                                       
                                            ###                                      
                                            ####                                     
                                            #####                                    
                                            ######                                   
                                           ########,                                 
                                     ,,################,,,,,                         
                               ,,#################################,,                 
                          ,,##########################################,,             
                       ,#########################################, ''#####,          
                    ,#############################################,,   '####,        
                  ,##################################################,,,,####,       
                ,###########''''           ''''###############################       
              ,#####''   ,,,,##########,,,,          '''####'''          '####       
            ,##' ,,,,###########################,,,                        '##       
           ' ,,###''''                  '''############,,,                           
         ,,##''                                '''############,,,,        ,,,,,,###''
      ,#''                                            '''#######################'''  
     '                                                          ''''####''''         
             ,#######,   #######,   ,#######,      ##                                
            ,#'     '#,  ##    ##  ,#'     '#,    #''#        ######   ,####,        
            ##       ##  ##   ,#'  ##            #'  '#       #        #'  '#        
            ##       ##  #######   ##           ,######,      #####,   #    #        
            '#,     ,#'  ##    ##  '#,     ,#' ,#      #,         ##   #,  ,#        
             '#######'   ##     ##  '#######'  #'      '#     #####' # '####'        



                  #######################################################
                  #                        -***-                        #
                  #          Department of theory and spectroscopy      #
                  #    Directorship and core code : Frank Neese         #
                  #        Max Planck Institute fuer Kohlenforschung    #
                  #                Kaiser Wilhelm Platz 1               #
                  #                 D-45470 Muelheim/Ruhr               #
                  #                      Germany                        #
                  #                                                     #
                  #                  All rights reserved                #
                  #                        -***-                        #
                  #######################################################


                         Program Version 5.0.0 -  RELEASE  -
                                (SVN: $Rev: 19529$)
                ($Date: 2021-06-28 11:36:33 +0200 (Mo, 28 Jun 2021) $)


 With contributions from (in alphabetic order):
   Daniel Aravena         : Magnetic Suceptibility
   Michael Atanasov       : Ab Initio Ligand Field Theory (pilot matlab implementation)
   Alexander A. Auer      : GIAO ZORA, VPT2 properties, NMR spectrum
   Ute Becker             : Parallelization
   Giovanni Bistoni       : ED, misc. LED, open-shell LED, HFLD
   Martin Brehm           : Molecular dynamics
   Dmytro Bykov           : SCF Hessian
   Vijay G. Chilkuri      : MRCI spin determinant printing, contributions to CSF-ICE
   Dipayan Datta          : RHF DLPNO-CCSD density
   Achintya Kumar Dutta   : EOM-CC, STEOM-CC
   Dmitry Ganyushin       : Spin-Orbit,Spin-Spin,Magnetic field MRCI
   Miquel Garcia          : C-PCM Hessian, Gaussian charge scheme
   Yang Guo               : DLPNO-NEVPT2, F12-NEVPT2, CIM, IAO-localization
   Andreas Hansen         : Spin unrestricted coupled pair/coupled cluster methods
   Benjamin Helmich-Paris : MC-RPA, TRAH-SCF, COSX integrals
   Lee Huntington         : MR-EOM, pCC
   Robert Izsak           : Overlap fitted RIJCOSX, COSX-SCS-MP3, EOM
   Marcus Kettner         : VPT2
   Christian Kollmar      : KDIIS, OOCD, Brueckner-CCSD(T), CCSD density, CASPT2, CASPT2-K
   Simone Kossmann        : Meta GGA functionals, TD-DFT gradient, OOMP2, MP2 Hessian
   Martin Krupicka        : Initial AUTO-CI
   Lucas Lang             : DCDCAS
   Marvin Lechner         : AUTO-CI (C++ implementation), FIC-MRCC
   Dagmar Lenk            : GEPOL surface, SMD
   Dimitrios Liakos       : Extrapolation schemes; Compound Job, initial MDCI parallelization
   Dimitrios Manganas     : Further ROCIS development; embedding schemes
   Dimitrios Pantazis     : SARC Basis sets
   Anastasios Papadopoulos: AUTO-CI, single reference methods and gradients
   Taras Petrenko         : DFT Hessian,TD-DFT gradient, ASA, ECA, R-Raman, ABS, FL, XAS/XES, NRVS
   Peter Pinski           : DLPNO-MP2, DLPNO-MP2 Gradient
   Christoph Reimann      : Effective Core Potentials
   Marius Retegan         : Local ZFS, SOC
   Christoph Riplinger    : Optimizer, TS searches, QM/MM, DLPNO-CCSD(T), (RO)-DLPNO pert. Triples
   Tobias Risthaus        : Range-separated hybrids, TD-DFT gradient, RPA, STAB
   Michael Roemelt        : Original ROCIS implementation
   Masaaki Saitow         : Open-shell DLPNO-CCSD energy and density
   Barbara Sandhoefer     : DKH picture change effects
   Avijit Sen             : IP-ROCIS
   Kantharuban Sivalingam : CASSCF convergence, NEVPT2, FIC-MRCI
   Bernardo de Souza      : ESD, SOC TD-DFT
   Georgi Stoychev        : AutoAux, RI-MP2 NMR
   Willem Van den Heuvel  : Paramagnetic NMR
   Boris Wezisla          : Elementary symmetry handling
   Frank Wennmohs         : Technical directorship


 We gratefully acknowledge several colleagues who have allowed us to
 interface, adapt or use parts of their codes:
   Stefan Grimme, W. Hujo, H. Kruse, P. Pracht,  : VdW corrections, initial TS optimization,
                  C. Bannwarth, S. Ehlert          DFT functionals, gCP, sTDA/sTD-DF
   Ed Valeev, F. Pavosevic, A. Kumar             : LibInt (2-el integral package), F12 methods
   Garnet Chan, S. Sharma, J. Yang, R. Olivares  : DMRG
   Ulf Ekstrom                                   : XCFun DFT Library
   Mihaly Kallay                                 : mrcc  (arbitrary order and MRCC methods)
   Jiri Pittner, Ondrej Demel                    : Mk-CCSD
   Frank Weinhold                                : gennbo (NPA and NBO analysis)
   Christopher J. Cramer and Donald G. Truhlar   : smd solvation model
   Lars Goerigk                                  : TD-DFT with DH, B97 family of functionals
   V. Asgeirsson, H. Jonsson                     : NEB implementation
   FAccTs GmbH                                   : IRC, NEB, NEB-TS, DLPNO-Multilevel, CI-OPT
                                                   MM, QMMM, 2- and 3-layer-ONIOM, Crystal-QMMM,
                                                   LR-CPCM, SF, NACMEs, symmetry and pop. for TD-DFT,
                                                   nearIR, NL-DFT gradient (VV10), updates on ESD,
                                                   ML-optimized integration grids
   S Lehtola, MJT Oliveira, MAL Marques          : LibXC Library
   Liviu Ungur et al                             : ANISO software


 Your calculation uses the libint2 library for the computation of 2-el integrals
 For citations please refer to: http://libint.valeyev.net

 Your ORCA version has been built with support for libXC version: 5.1.0
 For citations please refer to: https://tddft.org/programs/libxc/

 This ORCA versions uses:
   CBLAS   interface :  Fast vector & matrix operations
   LAPACKE interface :  Fast linear algebra routines
   SCALAPACK package :  Parallel linear algebra routines
   Shared memory     :  Shared parallel matrices
   BLAS/LAPACK       :  OpenBLAS 0.3.15  USE64BITINT DYNAMIC_ARCH NO_AFFINITY Haswell SINGLE_THREADED
        Core in use  :  Haswell
   Copyright (c) 2011-2014, The OpenBLAS Project


Your calculation utilizes the atom-pairwise dispersion correction
with the zero-damping scheme (D30)
Cite in your paper:
S.Grimme, J.Antony, S.Ehrlich and H.Krieg, J.Chem.Phys., 132, (2010), 154104 
   

XCFun DFT library Copyright 2009-2010 Ulf Ekstrom and contributors.
See http://admol.org/xcfun for more information.
This is free software; see the source code for copying conditions.
There is ABSOLUTELY NO WARRANTY; not even for MERCHANTABILITY or FITNESS FOR A PARTICULAR PURPOSE.
For details see the documentation.
Scientific users of this library should cite U. Ekstrom, L. Visscher, R. Bast, A. J. Thorvaldsen and K. Ruud;
J.Chem.Theor.Comp. 2010, DOI: 10.1021/ct100117s
XCFun Version 0.99 

================================================================================

----- Orbital basis set information -----
Your calculation utilizes the basis: def2-TZVPD
   F. Weigend and R. Ahlrichs, Phys. Chem. Chem. Phys. 7, 3297 (2005).
   D. Rappoport and F. Furche, J. Chem. Phys. 133 134105 (2010).

----- AuxJ basis set information -----
Your calculation utilizes the auxiliary basis: def2/J
   F. Weigend, Phys. Chem. Chem. Phys. 8, 1057 (2006).

================================================================================
                                        WARNINGS
                       Please study these warnings very carefully!
================================================================================


INFO   : the flag for use of the SHARK integral package has been found!

================================================================================
                                       INPUT FILE
================================================================================
NAME = C1_neg.com
|  1> !wB97X-D3 RIJCOSX def2-TZVPD def2/J TightSCF 
|  2> *xyz 0 1 
|  3> C         -0.15102        0.25496       -4.09426
|  4> C         -0.72184       -0.99951       -3.43931
|  5> H         -1.08340       -1.69755       -4.20566
|  6> H         -1.58106       -0.72385       -2.82049
|  7> C          0.28725       -1.71177       -2.52740
|  8> H          1.13178       -2.06738       -3.15940
|  9> H         -0.20414       -2.63733       -2.17048
| 10> F          0.71050       -0.92751       -1.48177
| 11> H         -0.89787        0.70479       -4.71455
| 12> H          0.69695       -0.00870       -4.69119
| 13> H          0.14812        0.94842       -3.33628
| 14> *
| 15> %MaxCore 64000
| 16> 
| 17> %pal nprocs 18
| 18> end  
| 19> 
| 20> %scf
| 21>   MaxIter 150
| 22> end
| 23> 
| 24> 
| 25>                          ****END OF INPUT****
================================================================================

                       ****************************
                       * Single Point Calculation *
                       ****************************

---------------------------------
CARTESIAN COORDINATES (ANGSTROEM)
---------------------------------
  C     -0.151020    0.254960   -4.094260
  C     -0.721840   -0.999510   -3.439310
  H     -1.083400   -1.697550   -4.205660
  H     -1.581060   -0.723850   -2.820490
  C      0.287250   -1.711770   -2.527400
  H      1.131780   -2.067380   -3.159400
  H     -0.204140   -2.637330   -2.170480
  F      0.710500   -0.927510   -1.481770
  H     -0.897870    0.704790   -4.714550
  H      0.696950   -0.008700   -4.691190
  H      0.148120    0.948420   -3.336280

----------------------------
CARTESIAN COORDINATES (A.U.)
----------------------------
  NO LB      ZA    FRAG     MASS         X           Y           Z
   0 C     6.0000    0    12.011   -0.285386    0.481805   -7.737030
   1 C     6.0000    0    12.011   -1.364080   -1.888800   -6.499354
   2 H     1.0000    0     1.008   -2.047329   -3.207905   -7.947546
   3 H     1.0000    0     1.008   -2.987770   -1.367878   -5.329954
   4 C     6.0000    0    12.011    0.542824   -3.234777   -4.776094
   5 H     1.0000    0     1.008    2.138754   -3.906782   -5.970401
   6 H     1.0000    0     1.008   -0.385769   -4.983831   -4.101613
   7 F     9.0000    0    18.998    1.342650   -1.752740   -2.800139
   8 H     1.0000    0     1.008   -1.696728    1.331860   -8.909208
   9 H     1.0000    0     1.008    1.317045   -0.016441   -8.865064
  10 H     1.0000    0     1.008    0.279906    1.792254   -6.304656

--------------------------------
INTERNAL COORDINATES (ANGSTROEM)
--------------------------------
 C      0   0   0     0.000000000000     0.00000000     0.00000000
 C      1   0   0     1.525939040657     0.00000000     0.00000000
 H      2   1   0     1.097851446098   110.26096839     0.00000000
 H      2   1   3     1.094159785589   109.23147945   242.39638112
 C      2   1   3     1.535303482638   112.98296054   123.07352726
 H      5   2   1     1.113154703085   108.03691238   296.14726503
 H      5   2   1     1.107030863210   106.71603084   184.10415355
 F      5   2   1     1.373880055536   112.93635469    61.07824215
 H      1   2   3     1.069996091348   109.47087283    56.92683483
 H      1   2   3     1.069997729624   109.47098028   296.92669227
 H      1   2   3     1.070002425979   109.47077529   176.92688266

---------------------------
INTERNAL COORDINATES (A.U.)
---------------------------
 C      0   0   0     0.000000000000     0.00000000     0.00000000
 C      1   0   0     2.883606883900     0.00000000     0.00000000
 H      2   1   0     2.074638568855   110.26096839     0.00000000
 H      2   1   3     2.067662341513   109.23147945   242.39638112
 C      2   1   3     2.901303114641   112.98296054   123.07352726
 H      5   2   1     2.103557533517   108.03691238   296.14726503
 H      5   2   1     2.091985153266   106.71603084   184.10415355
 F      5   2   1     2.596257045820   112.93635469    61.07824215
 H      1   2   3     2.021999577014   109.47087283    56.92683483
 H      1   2   3     2.022002672906   109.47098028   296.92669227
 H      1   2   3     2.022011547731   109.47077529   176.92688266

---------------------
BASIS SET INFORMATION
---------------------
There are 3 groups of distinct atoms

 Group   1 Type C   : 12s6p3d1f contracted to 6s3p3d1f pattern {621111/411/111/1}
 Group   2 Type H   : 5s2p contracted to 3s2p pattern {311/11}
 Group   3 Type F   : 12s7p3d1f contracted to 6s4p3d1f pattern {621111/4111/111/1}

Atom   0C    basis set group =>   1
Atom   1C    basis set group =>   1
Atom   2H    basis set group =>   2
Atom   3H    basis set group =>   2
Atom   4C    basis set group =>   1
Atom   5H    basis set group =>   2
Atom   6H    basis set group =>   2
Atom   7F    basis set group =>   3
Atom   8H    basis set group =>   2
Atom   9H    basis set group =>   2
Atom  10H    basis set group =>   2
---------------------------------
AUXILIARY/J BASIS SET INFORMATION
---------------------------------
There are 3 groups of distinct atoms

 Group   1 Type C   : 12s5p4d2f1g contracted to 6s4p3d1f1g pattern {711111/2111/211/2/1}
 Group   2 Type H   : 5s2p1d contracted to 3s1p1d pattern {311/2/1}
 Group   3 Type F   : 12s5p4d2f1g contracted to 6s4p3d1f1g pattern {711111/2111/211/2/1}

Atom   0C    basis set group =>   1
Atom   1C    basis set group =>   1
Atom   2H    basis set group =>   2
Atom   3H    basis set group =>   2
Atom   4C    basis set group =>   1
Atom   5H    basis set group =>   2
Atom   6H    basis set group =>   2
Atom   7F    basis set group =>   3
Atom   8H    basis set group =>   2
Atom   9H    basis set group =>   2
Atom  10H    basis set group =>   2


           ************************************************************
           *        Program running with 18 parallel MPI-processes    *
           *              working on a common directory               *
           ************************************************************
------------------------------------------------------------------------------
                           ORCA GTO INTEGRAL CALCULATION
                           -- RI-GTO INTEGRALS CHOSEN --
------------------------------------------------------------------------------
------------------------------------------------------------------------------
                   ___                                                        
                  /   \      - P O W E R E D   B Y -                         
                 /     \                                                     
                 |  |  |   _    _      __       _____    __    __             
                 |  |  |  | |  | |    /  \     |  _  \  |  |  /  |          
                  \  \/   | |  | |   /    \    | | | |  |  | /  /          
                 / \  \   | |__| |  /  /\  \   | |_| |  |  |/  /          
                |  |  |   |  __  | /  /__\  \  |    /   |      \           
                |  |  |   | |  | | |   __   |  |    \   |  |\   \          
                \     /   | |  | | |  |  |  |  | |\  \  |  | \   \       
                 \___/    |_|  |_| |__|  |__|  |_| \__\ |__|  \__/        
                                                                              
                      - O R C A' S   B I G   F R I E N D -                    
                                      &                                       
                       - I N T E G R A L  F E E D E R -                       
                                                                              
 v1 FN, 2020, v2 2021                                                         
------------------------------------------------------------------------------


Reading SHARK input file C1_neg.SHARKINP.tmp ... ok
----------------------
SHARK INTEGRAL PACKAGE
----------------------

Number of atoms                             ...     11
Number of basis functions                   ...    214
Number of shells                            ...     88
Maximum angular momentum                    ...      3
Integral batch strategy                     ... SHARK/LIBINT Hybrid
RI-J (if used) integral strategy            ... SPLIT-RIJ (Revised 2003 algorithm where possible)
Printlevel                                  ...      1
Contraction scheme used                     ... SEGMENTED contraction
Coulomb Range Separation                    ... NOT USED
Exchange Range Separation                   ... Long Range
   Mu parameter                             ...  0.250000
   Scaling (regular/separated)              ...  0.195728  0.804272
Finite Nucleus Model                        ... NOT USED
Auxiliary Coulomb fitting basis             ... AVAILABLE
   # of basis functions in Aux-J            ...    273
   # of shells in Aux-J                     ...     95
   Maximum angular momentum in Aux-J        ...      4
Auxiliary J/K fitting basis                 ... NOT available
Auxiliary Correlation fitting basis         ... NOT available
Auxiliary 'external' fitting basis          ... NOT available
Integral threshold                          ...     2.500000e-11
Primitive cut-off                           ...     2.500000e-12
Primitive pair pre-selection threshold      ...     2.500000e-12

Calculating pre-screening integrals         ... done (  0.1 sec) Dimension = 88
Organizing shell pair data                  ... done (  0.1 sec)
Shell pair information
Total number of shell pairs                 ...      3916
Shell pairs after pre-screening             ...      3844
Total number of primitive shell pairs       ...      9700
Primitive shell pairs kept                  ...      8148
          la=0 lb=0:    995 shell pairs
          la=1 lb=0:   1198 shell pairs
          la=1 lb=1:    377 shell pairs
          la=2 lb=0:    531 shell pairs
          la=2 lb=1:    323 shell pairs
          la=2 lb=2:     78 shell pairs
          la=3 lb=0:    176 shell pairs
          la=3 lb=1:    108 shell pairs
          la=3 lb=2:     48 shell pairs
          la=3 lb=3:     10 shell pairs

Calculating one electron integrals          ... done (  0.0 sec)
Calculating RI/J V-Matrix + Cholesky decomp.... done (  0.0 sec)
Calculating Nuclear repulsion               ... done (  0.0 sec) ENN=    130.113739722459 Eh

SHARK setup successfully completed in   0.3 seconds

Maximum memory used throughout the entire GTOINT-calculation: 13.9 MB


           ************************************************************
           *        Program running with 18 parallel MPI-processes    *
           *              working on a common directory               *
           ************************************************************
-------------------------------------------------------------------------------
                                 ORCA SCF
-------------------------------------------------------------------------------

------------
SCF SETTINGS
------------
Hamiltonian:
 Density Functional     Method          .... DFT(GTOs)
 Exchange Functional    Exchange        .... WB97X-D3
 Correlation Functional Correlation     .... WB97X-D3
 Gradients option       PostSCFGGA      .... off
 Hybrid DFT is turned on
   Fraction HF Exchange ScalHFX         ....  0.195728
   Scaling of DF-GGA-X  ScalDFX         ....  0.000000
   Scaling of DF-GGA-C  ScalDFC         ....  1.000000
   Scaling of DF-LDA-C  ScalLDAC        ....  1.000000
   Perturbative correction              ....  0.000000
   Density functional embedding theory  .... OFF
 Long-range corrected/Screened/Range-Separated Hybrid DFT is turned on
   Amount of maximum screened exact exchange              ....  0.804272
   Range separation parameter mu (erf(mu*r12)/r12)        ....  0.250000
 RI-approximation to the Coulomb term is turned on
   Number of AuxJ basis functions       .... 273
   RIJ-COSX (HFX calculated with COS-X)).... on


General Settings:
 Integral files         IntName         .... C1_neg
 Hartree-Fock type      HFTyp           .... RHF
 Total Charge           Charge          ....    0
 Multiplicity           Mult            ....    1
 Number of Electrons    NEL             ....   34
 Basis Dimension        Dim             ....  214
 Nuclear Repulsion      ENuc            ....    130.1137397225 Eh

Convergence Acceleration:
 DIIS                   CNVDIIS         .... on
   Start iteration      DIISMaxIt       ....    12
   Startup error        DIISStart       ....  0.200000
   # of expansion vecs  DIISMaxEq       ....     5
   Bias factor          DIISBfac        ....   1.050
   Max. coefficient     DIISMaxC        ....  10.000
 Trust-Rad. Augm. Hess. CNVTRAH         .... auto
   Auto Start mean grad. ratio tolernc. ....  1.125000
   Auto Start start iteration           ....    20
   Auto Start num. interpolation iter.  ....    10
   Max. Number of Micro iterations      ....    16
   Max. Number of Macro iterations      .... Maxiter - #DIIS iter
   Number of Davidson start vectors     ....     2
   Converg. threshold I  (grad. norm)   ....   1.000e-05
   Converg. threshold II (energy diff.) ....   1.000e-08
   Grad. Scal. Fac. for Micro threshold ....   0.100
   Minimum threshold for Micro iter.    ....   0.010
   NR start threshold (gradient norm)   ....   0.001
   Initial trust radius                 ....   0.400
   Minimum AH scaling param. (alpha)    ....   1.000
   Maximum AH scaling param. (alpha)    .... 1000.000
   Orbital update algorithm             .... Taylor
   White noise on init. David. guess    .... on
   Maximum white noise                  ....   0.010
   Quad. conv. algorithm                .... NR
 SOSCF                  CNVSOSCF        .... on
   Start iteration      SOSCFMaxIt      ....   150
   Startup grad/error   SOSCFStart      ....  0.003300
 Level Shifting         CNVShift        .... on
   Level shift para.    LevelShift      ....    0.2500
   Turn off err/grad.   ShiftErr        ....    0.0010
 Zerner damping         CNVZerner       .... off
 Static damping         CNVDamp         .... on
   Fraction old density DampFac         ....    0.7000
   Max. Damping (<1)    DampMax         ....    0.9800
   Min. Damping (>=0)   DampMin         ....    0.0000
   Turn off err/grad.   DampErr         ....    0.1000
 Fernandez-Rico         CNVRico         .... off

SCF Procedure:
 Maximum # iterations   MaxIter         ....   150
 SCF integral mode      SCFMode         .... Direct
   Integral package                     .... SHARK and LIBINT hybrid scheme
 Reset frequency        DirectResetFreq ....    20
 Integral Threshold     Thresh          ....  2.500e-11 Eh
 Primitive CutOff       TCut            ....  2.500e-12 Eh

Convergence Tolerance:
 Convergence Check Mode ConvCheckMode   .... Total+1el-Energy
 Convergence forced     ConvForced      .... 0
 Energy Change          TolE            ....  1.000e-08 Eh
 1-El. energy change                    ....  1.000e-05 Eh
 Orbital Gradient       TolG            ....  1.000e-05
 Orbital Rotation angle TolX            ....  1.000e-05
 DIIS Error             TolErr          ....  5.000e-07


Diagonalization of the overlap matrix:
Smallest eigenvalue                        ... 1.165e-05
Time for diagonalization                   ...    0.011 sec
Threshold for overlap eigenvalues          ... 1.000e-08
Number of eigenvalues below threshold      ... 0
Time for construction of square roots      ...    0.019 sec
Total time needed                          ...    0.031 sec

Time for model grid setup =    0.051 sec

------------------------------
INITIAL GUESS: MODEL POTENTIAL
------------------------------
Loading Hartree-Fock densities                     ... done
Calculating cut-offs                               ... done
Initializing the effective Hamiltonian             ... done
Setting up the integral package (SHARK)            ... done
Starting the Coulomb interaction                   ... done (   0.0 sec)
Reading the grid                                   ... done
Mapping shells                                     ... done
Starting the XC term evaluation                    ... done (   0.0 sec)
  promolecular density results
     # of electrons  =     33.996387368
     EX              =    -27.392590416
     EC              =     -1.110945391
     EX+EC           =    -28.503535807
Transforming the Hamiltonian                       ... done (   0.0 sec)
Diagonalizing the Hamiltonian                      ... done (   0.0 sec)
Back transforming the eigenvectors                 ... done (   0.0 sec)
Now organizing SCF variables                       ... done
                      ------------------
                      INITIAL GUESS DONE (   0.1 sec)
                      ------------------
-------------------
DFT GRID GENERATION
-------------------

General Integration Accuracy     IntAcc      ... 4.388
Radial Grid Type                 RadialGrid  ... OptM3 with GC (2021)
Angular Grid (max. ang.)         AngularGrid ... 4 (Lebedev-302)
Angular grid pruning method      GridPruning ... 4 (adaptive)
Weight generation scheme         WeightScheme... Becke
Basis function cutoff            BFCut       ... 1.0000e-11
Integration weight cutoff        WCut        ... 1.0000e-14
Angular grids for H and He will be reduced by one unit
Partially contracted basis set               ... off
Rotationally invariant grid construction     ... off

Total number of grid points                  ...    49486
Total number of batches                      ...      780
Average number of points per batch           ...       63
Average number of grid points per atom       ...     4499
Time for grid setup =    0.328 sec

--------------------
COSX GRID GENERATION
--------------------

GRIDX 1
-------
General Integration Accuracy     IntAcc      ... 3.816
Radial Grid Type                 RadialGrid  ... OptM3 with GC (2021)
Angular Grid (max. ang.)         AngularGrid ... 1 (Lebedev-50)
Angular grid pruning method      GridPruning ... 4 (adaptive)
Weight generation scheme         WeightScheme... Becke
Basis function cutoff            BFCut       ... 1.0000e-11
Integration weight cutoff        WCut        ... 1.0000e-14
Angular grids for H and He will be reduced by one unit
Partially contracted basis set               ... on
Rotationally invariant grid construction     ... off

Total number of grid points                  ...     6220
Total number of batches                      ...      103
Average number of points per batch           ...       60
Average number of grid points per atom       ...      565
UseSFitting                                  ... on

GRIDX 2
-------
General Integration Accuracy     IntAcc      ... 4.020
Radial Grid Type                 RadialGrid  ... OptM3 with GC (2021)
Angular Grid (max. ang.)         AngularGrid ... 2 (Lebedev-110)
Angular grid pruning method      GridPruning ... 4 (adaptive)
Weight generation scheme         WeightScheme... Becke
Basis function cutoff            BFCut       ... 1.0000e-11
Integration weight cutoff        WCut        ... 1.0000e-14
Angular grids for H and He will be reduced by one unit
Partially contracted basis set               ... on
Rotationally invariant grid construction     ... off

Total number of grid points                  ...    14795
Total number of batches                      ...      238
Average number of points per batch           ...       62
Average number of grid points per atom       ...     1345
UseSFitting                                  ... on

GRIDX 3
-------
General Integration Accuracy     IntAcc      ... 4.338
Radial Grid Type                 RadialGrid  ... OptM3 with GC (2021)
Angular Grid (max. ang.)         AngularGrid ... 3 (Lebedev-194)
Angular grid pruning method      GridPruning ... 4 (adaptive)
Weight generation scheme         WeightScheme... Becke
Basis function cutoff            BFCut       ... 1.0000e-11
Integration weight cutoff        WCut        ... 1.0000e-14
Angular grids for H and He will be reduced by one unit
Partially contracted basis set               ... on
Rotationally invariant grid construction     ... off

Total number of grid points                  ...    33367
Total number of batches                      ...      527
Average number of points per batch           ...       63
Average number of grid points per atom       ...     3033
UseSFitting                                  ... on

Time for X-Grid setup             =    0.226 sec

--------------
SCF ITERATIONS
--------------
ITER       Energy         Delta-E        Max-DP      RMS-DP      [F,P]     Damp
               ***  Starting incremental Fock matrix formation  ***
  0   -218.2889721100   0.000000000000 0.08317147  0.00161278  0.1804463 0.7000
  1   -218.3348693940  -0.045897284008 0.08335800  0.00141831  0.1075561 0.7000
                               ***Turning on DIIS***
  2   -218.3586906741  -0.023821280094 0.17316872  0.00324301  0.0547866 0.0000
  3   -218.3969963698  -0.038305695767 0.04631465  0.00071747  0.0415278 0.0000
  4   -218.4028030257  -0.005806655829 0.01372638  0.00016576  0.0046479 0.0000
                      *** Initiating the SOSCF procedure ***
                           *** Shutting down DIIS ***
                      *** Re-Reading the Fockian *** 
                      *** Removing any level shift *** 
ITER      Energy       Delta-E        Grad      Rot      Max-DP    RMS-DP
  5   -218.40290582  -0.0001027967  0.000457  0.000457  0.001559  0.000049
               *** Restarting incremental Fock matrix formation ***
  6   -218.40291056  -0.0000047333  0.000292  0.000272  0.001266  0.000036
  7   -218.40291169  -0.0000011293  0.000282  0.000127  0.000364  0.000010
  8   -218.40291364  -0.0000019582  0.000018  0.000041  0.000106  0.000003
  9   -218.40291366  -0.0000000218  0.000007  0.000011  0.000101  0.000001
 10   -218.40291367  -0.0000000051  0.000003  0.000002  0.000069  0.000001
                 **** Energy Check signals convergence ****
              ***Rediagonalizing the Fockian in SOSCF/NRSCF***

               *****************************************************
               *                     SUCCESS                       *
               *           SCF CONVERGED AFTER  11 CYCLES          *
               *****************************************************

Old exchange energy                            =     -9.158818257 Eh
New exchange energy                            =     -9.158819172 Eh
Exchange energy change after final integration =     -0.000000915 Eh
Total energy after final integration           =   -218.402914587 Eh
Final COS-X integration done in                =     1.915 sec

----------------
TOTAL SCF ENERGY
----------------

Total Energy       :         -218.40291459 Eh           -5943.04544 eV

Components:
Nuclear Repulsion  :          130.11373972 Eh            3540.57486 eV
Electronic Energy  :         -348.51665431 Eh           -9483.62030 eV
One Electron Energy:         -555.58224003 Eh          -15118.16134 eV
Two Electron Energy:          207.06558572 Eh            5634.54104 eV
Max COSX asymmetry :            0.00000101 Eh               0.00003 eV

Virial components:
Potential Energy   :         -435.87220742 Eh          -11860.68575 eV
Kinetic Energy     :          217.46929284 Eh            5917.64031 eV
Virial Ratio       :            2.00429312


DFT components:
N(Alpha)           :       16.999989690777 electrons
N(Beta)            :       16.999989690777 electrons
N(Total)           :       33.999979381553 electrons
E(XC)              :      -20.192413848026 Eh       
DFET-embed. en.    :        0.000000000000 Eh       

---------------
SCF CONVERGENCE
---------------

  Last Energy change         ...   -1.8811e-09  Tolerance :   1.0000e-08
  Last MAX-Density change    ...    1.1102e-15  Tolerance :   1.0000e-07
  Last RMS-Density change    ...    1.7549e-17  Tolerance :   5.0000e-09
  Last Orbital Gradient      ...    5.2751e-07  Tolerance :   1.0000e-05
  Last Orbital Rotation      ...    5.7438e-07  Tolerance :   1.0000e-05

             **** THE GBW FILE WAS UPDATED (C1_neg.gbw) ****
             **** DENSITY C1_neg.scfp WAS UPDATED ****
             **** ENERGY FILE WAS UPDATED (C1_neg.en.tmp) ****
             **** THE GBW FILE WAS UPDATED (C1_neg.gbw) ****
             **** DENSITY C1_neg.scfp WAS UPDATED ****
----------------
ORBITAL ENERGIES
----------------

  NO   OCC          E(Eh)            E(eV) 
   0   2.0000     -24.771459      -674.0657 
   1   2.0000     -10.351281      -281.6727 
   2   2.0000     -10.280111      -279.7361 
   3   2.0000     -10.258402      -279.1453 
   4   2.0000      -1.312653       -35.7191 
   5   2.0000      -0.906979       -24.6802 
   6   2.0000      -0.803996       -21.8778 
   7   2.0000      -0.706927       -19.2365 
   8   2.0000      -0.611234       -16.6325 
   9   2.0000      -0.595000       -16.1908 
  10   2.0000      -0.569873       -15.5070 
  11   2.0000      -0.536000       -14.5853 
  12   2.0000      -0.499531       -13.5929 
  13   2.0000      -0.472591       -12.8598 
  14   2.0000      -0.448003       -12.1908 
  15   2.0000      -0.420702       -11.4479 
  16   2.0000      -0.419072       -11.4035 
  17   0.0000       0.072754         1.9797 
  18   0.0000       0.091880         2.5002 
  19   0.0000       0.096392         2.6230 
  20   0.0000       0.111936         3.0459 
  21   0.0000       0.138331         3.7642 
  22   0.0000       0.142338         3.8732 
  23   0.0000       0.154987         4.2174 
  24   0.0000       0.165067         4.4917 
  25   0.0000       0.169930         4.6240 
  26   0.0000       0.190261         5.1773 
  27   0.0000       0.199379         5.4254 
  28   0.0000       0.209540         5.7019 
  29   0.0000       0.223515         6.0821 
  30   0.0000       0.225862         6.1460 
  31   0.0000       0.229896         6.2558 
  32   0.0000       0.242789         6.6066 
  33   0.0000       0.264404         7.1948 
  34   0.0000       0.280145         7.6231 
  35   0.0000       0.290044         7.8925 
  36   0.0000       0.304030         8.2731 
  37   0.0000       0.308317         8.3897 
  38   0.0000       0.313567         8.5326 
  39   0.0000       0.321484         8.7480 
  40   0.0000       0.331630         9.0241 
  41   0.0000       0.336957         9.1691 
  42   0.0000       0.342933         9.3317 
  43   0.0000       0.349249         9.5036 
  44   0.0000       0.358447         9.7538 
  45   0.0000       0.365032         9.9330 
  46   0.0000       0.367635        10.0039 
  47   0.0000       0.372780        10.1439 
  48   0.0000       0.380033        10.3412 
  49   0.0000       0.388201        10.5635 
  50   0.0000       0.397099        10.8056 
  51   0.0000       0.411855        11.2071 
  52   0.0000       0.417520        11.3613 
  53   0.0000       0.433074        11.7845 
  54   0.0000       0.448765        12.2115 
  55   0.0000       0.457792        12.4571 
  56   0.0000       0.466288        12.6883 
  57   0.0000       0.477247        12.9866 
  58   0.0000       0.484275        13.1778 
  59   0.0000       0.486481        13.2378 
  60   0.0000       0.495936        13.4951 
  61   0.0000       0.502608        13.6767 
  62   0.0000       0.509023        13.8512 
  63   0.0000       0.516788        14.0625 
  64   0.0000       0.525586        14.3019 
  65   0.0000       0.535400        14.5690 
  66   0.0000       0.549758        14.9597 
  67   0.0000       0.558615        15.2007 
  68   0.0000       0.570784        15.5318 
  69   0.0000       0.590363        16.0646 
  70   0.0000       0.611516        16.6402 
  71   0.0000       0.643779        17.5181 
  72   0.0000       0.674500        18.3541 
  73   0.0000       0.694292        18.8926 
  74   0.0000       0.696103        18.9419 
  75   0.0000       0.714935        19.4544 
  76   0.0000       0.732012        19.9191 
  77   0.0000       0.741127        20.1671 
  78   0.0000       0.749791        20.4028 
  79   0.0000       0.767491        20.8845 
  80   0.0000       0.773623        21.0514 
  81   0.0000       0.789940        21.4953 
  82   0.0000       0.795474        21.6459 
  83   0.0000       0.808560        22.0020 
  84   0.0000       0.809713        22.0334 
  85   0.0000       0.812258        22.1027 
  86   0.0000       0.830697        22.6044 
  87   0.0000       0.838700        22.8222 
  88   0.0000       0.849399        23.1133 
  89   0.0000       0.874819        23.8050 
  90   0.0000       0.898133        24.4394 
  91   0.0000       0.919104        25.0101 
  92   0.0000       0.936663        25.4879 
  93   0.0000       0.960247        26.1297 
  94   0.0000       1.009194        27.4616 
  95   0.0000       1.041941        28.3527 
  96   0.0000       1.065672        28.9984 
  97   0.0000       1.092899        29.7393 
  98   0.0000       1.116924        30.3930 
  99   0.0000       1.161456        31.6048 
 100   0.0000       1.189143        32.3582 
 101   0.0000       1.231347        33.5067 
 102   0.0000       1.251961        34.0676 
 103   0.0000       1.256732        34.1974 
 104   0.0000       1.306641        35.5555 
 105   0.0000       1.332167        36.2501 
 106   0.0000       1.337716        36.4011 
 107   0.0000       1.366164        37.1752 
 108   0.0000       1.407748        38.3068 
 109   0.0000       1.456968        39.6461 
 110   0.0000       1.467893        39.9434 
 111   0.0000       1.481023        40.3007 
 112   0.0000       1.566759        42.6337 
 113   0.0000       1.759673        47.8831 
 114   0.0000       1.848141        50.2905 
 115   0.0000       1.868566        50.8463 
 116   0.0000       1.875617        51.0381 
 117   0.0000       1.898576        51.6629 
 118   0.0000       1.911241        52.0075 
 119   0.0000       1.939068        52.7647 
 120   0.0000       1.945486        52.9394 
 121   0.0000       1.960771        53.3553 
 122   0.0000       1.977825        53.8194 
 123   0.0000       2.002636        54.4945 
 124   0.0000       2.027872        55.1812 
 125   0.0000       2.084968        56.7349 
 126   0.0000       2.101784        57.1924 
 127   0.0000       2.123085        57.7721 
 128   0.0000       2.143217        58.3199 
 129   0.0000       2.194933        59.7272 
 130   0.0000       2.222641        60.4811 
 131   0.0000       2.276232        61.9394 
 132   0.0000       2.343579        63.7720 
 133   0.0000       2.384607        64.8884 
 134   0.0000       2.409195        65.5575 
 135   0.0000       2.481328        67.5204 
 136   0.0000       2.487779        67.6959 
 137   0.0000       2.526184        68.7410 
 138   0.0000       2.551821        69.4386 
 139   0.0000       2.603424        70.8428 
 140   0.0000       2.608508        70.9811 
 141   0.0000       2.628222        71.5175 
 142   0.0000       2.653501        72.2054 
 143   0.0000       2.699223        73.4496 
 144   0.0000       2.733864        74.3922 
 145   0.0000       2.745532        74.7097 
 146   0.0000       2.781490        75.6882 
 147   0.0000       2.794506        76.0424 
 148   0.0000       2.819272        76.7163 
 149   0.0000       2.844998        77.4163 
 150   0.0000       2.856618        77.7325 
 151   0.0000       2.869078        78.0716 
 152   0.0000       2.896149        78.8082 
 153   0.0000       2.913290        79.2746 
 154   0.0000       2.934257        79.8452 
 155   0.0000       2.969220        80.7966 
 156   0.0000       3.056129        83.1615 
 157   0.0000       3.121890        84.9509 
 158   0.0000       3.239374        88.1478 
 159   0.0000       3.260467        88.7218 
 160   0.0000       3.289012        89.4986 
 161   0.0000       3.331961        90.6673 
 162   0.0000       3.346203        91.0548 
 163   0.0000       3.394069        92.3573 
 164   0.0000       3.399758        92.5121 
 165   0.0000       3.417195        92.9866 
 166   0.0000       3.430065        93.3368 
 167   0.0000       3.467444        94.3539 
 168   0.0000       3.489243        94.9471 
 169   0.0000       3.527060        95.9762 
 170   0.0000       3.533867        96.1614 
 171   0.0000       3.581918        97.4689 
 172   0.0000       3.626634        98.6857 
 173   0.0000       3.647131        99.2435 
 174   0.0000       3.694457       100.5313 
 175   0.0000       3.704214       100.7968 
 176   0.0000       3.749937       102.0410 
 177   0.0000       3.767534       102.5198 
 178   0.0000       3.957654       107.6932 
 179   0.0000       3.974842       108.1609 
 180   0.0000       3.990345       108.5828 
 181   0.0000       4.027082       109.5825 
 182   0.0000       4.085565       111.1739 
 183   0.0000       4.152150       112.9857 
 184   0.0000       4.194822       114.1469 
 185   0.0000       4.207844       114.5012 
 186   0.0000       4.270173       116.1973 
 187   0.0000       4.408620       119.9647 
 188   0.0000       4.466764       121.5468 
 189   0.0000       4.541410       123.5780 
 190   0.0000       4.596869       125.0872 
 191   0.0000       4.633801       126.0921 
 192   0.0000       4.719761       128.4312 
 193   0.0000       4.778758       130.0366 
 194   0.0000       4.865915       132.4083 
 195   0.0000       5.027188       136.7967 
 196   0.0000       5.064256       137.8054 
 197   0.0000       5.550320       151.0319 
 198   0.0000       6.996482       190.3840 
 199   0.0000       6.998435       190.4371 
 200   0.0000       7.099323       193.1824 
 201   0.0000       7.106628       193.3812 
 202   0.0000       7.399798       201.3587 
 203   0.0000       7.430490       202.1939 
 204   0.0000       7.509956       204.3563 
 205   0.0000       8.656650       235.5594 
 206   0.0000       8.683547       236.2913 
 207   0.0000       8.903806       242.2849 
 208   0.0000       8.952742       243.6165 
 209   0.0000       9.407364       255.9874 
 210   0.0000      22.644659       616.1925 
 211   0.0000      22.691596       617.4697 
 212   0.0000      22.744642       618.9132 
 213   0.0000      57.640624      1568.4811 

                    ********************************
                    * MULLIKEN POPULATION ANALYSIS *
                    ********************************

-----------------------
MULLIKEN ATOMIC CHARGES
-----------------------
   0 C :   -1.175465
   1 C :   -0.245185
   2 H :    0.287341
   3 H :    0.291662
   4 C :   -0.258176
   5 H :    0.257315
   6 H :    0.222381
   7 F :   -0.317175
   8 H :    0.301555
   9 H :    0.328121
  10 H :    0.307627
Sum of atomic charges:    0.0000000

--------------------------------
MULLIKEN REDUCED ORBITAL CHARGES
--------------------------------
  0 C s       :     3.461927  s :     3.461927
      pz      :     1.266573  p :     3.629985
      px      :     1.246487
      py      :     1.116925
      dz2     :    -0.008103  d :     0.080569
      dxz     :     0.043035
      dyz     :     0.024859
      dx2y2   :     0.007737
      dxy     :     0.013042
      f0      :    -0.000085  f :     0.002983
      f+1     :     0.000065
      f-1     :     0.000597
      f+2     :     0.000849
      f-2     :     0.000952
      f+3     :     0.000176
      f-3     :     0.000430
  1 C s       :     3.066787  s :     3.066787
      pz      :     1.107488  p :     3.156658
      px      :     1.003050
      py      :     1.046120
      dz2     :    -0.018120  d :     0.016510
      dxz     :     0.022936
      dyz     :     0.014037
      dx2y2   :     0.004321
      dxy     :    -0.006663
      f0      :     0.000119  f :     0.005230
      f+1     :     0.000544
      f-1     :     0.000878
      f+2     :     0.001189
      f-2     :     0.001233
      f+3     :     0.000493
      f-3     :     0.000774
  2 H s       :     0.661791  s :     0.661791
      pz      :     0.026369  p :     0.050868
      px      :     0.001481
      py      :     0.023018
  3 H s       :     0.659878  s :     0.659878
      pz      :     0.013410  p :     0.048460
      px      :     0.021030
      py      :     0.014020
  4 C s       :     3.334515  s :     3.334515
      pz      :     0.791623  p :     2.740641
      px      :     1.012606
      py      :     0.936412
      dz2     :     0.042370  d :     0.170387
      dxz     :     0.050747
      dyz     :     0.031034
      dx2y2   :     0.009496
      dxy     :     0.036741
      f0      :     0.002287  f :     0.012633
      f+1     :     0.001421
      f-1     :     0.001980
      f+2     :     0.002765
      f-2     :     0.002563
      f+3     :     0.000760
      f-3     :     0.000856
  5 H s       :     0.708576  s :     0.708576
      pz      :     0.012176  p :     0.034109
      px      :     0.021677
      py      :     0.000256
  6 H s       :     0.733022  s :     0.733022
      pz      :     0.013469  p :     0.044597
      px      :     0.008246
      py      :     0.022881
  7 F s       :     3.988703  s :     3.988703
      pz      :     1.644843  p :     5.315490
      px      :     1.897263
      py      :     1.773385
      dz2     :     0.002155  d :     0.012383
      dxz     :     0.002696
      dyz     :     0.004015
      dx2y2   :     0.001573
      dxy     :     0.001943
      f0      :     0.000071  f :     0.000598
      f+1     :     0.000076
      f-1     :     0.000173
      f+2     :     0.000101
      f-2     :     0.000126
      f+3     :     0.000031
      f-3     :     0.000020
  8 H s       :     0.626637  s :     0.626637
      pz      :     0.027752  p :     0.071808
      px      :     0.020286
      py      :     0.023770
  9 H s       :     0.616763  s :     0.616763
      pz      :     0.022161  p :     0.055116
      px      :     0.028722
      py      :     0.004233
 10 H s       :     0.627121  s :     0.627121
      pz      :     0.016307  p :     0.065253
      px      :     0.016431
      py      :     0.032515


                     *******************************
                     * LOEWDIN POPULATION ANALYSIS *
                     *******************************

----------------------
LOEWDIN ATOMIC CHARGES
----------------------
   0 C :   -0.113895
   1 C :   -0.245347
   2 H :    0.110869
   3 H :    0.106442
   4 C :   -0.247895
   5 H :    0.120327
   6 H :    0.113588
   7 F :   -0.042461
   8 H :    0.063922
   9 H :    0.067224
  10 H :    0.067227

-------------------------------
LOEWDIN REDUCED ORBITAL CHARGES
-------------------------------
  0 C s       :     2.723983  s :     2.723983
      pz      :     0.970174  p :     2.904987
      px      :     0.971238
      py      :     0.963575
      dz2     :     0.041293  d :     0.457622
      dxz     :     0.106333
      dyz     :     0.120475
      dx2y2   :     0.090706
      dxy     :     0.098814
      f0      :     0.003035  f :     0.027303
      f+1     :     0.001922
      f-1     :     0.005500
      f+2     :     0.003740
      f-2     :     0.004258
      f+3     :     0.003365
      f-3     :     0.005484
  1 C s       :     2.689268  s :     2.689268
      pz      :     0.926955  p :     2.795991
      px      :     0.931266
      py      :     0.937770
      dz2     :     0.084946  d :     0.721355
      dxz     :     0.143788
      dyz     :     0.190149
      dx2y2   :     0.154549
      dxy     :     0.147923
      f0      :     0.003946  f :     0.038733
      f+1     :     0.004401
      f-1     :     0.006948
      f+2     :     0.006027
      f-2     :     0.005724
      f+3     :     0.005096
      f-3     :     0.006593
  2 H s       :     0.689483  s :     0.689483
      pz      :     0.075484  p :     0.199647
      px      :     0.054508
      py      :     0.069654
  3 H s       :     0.690717  s :     0.690717
      pz      :     0.069234  p :     0.202841
      px      :     0.079137
      py      :     0.054469
  4 C s       :     2.692674  s :     2.692674
      pz      :     0.802485  p :     2.587617
      px      :     0.925713
      py      :     0.859419
      dz2     :     0.178616  d :     0.878320
      dxz     :     0.208905
      dyz     :     0.196587
      dx2y2   :     0.136628
      dxy     :     0.157583
      f0      :     0.016664  f :     0.089284
      f+1     :     0.009964
      f-1     :     0.017311
      f+2     :     0.016470
      f-2     :     0.014657
      f+3     :     0.007153
      f-3     :     0.007065
  5 H s       :     0.693613  s :     0.693613
      pz      :     0.060181  p :     0.186060
      px      :     0.078810
      py      :     0.047069
  6 H s       :     0.698277  s :     0.698277
      pz      :     0.046629  p :     0.188135
      px      :     0.062202
      py      :     0.079304
  7 F s       :     3.579642  s :     3.579642
      pz      :     1.674179  p :     5.222017
      px      :     1.806528
      py      :     1.741311
      dz2     :     0.062047  d :     0.239333
      dxz     :     0.053799
      dyz     :     0.058394
      dx2y2   :     0.031439
      dxy     :     0.033654
      f0      :     0.000223  f :     0.001469
      f+1     :     0.000188
      f-1     :     0.000362
      f+2     :     0.000270
      f-2     :     0.000284
      f+3     :     0.000082
      f-3     :     0.000059
  8 H s       :     0.713126  s :     0.713126
      pz      :     0.075272  p :     0.222952
      px      :     0.082865
      py      :     0.064815
  9 H s       :     0.709010  s :     0.709010
      pz      :     0.072042  p :     0.223766
      px      :     0.090422
      py      :     0.061301
 10 H s       :     0.703727  s :     0.703727
      pz      :     0.090727  p :     0.229047
      px      :     0.061795
      py      :     0.076525


                      *****************************
                      * MAYER POPULATION ANALYSIS *
                      *****************************

  NA   - Mulliken gross atomic population
  ZA   - Total nuclear charge
  QA   - Mulliken gross atomic charge
  VA   - Mayer's total valence
  BVA  - Mayer's bonded valence
  FA   - Mayer's free valence

  ATOM       NA         ZA         QA         VA         BVA        FA
  0 C      7.1755     6.0000    -1.1755     3.7467     3.7467    -0.0000
  1 C      6.2452     6.0000    -0.2452     3.3464     3.3464     0.0000
  2 H      0.7127     1.0000     0.2873     0.9895     0.9895     0.0000
  3 H      0.7083     1.0000     0.2917     0.9913     0.9913     0.0000
  4 C      6.2582     6.0000    -0.2582     3.7668     3.7668     0.0000
  5 H      0.7427     1.0000     0.2573     0.9738     0.9738    -0.0000
  6 H      0.7776     1.0000     0.2224     1.0238     1.0238     0.0000
  7 F      9.3172     9.0000    -0.3172     0.8969     0.8969     0.0000
  8 H      0.6984     1.0000     0.3016     1.0519     1.0519    -0.0000
  9 H      0.6719     1.0000     0.3281     0.9947     0.9947    -0.0000
 10 H      0.6924     1.0000     0.3076     1.0420     1.0420    -0.0000

  Mayer bond orders larger than 0.100000
B(  0-C ,  1-C ) :   0.6663 B(  0-C ,  4-C ) :   0.1569 B(  0-C ,  8-H ) :   0.9743 
B(  0-C ,  9-H ) :   0.9362 B(  0-C , 10-H ) :   0.9817 B(  1-C ,  2-H ) :   0.9501 
B(  1-C ,  3-H ) :   0.9381 B(  1-C ,  4-C ) :   0.8513 B(  4-C ,  5-H ) :   0.9622 
B(  4-C ,  6-H ) :   0.9961 B(  4-C ,  7-F ) :   0.7694 

-------
TIMINGS
-------

Total SCF time: 0 days 0 hours 0 min 12 sec 

Total time                  ....      12.935 sec
Sum of individual times     ....      12.658 sec  ( 97.9%)

Fock matrix formation       ....      11.736 sec  ( 90.7%)
  Split-RI-J                ....       1.113 sec  (  9.5% of F)
  Chain of spheres X        ....       9.322 sec  ( 79.4% of F)
  XC integration            ....       1.229 sec  ( 10.5% of F)
    Basis function eval.    ....       0.284 sec  ( 23.1% of XC)
    Density eval.           ....       0.249 sec  ( 20.3% of XC)
    XC-Functional eval.     ....       0.070 sec  (  5.7% of XC)
    XC-Potential eval.      ....       0.365 sec  ( 29.7% of XC)
Diagonalization             ....       0.093 sec  (  0.7%)
Density matrix formation    ....       0.010 sec  (  0.1%)
Population analysis         ....       0.014 sec  (  0.1%)
Initial guess               ....       0.071 sec  (  0.5%)
Orbital Transformation      ....       0.000 sec  (  0.0%)
Orbital Orthonormalization  ....       0.000 sec  (  0.0%)
DIIS solution               ....       0.058 sec  (  0.4%)
SOSCF solution              ....       0.070 sec  (  0.5%)
Grid generation             ....       0.605 sec  (  4.7%)

Maximum memory used throughout the entire SCF-calculation: 67.8 MB


-------------------------------------------------------------------------------
                          DFT DISPERSION CORRECTION                            
                                                                               
                              DFTD3 V3.1  Rev 1                                
                              USING zero damping                               
-------------------------------------------------------------------------------
The omegaB97X-D3 functional is recognized. Fit by Chai et al.
Active option DFTDOPT                   ...         3   

molecular C6(AA) [au] = 763.301112 


            DFT-D V3
 parameters
 s6 scaling factor         :     1.0000 
 rs6 scaling factor        :     1.2810 
 s8 scaling factor         :     1.0000 
 rs8 scaling factor        :     1.0940 
 Damping factor alpha6     :    14.0000 
 Damping factor alpha8     :    16.0000 
 ad hoc parameters k1-k3   :    16.0000     1.3333    -4.0000 

 Edisp/kcal,au: -1.203636535531  -0.001918116709 
 E6   /kcal   :  -0.412047526 
 E8   /kcal   :  -0.791589009 
 % E8         :  65.766449068 

-------------------------   ----------------
Dispersion correction           -0.001918117
-------------------------   ----------------


-------------------------   --------------------
FINAL SINGLE POINT ENERGY      -218.404832703393
-------------------------   --------------------


                            ***************************************
                            *     ORCA property calculations      *
                            ***************************************

                                    ---------------------
                                    Active property flags
                                    ---------------------
   (+) Dipole Moment


------------------------------------------------------------------------------
                       ORCA ELECTRIC PROPERTIES CALCULATION
------------------------------------------------------------------------------

Dipole Moment Calculation                       ... on
Quadrupole Moment Calculation                   ... off
Polarizability Calculation                      ... off
GBWName                                         ... C1_neg.gbw
Electron density file                           ... C1_neg.scfp
The origin for moment calculation is the CENTER OF MASS  = ( 0.141847, -1.602469 -5.304875)

-------------
DIPOLE MOMENT
-------------
                                X             Y             Z
Electronic contribution:      2.47834      -0.81621       5.76985
Nuclear contribution   :     -2.76068       0.49992      -6.33880
                        -----------------------------------------
Total Dipole Moment    :     -0.28234      -0.31629      -0.56896
                        -----------------------------------------
Magnitude (a.u.)       :      0.70955
Magnitude (Debye)      :      1.80354



--------------------
Rotational spectrum 
--------------------
 
Rotational constants in cm-1:     0.493380     0.165620     0.140427 
Rotational constants in MHz : 14791.174622  4965.163858  4209.902284 

 Dipole components along the rotational axes: 
x,y,z [a.u.] :    -0.449914     0.527678     0.150332 
x,y,z [Debye]:    -1.143590     1.341252     0.382113 

 

Timings for individual modules:

Sum of individual times         ...       14.041 sec (=   0.234 min)
GTO integral calculation        ...        0.698 sec (=   0.012 min)   5.0 %
SCF iterations                  ...       13.343 sec (=   0.222 min)  95.0 %
                             ****ORCA TERMINATED NORMALLY****
TOTAL RUN TIME: 0 days 0 hours 0 minutes 14 seconds 627 msec
