
                                        *****************
                                        * O   R   C   A *
                                        *****************

                                            #,                                       
                                            ###                                      
                                            ####                                     
                                            #####                                    
                                            ######                                   
                                           ########,                                 
                                     ,,################,,,,,                         
                               ,,#################################,,                 
                          ,,##########################################,,             
                       ,#########################################, ''#####,          
                    ,#############################################,,   '####,        
                  ,##################################################,,,,####,       
                ,###########''''           ''''###############################       
              ,#####''   ,,,,##########,,,,          '''####'''          '####       
            ,##' ,,,,###########################,,,                        '##       
           ' ,,###''''                  '''############,,,                           
         ,,##''                                '''############,,,,        ,,,,,,###''
      ,#''                                            '''#######################'''  
     '                                                          ''''####''''         
             ,#######,   #######,   ,#######,      ##                                
            ,#'     '#,  ##    ##  ,#'     '#,    #''#        ######   ,####,        
            ##       ##  ##   ,#'  ##            #'  '#       #        #'  '#        
            ##       ##  #######   ##           ,######,      #####,   #    #        
            '#,     ,#'  ##    ##  '#,     ,#' ,#      #,         ##   #,  ,#        
             '#######'   ##     ##  '#######'  #'      '#     #####' # '####'        



                  #######################################################
                  #                        -***-                        #
                  #          Department of theory and spectroscopy      #
                  #    Directorship and core code : Frank Neese         #
                  #        Max Planck Institute fuer Kohlenforschung    #
                  #                Kaiser Wilhelm Platz 1               #
                  #                 D-45470 Muelheim/Ruhr               #
                  #                      Germany                        #
                  #                                                     #
                  #                  All rights reserved                #
                  #                        -***-                        #
                  #######################################################


                         Program Version 5.0.0 -  RELEASE  -
                                (SVN: $Rev: 19529$)
                ($Date: 2021-06-28 11:36:33 +0200 (Mo, 28 Jun 2021) $)


 With contributions from (in alphabetic order):
   Daniel Aravena         : Magnetic Suceptibility
   Michael Atanasov       : Ab Initio Ligand Field Theory (pilot matlab implementation)
   Alexander A. Auer      : GIAO ZORA, VPT2 properties, NMR spectrum
   Ute Becker             : Parallelization
   Giovanni Bistoni       : ED, misc. LED, open-shell LED, HFLD
   Martin Brehm           : Molecular dynamics
   Dmytro Bykov           : SCF Hessian
   Vijay G. Chilkuri      : MRCI spin determinant printing, contributions to CSF-ICE
   Dipayan Datta          : RHF DLPNO-CCSD density
   Achintya Kumar Dutta   : EOM-CC, STEOM-CC
   Dmitry Ganyushin       : Spin-Orbit,Spin-Spin,Magnetic field MRCI
   Miquel Garcia          : C-PCM Hessian, Gaussian charge scheme
   Yang Guo               : DLPNO-NEVPT2, F12-NEVPT2, CIM, IAO-localization
   Andreas Hansen         : Spin unrestricted coupled pair/coupled cluster methods
   Benjamin Helmich-Paris : MC-RPA, TRAH-SCF, COSX integrals
   Lee Huntington         : MR-EOM, pCC
   Robert Izsak           : Overlap fitted RIJCOSX, COSX-SCS-MP3, EOM
   Marcus Kettner         : VPT2
   Christian Kollmar      : KDIIS, OOCD, Brueckner-CCSD(T), CCSD density, CASPT2, CASPT2-K
   Simone Kossmann        : Meta GGA functionals, TD-DFT gradient, OOMP2, MP2 Hessian
   Martin Krupicka        : Initial AUTO-CI
   Lucas Lang             : DCDCAS
   Marvin Lechner         : AUTO-CI (C++ implementation), FIC-MRCC
   Dagmar Lenk            : GEPOL surface, SMD
   Dimitrios Liakos       : Extrapolation schemes; Compound Job, initial MDCI parallelization
   Dimitrios Manganas     : Further ROCIS development; embedding schemes
   Dimitrios Pantazis     : SARC Basis sets
   Anastasios Papadopoulos: AUTO-CI, single reference methods and gradients
   Taras Petrenko         : DFT Hessian,TD-DFT gradient, ASA, ECA, R-Raman, ABS, FL, XAS/XES, NRVS
   Peter Pinski           : DLPNO-MP2, DLPNO-MP2 Gradient
   Christoph Reimann      : Effective Core Potentials
   Marius Retegan         : Local ZFS, SOC
   Christoph Riplinger    : Optimizer, TS searches, QM/MM, DLPNO-CCSD(T), (RO)-DLPNO pert. Triples
   Tobias Risthaus        : Range-separated hybrids, TD-DFT gradient, RPA, STAB
   Michael Roemelt        : Original ROCIS implementation
   Masaaki Saitow         : Open-shell DLPNO-CCSD energy and density
   Barbara Sandhoefer     : DKH picture change effects
   Avijit Sen             : IP-ROCIS
   Kantharuban Sivalingam : CASSCF convergence, NEVPT2, FIC-MRCI
   Bernardo de Souza      : ESD, SOC TD-DFT
   Georgi Stoychev        : AutoAux, RI-MP2 NMR
   Willem Van den Heuvel  : Paramagnetic NMR
   Boris Wezisla          : Elementary symmetry handling
   Frank Wennmohs         : Technical directorship


 We gratefully acknowledge several colleagues who have allowed us to
 interface, adapt or use parts of their codes:
   Stefan Grimme, W. Hujo, H. Kruse, P. Pracht,  : VdW corrections, initial TS optimization,
                  C. Bannwarth, S. Ehlert          DFT functionals, gCP, sTDA/sTD-DF
   Ed Valeev, F. Pavosevic, A. Kumar             : LibInt (2-el integral package), F12 methods
   Garnet Chan, S. Sharma, J. Yang, R. Olivares  : DMRG
   Ulf Ekstrom                                   : XCFun DFT Library
   Mihaly Kallay                                 : mrcc  (arbitrary order and MRCC methods)
   Jiri Pittner, Ondrej Demel                    : Mk-CCSD
   Frank Weinhold                                : gennbo (NPA and NBO analysis)
   Christopher J. Cramer and Donald G. Truhlar   : smd solvation model
   Lars Goerigk                                  : TD-DFT with DH, B97 family of functionals
   V. Asgeirsson, H. Jonsson                     : NEB implementation
   FAccTs GmbH                                   : IRC, NEB, NEB-TS, DLPNO-Multilevel, CI-OPT
                                                   MM, QMMM, 2- and 3-layer-ONIOM, Crystal-QMMM,
                                                   LR-CPCM, SF, NACMEs, symmetry and pop. for TD-DFT,
                                                   nearIR, NL-DFT gradient (VV10), updates on ESD,
                                                   ML-optimized integration grids
   S Lehtola, MJT Oliveira, MAL Marques          : LibXC Library
   Liviu Ungur et al                             : ANISO software


 Your calculation uses the libint2 library for the computation of 2-el integrals
 For citations please refer to: http://libint.valeyev.net

 Your ORCA version has been built with support for libXC version: 5.1.0
 For citations please refer to: https://tddft.org/programs/libxc/

 This ORCA versions uses:
   CBLAS   interface :  Fast vector & matrix operations
   LAPACKE interface :  Fast linear algebra routines
   SCALAPACK package :  Parallel linear algebra routines
   Shared memory     :  Shared parallel matrices
   BLAS/LAPACK       :  OpenBLAS 0.3.15  USE64BITINT DYNAMIC_ARCH NO_AFFINITY Haswell SINGLE_THREADED
        Core in use  :  Haswell
   Copyright (c) 2011-2014, The OpenBLAS Project




***************************************
The coordinates will be read from file: D5.xyz
***************************************


XCFun DFT library Copyright 2009-2010 Ulf Ekstrom and contributors.
See http://admol.org/xcfun for more information.
This is free software; see the source code for copying conditions.
There is ABSOLUTELY NO WARRANTY; not even for MERCHANTABILITY or FITNESS FOR A PARTICULAR PURPOSE.
For details see the documentation.
Scientific users of this library should cite U. Ekstrom, L. Visscher, R. Bast, A. J. Thorvaldsen and K. Ruud;
J.Chem.Theor.Comp. 2010, DOI: 10.1021/ct100117s
XCFun Version 0.99 

================================================================================

----- Orbital basis set information -----
Your calculation utilizes the basis: def2-SVPD
   F. Weigend and R. Ahlrichs, Phys. Chem. Chem. Phys. 7, 3297 (2005).
   D. Rappoport and F. Furche, J. Chem. Phys. 133 134105 (2010).

----- AuxJ basis set information -----
Your calculation utilizes the auxiliary basis: def2/J
   F. Weigend, Phys. Chem. Chem. Phys. 8, 1057 (2006).

================================================================================
                                        WARNINGS
                       Please study these warnings very carefully!
================================================================================


INFO   : the flag for use of the SHARK integral package has been found!

================================================================================
                                       INPUT FILE
================================================================================
NAME = 28Oct_SVPD_CAMB3LYP_D5_wb97.com
|  1> !CAM-B3LYP RIJCOSX def2-SVPD def2/J TightSCF xyzfile                                                                                         
|  2> 
|  3> *xyzfile 0 1 D5.xyz
|  4> 
|  5> %MaxCore 64000
|  6> 
|  7> %pal nprocs 4
|  8> end  
|  9> 
| 10> %scf
| 11>   MaxIter 150
| 12> end
| 13> 
| 14> 
| 15>                          ****END OF INPUT****
================================================================================

                       ****************************
                       * Single Point Calculation *
                       ****************************

---------------------------------
CARTESIAN COORDINATES (ANGSTROEM)
---------------------------------
  C      4.490588    1.155899   -2.469290
  N      4.305394    1.222762   -3.908317
  C      4.906458   -3.102816   -5.954844
  C      3.511771   -2.806215   -6.492283
  H      2.736044   -3.373445   -5.973736
  H      3.444904   -3.040831   -7.555281
  S      3.004618   -1.096206   -6.389259
  C      4.631918    2.246365   -4.670958
  C      4.541686    2.143990   -5.987139
  N      5.084086    3.393584   -4.118545
  H      4.920675    3.570501   -3.135870
  H      5.254652    4.197390   -4.706956
  H      3.824530    0.449113   -4.350926
  H      4.343373    1.249318   -6.416646
  H      4.676712    2.956624   -6.574113
  O      4.128856   -0.329647   -6.953717
  F      1.781285   -1.000779   -7.136399
  C      5.942129    0.939500   -2.036893
  H      3.864305    0.328532   -2.136611
  H      4.076233    2.049994   -1.989010
  C      6.462677   -3.117775   -3.944671
  C      5.024977   -3.025679   -4.437625
  H      4.423321   -3.818693   -3.977648
  H      4.579350   -2.087131   -4.108727
  H      5.201533   -4.100207   -6.296905
  H      5.605922   -2.397822   -6.413368
  C      6.559957   -0.356290   -2.559086
  H      5.967976    0.952567   -0.942444
  H      6.547184    1.788331   -2.368849
  C      6.006283   -1.615917   -1.899301
  H      7.642360   -0.318000   -2.402059
  H      6.414855   -0.403433   -3.642587
  C      6.608718   -2.917014   -2.435655
  H      6.190324   -1.561115   -0.820948
  H      4.919250   -1.651245   -2.016586
  H      7.066975   -2.374258   -4.475514
  H      6.887808   -4.089747   -4.215332
  H      6.135197   -3.755573   -1.915159
  H      7.671142   -2.955503   -2.172291
  O      2.851546   -0.783683   -4.956789

----------------------------
CARTESIAN COORDINATES (A.U.)
----------------------------
  NO LB      ZA    FRAG     MASS         X           Y           Z
   0 C     6.0000    0    12.011    8.485982    2.184332   -4.666282
   1 N     7.0000    0    14.007    8.136015    2.310685   -7.385649
   2 C     6.0000    0    12.011    9.271862   -5.863473  -11.253025
   3 C     6.0000    0    12.011    6.636285   -5.302977  -12.268638
   4 H     1.0000    0     1.008    5.170374   -6.374888  -11.288724
   5 H     1.0000    0     1.008    6.509926   -5.746338  -14.277412
   6 S    16.0000    0    32.060    5.677904   -2.071530  -12.073950
   7 C     6.0000    0    12.011    8.753057    4.245015   -8.826831
   8 C     6.0000    0    12.011    8.582543    4.051553  -11.314052
   9 N     7.0000    0    14.007    9.607530    6.412945   -7.782923
  10 H     1.0000    0     1.008    9.298728    6.747268   -5.925936
  11 H     1.0000    0     1.008    9.929852    7.931917   -8.894858
  12 H     1.0000    0     1.008    7.227314    0.848701   -8.222058
  13 H     1.0000    0     1.008    8.207786    2.360868  -12.125704
  14 H     1.0000    0     1.008    8.837705    5.587209  -12.423274
  15 O     8.0000    0    15.999    7.802408   -0.622942  -13.140621
  16 F     9.0000    0    18.998    3.366140   -1.891199  -13.485840
  17 C     6.0000    0    12.011   11.228997    1.775397   -3.849170
  18 H     1.0000    0     1.008    7.302479    0.620836   -4.037610
  19 H     1.0000    0     1.008    7.702964    3.873927   -3.758685
  20 C     6.0000    0    12.011   12.212689   -5.891741   -7.454347
  21 C     6.0000    0    12.011    9.495831   -5.717705   -8.385896
  22 H     1.0000    0     1.008    8.358866   -7.216284   -7.516666
  23 H     1.0000    0     1.008    8.653718   -3.944106   -7.764369
  24 H     1.0000    0     1.008    9.829473   -7.748269  -11.899427
  25 H     1.0000    0     1.008   10.593657   -4.531226  -12.119509
  26 C     6.0000    0    12.011   12.396522   -0.673291   -4.835971
  27 H     1.0000    0     1.008   11.277840    1.800090   -1.780961
  28 H     1.0000    0     1.008   12.372385    3.379455   -4.476477
  29 C     6.0000    0    12.011   11.350230   -3.053641   -3.589158
  30 H     1.0000    0     1.008   14.441966   -0.600934   -4.539234
  31 H     1.0000    0     1.008   12.122318   -0.762378   -6.883492
  32 C     6.0000    0    12.011   12.488666   -5.512358   -4.602721
  33 H     1.0000    0     1.008   11.698016   -2.950080   -1.551366
  34 H     1.0000    0     1.008    9.296035   -3.120400   -3.810796
  35 H     1.0000    0     1.008   13.354648   -4.486697   -8.457496
  36 H     1.0000    0     1.008   13.016070   -7.728501   -7.965822
  37 H     1.0000    0     1.008   11.593841   -7.097005   -3.619127
  38 H     1.0000    0     1.008   14.496357   -5.585092   -4.105035
  39 O     8.0000    0    15.999    5.388641   -1.480946   -9.366974

--------------------------------
INTERNAL COORDINATES (ANGSTROEM)
--------------------------------
 C      0   0   0     0.000000000000     0.00000000     0.00000000
 N      1   0   0     1.452434888732     0.00000000     0.00000000
 C      2   1   0     4.822880648060   111.29935464     0.00000000
 C      3   2   1     1.523799819616    82.01111056   124.72570022
 H      4   3   2     1.091968299252   112.43309611   255.51929182
 H      4   3   2     1.090632873150   110.97759244   134.54655122
 S      4   3   2     1.786602224664   115.19977359    16.50892478
 C      2   1   3     1.317574833962   125.28497018   214.05519914
 C      8   2   1     1.323236350905   119.91604121   173.18858040
 N      8   2   1     1.351194480527   120.39094198   354.48825376
 H     10   8   2     1.011757151303   119.43893893   342.13916756
 H     10   8   2     1.010654769343   119.58539038   185.29571941
 H      2   1   3     1.012750840265   117.28239304    38.84614007
 H      9   8   2     1.012048706728   120.25757225   351.78674532
 H      9   8   2     1.011506480060   120.39405507   172.23609159
 O      7   4   3     1.473139212620   105.02973514    49.07238667
 F      7   4   3     1.436617023222   105.98041552   170.73821441
 C      1   2   3     1.529956533456   114.04751046    71.27147181
 H      1   2   3     1.089697165343   105.31628314   309.84494500
 H      1   2   3     1.096250554262   110.38499465   196.36075284
 C      3   2   1     2.542211031985    75.28786529   328.63877310
 C     21   3   2     1.522650424266    33.45203408    62.46988994
 H     22  21   3     1.096558425421   109.78678321   123.00138599
 H     22  21   3     1.089784085482   109.90626334   238.94967961
 H      3   2   1     1.094926392967   169.46526939   316.66150389
 H      3   2   1     1.093851646948    71.30795148   237.06279558
 C     18   1   2     1.527569327213   114.02213033   299.75436756
 H     18   1   2     1.094832037269   107.65179087   177.40351951
 H     18   1   2     1.093983651653   109.22173402    62.36298160
 C     27  18   1     1.525952470352   113.93276277   288.90034571
 H     27  18   1     1.094403426518   108.74093275   167.10616769
 H     27  18   1     1.094190161747   108.74874272    52.17399198
 C     21   3   2     1.529300762752   146.92063230    53.80488115
 H     30  27  18     1.095317124906   108.86941482   300.75108730
 H     30  27  18     1.093912987644   109.92906200    56.35085961
 H     21   3   2     1.095348999413    87.16372703   291.04892433
 H     21   3   2     1.094861915024    92.71949470   185.57163885
 H     33  21   3     1.094677724411   109.10507473    72.09358689
 H     33  21   3     1.095256828209   108.98305469   187.60350442
 O      7   4   3     1.474133937430   106.76381078   292.33403201

---------------------------
INTERNAL COORDINATES (A.U.)
---------------------------
 C      0   0   0     0.000000000000     0.00000000     0.00000000
 N      1   0   0     2.744704167055     0.00000000     0.00000000
 C      2   1   0     9.113923601421   111.29935464     0.00000000
 C      3   2   1     2.879564341994    82.01111056   124.72570022
 H      4   3   2     2.063521032510   112.43309611   255.51929182
 H      4   3   2     2.060997442905   110.97759244   134.54655122
 S      4   3   2     3.376188914869   115.19977359    16.50892478
 C      2   1   3     2.489855597135   125.28497018   214.05519914
 C      8   2   1     2.500554313659   119.91604121   173.18858040
 N      8   2   1     2.553387521862   120.39094198   354.48825376
 H     10   8   2     1.911943930000   119.43893893   342.13916756
 H     10   8   2     1.909860730000   119.58539038   185.29571941
 H      2   1   3     1.913821729999   117.28239304    38.84614007
 H      9   8   2     1.912494889904   120.25757225   351.78674532
 H      9   8   2     1.911470230000   120.39405507   172.23609159
 O      7   4   3     2.783829668993   105.02973514    49.07238667
 F      7   4   3     2.714812733219   105.98041552   170.73821441
 C      1   2   3     2.891198845036   114.04751046    71.27147181
 H      1   2   3     2.059229211409   105.31628314   309.84494500
 H      1   2   3     2.071613321715   110.38499465   196.36075284
 C      3   2   1     4.804082625084    75.28786529   328.63877310
 C     21   3   2     2.877392299561    33.45203408    62.46988994
 H     22  21   3     2.072195113889   109.78678321   123.00138599
 H     22  21   3     2.059393466667   109.90626334   238.94967961
 H      3   2   1     2.069111019509   169.46526939   316.66150389
 H      3   2   1     2.067080043870    71.30795148   237.06279558
 C     18   1   2     2.886687679010   114.02213033   299.75436756
 H     18   1   2     2.068932713082   107.65179087   177.40351951
 H     18   1   2     2.067329496612   109.22173402    62.36298160
 C     27  18   1     2.883632262346   113.93276277   288.90034571
 H     27  18   1     2.068122756144   108.74093275   167.10616769
 H     27  18   1     2.067719744133   108.74874272    52.17399198
 C     21   3   2     2.889959617997   146.92063230    53.80488115
 H     30  27  18     2.069849395866   108.86941482   300.75108730
 H     30  27  18     2.067195960987   109.92906200    56.35085961
 H     21   3   2     2.069909629955    87.16372703   291.04892433
 H     21   3   2     2.068989173855    92.71949470   185.57163885
 H     33  21   3     2.068641104040   109.10507473    72.09358689
 H     33  21   3     2.069735451623   108.98305469   187.60350442
 O      7   4   3     2.785709426462   106.76381078   292.33403201

---------------------
BASIS SET INFORMATION
---------------------
There are 6 groups of distinct atoms

 Group   1 Type C   : 8s4p2d contracted to 4s2p2d pattern {5111/31/11}
 Group   2 Type N   : 8s4p2d contracted to 4s2p2d pattern {5111/31/11}
 Group   3 Type H   : 4s2p contracted to 2s2p pattern {31/11}
 Group   4 Type S   : 11s8p2d contracted to 5s4p2d pattern {53111/5111/11}
 Group   5 Type O   : 8s5p2d contracted to 4s3p2d pattern {5111/311/11}
 Group   6 Type F   : 8s5p2d contracted to 4s3p2d pattern {5111/311/11}

Atom   0C    basis set group =>   1
Atom   1N    basis set group =>   2
Atom   2C    basis set group =>   1
Atom   3C    basis set group =>   1
Atom   4H    basis set group =>   3
Atom   5H    basis set group =>   3
Atom   6S    basis set group =>   4
Atom   7C    basis set group =>   1
Atom   8C    basis set group =>   1
Atom   9N    basis set group =>   2
Atom  10H    basis set group =>   3
Atom  11H    basis set group =>   3
Atom  12H    basis set group =>   3
Atom  13H    basis set group =>   3
Atom  14H    basis set group =>   3
Atom  15O    basis set group =>   5
Atom  16F    basis set group =>   6
Atom  17C    basis set group =>   1
Atom  18H    basis set group =>   3
Atom  19H    basis set group =>   3
Atom  20C    basis set group =>   1
Atom  21C    basis set group =>   1
Atom  22H    basis set group =>   3
Atom  23H    basis set group =>   3
Atom  24H    basis set group =>   3
Atom  25H    basis set group =>   3
Atom  26C    basis set group =>   1
Atom  27H    basis set group =>   3
Atom  28H    basis set group =>   3
Atom  29C    basis set group =>   1
Atom  30H    basis set group =>   3
Atom  31H    basis set group =>   3
Atom  32C    basis set group =>   1
Atom  33H    basis set group =>   3
Atom  34H    basis set group =>   3
Atom  35H    basis set group =>   3
Atom  36H    basis set group =>   3
Atom  37H    basis set group =>   3
Atom  38H    basis set group =>   3
Atom  39O    basis set group =>   5
---------------------------------
AUXILIARY/J BASIS SET INFORMATION
---------------------------------
There are 6 groups of distinct atoms

 Group   1 Type C   : 12s5p4d2f1g contracted to 6s4p3d1f1g pattern {711111/2111/211/2/1}
 Group   2 Type N   : 12s5p4d2f1g contracted to 6s4p3d1f1g pattern {711111/2111/211/2/1}
 Group   3 Type H   : 5s2p1d contracted to 3s1p1d pattern {311/2/1}
 Group   4 Type S   : 14s5p5d2f1g contracted to 8s4p3d1f1g pattern {71111111/2111/311/2/1}
 Group   5 Type O   : 12s5p4d2f1g contracted to 6s4p3d1f1g pattern {711111/2111/211/2/1}
 Group   6 Type F   : 12s5p4d2f1g contracted to 6s4p3d1f1g pattern {711111/2111/211/2/1}

Atom   0C    basis set group =>   1
Atom   1N    basis set group =>   2
Atom   2C    basis set group =>   1
Atom   3C    basis set group =>   1
Atom   4H    basis set group =>   3
Atom   5H    basis set group =>   3
Atom   6S    basis set group =>   4
Atom   7C    basis set group =>   1
Atom   8C    basis set group =>   1
Atom   9N    basis set group =>   2
Atom  10H    basis set group =>   3
Atom  11H    basis set group =>   3
Atom  12H    basis set group =>   3
Atom  13H    basis set group =>   3
Atom  14H    basis set group =>   3
Atom  15O    basis set group =>   5
Atom  16F    basis set group =>   6
Atom  17C    basis set group =>   1
Atom  18H    basis set group =>   3
Atom  19H    basis set group =>   3
Atom  20C    basis set group =>   1
Atom  21C    basis set group =>   1
Atom  22H    basis set group =>   3
Atom  23H    basis set group =>   3
Atom  24H    basis set group =>   3
Atom  25H    basis set group =>   3
Atom  26C    basis set group =>   1
Atom  27H    basis set group =>   3
Atom  28H    basis set group =>   3
Atom  29C    basis set group =>   1
Atom  30H    basis set group =>   3
Atom  31H    basis set group =>   3
Atom  32C    basis set group =>   1
Atom  33H    basis set group =>   3
Atom  34H    basis set group =>   3
Atom  35H    basis set group =>   3
Atom  36H    basis set group =>   3
Atom  37H    basis set group =>   3
Atom  38H    basis set group =>   3
Atom  39O    basis set group =>   5


           ************************************************************
           *        Program running with 4 parallel MPI-processes     *
           *              working on a common directory               *
           ************************************************************
------------------------------------------------------------------------------
                           ORCA GTO INTEGRAL CALCULATION
                           -- RI-GTO INTEGRALS CHOSEN --
------------------------------------------------------------------------------
------------------------------------------------------------------------------
                   ___                                                        
                  /   \      - P O W E R E D   B Y -                         
                 /     \                                                     
                 |  |  |   _    _      __       _____    __    __             
                 |  |  |  | |  | |    /  \     |  _  \  |  |  /  |          
                  \  \/   | |  | |   /    \    | | | |  |  | /  /          
                 / \  \   | |__| |  /  /\  \   | |_| |  |  |/  /          
                |  |  |   |  __  | /  /__\  \  |    /   |      \           
                |  |  |   | |  | | |   __   |  |    \   |  |\   \          
                \     /   | |  | | |  |  |  |  | |\  \  |  | \   \       
                 \___/    |_|  |_| |__|  |__|  |_| \__\ |__|  \__/        
                                                                              
                      - O R C A' S   B I G   F R I E N D -                    
                                      &                                       
                       - I N T E G R A L  F E E D E R -                       
                                                                              
 v1 FN, 2020, v2 2021                                                         
------------------------------------------------------------------------------


Reading SHARK input file 28Oct_SVPD_CAMB3LYP_D5_wb97.SHARKINP.tmp ... ok
----------------------
SHARK INTEGRAL PACKAGE
----------------------

Number of atoms                             ...     40
Number of basis functions                   ...    540
Number of shells                            ...    234
Maximum angular momentum                    ...      2
Integral batch strategy                     ... SHARK/LIBINT Hybrid
RI-J (if used) integral strategy            ... SPLIT-RIJ (Revised 2003 algorithm where possible)
Printlevel                                  ...      1
Contraction scheme used                     ... SEGMENTED contraction
Coulomb Range Separation                    ... NOT USED
Exchange Range Separation                   ... Long Range
   Mu parameter                             ...  0.330000
   Scaling (regular/separated)              ...  0.190000  0.460000
Finite Nucleus Model                        ... NOT USED
Auxiliary Coulomb fitting basis             ... AVAILABLE
   # of basis functions in Aux-J            ...   1088
   # of shells in Aux-J                     ...    372
   Maximum angular momentum in Aux-J        ...      4
Auxiliary J/K fitting basis                 ... NOT available
Auxiliary Correlation fitting basis         ... NOT available
Auxiliary 'external' fitting basis          ... NOT available
Integral threshold                          ...     2.500000e-11
Primitive cut-off                           ...     2.500000e-12
Primitive pair pre-selection threshold      ...     2.500000e-12

Calculating pre-screening integrals         ... done (  0.1 sec) Dimension = 234
Organizing shell pair data                  ... done (  0.2 sec)
Shell pair information
Total number of shell pairs                 ...     27495
Shell pairs after pre-screening             ...     24593
Total number of primitive shell pairs       ...     74991
Primitive shell pairs kept                  ...     49926
          la=0 lb=0:   5919 shell pairs
          la=1 lb=0:   8750 shell pairs
          la=1 lb=1:   3277 shell pairs
          la=2 lb=0:   3505 shell pairs
          la=2 lb=1:   2605 shell pairs
          la=2 lb=2:    537 shell pairs

Calculating one electron integrals          ... done (  0.1 sec)
Calculating RI/J V-Matrix + Cholesky decomp.... done (  0.2 sec)
Calculating Nuclear repulsion               ... done (  0.0 sec) ENN=   1571.414116262247 Eh

SHARK setup successfully completed in   0.7 seconds

Maximum memory used throughout the entire GTOINT-calculation: 36.0 MB


           ************************************************************
           *        Program running with 4 parallel MPI-processes     *
           *              working on a common directory               *
           ************************************************************
-------------------------------------------------------------------------------
                                 ORCA SCF
-------------------------------------------------------------------------------

------------
SCF SETTINGS
------------
Hamiltonian:
 Density Functional     Method          .... DFT(GTOs)
 Exchange Functional    Exchange        .... WB88
 Correlation Functional Correlation     .... LYP
 LDA part of GGA corr.  LDAOpt          .... VWN-5
 Gradients option       PostSCFGGA      .... off
 Hybrid DFT is turned on
   Fraction HF Exchange ScalHFX         ....  0.190000
   Scaling of DF-GGA-X  ScalDFX         ....  0.350000
   Scaling of DF-GGA-C  ScalDFC         ....  0.810000
   Scaling of DF-LDA-C  ScalLDAC        ....  1.000000
   Perturbative correction              ....  0.000000
   Density functional embedding theory  .... OFF
 Long-range corrected/Screened/Range-Separated Hybrid DFT is turned on
   Amount of maximum screened exact exchange              ....  0.460000
   Range separation parameter mu (erf(mu*r12)/r12)        ....  0.330000
 RI-approximation to the Coulomb term is turned on
   Number of AuxJ basis functions       .... 1088
   RIJ-COSX (HFX calculated with COS-X)).... on


General Settings:
 Integral files         IntName         .... 28Oct_SVPD_CAMB3LYP_D5_wb97
 Hartree-Fock type      HFTyp           .... RHF
 Total Charge           Charge          ....    0
 Multiplicity           Mult            ....    1
 Number of Electrons    NEL             ....  144
 Basis Dimension        Dim             ....  540
 Nuclear Repulsion      ENuc            ....   1571.4141162622 Eh

Convergence Acceleration:
 DIIS                   CNVDIIS         .... on
   Start iteration      DIISMaxIt       ....    12
   Startup error        DIISStart       ....  0.200000
   # of expansion vecs  DIISMaxEq       ....     5
   Bias factor          DIISBfac        ....   1.050
   Max. coefficient     DIISMaxC        ....  10.000
 Trust-Rad. Augm. Hess. CNVTRAH         .... auto
   Auto Start mean grad. ratio tolernc. ....  1.125000
   Auto Start start iteration           ....    20
   Auto Start num. interpolation iter.  ....    10
   Max. Number of Micro iterations      ....    16
   Max. Number of Macro iterations      .... Maxiter - #DIIS iter
   Number of Davidson start vectors     ....     2
   Converg. threshold I  (grad. norm)   ....   1.000e-05
   Converg. threshold II (energy diff.) ....   1.000e-08
   Grad. Scal. Fac. for Micro threshold ....   0.100
   Minimum threshold for Micro iter.    ....   0.010
   NR start threshold (gradient norm)   ....   0.001
   Initial trust radius                 ....   0.400
   Minimum AH scaling param. (alpha)    ....   1.000
   Maximum AH scaling param. (alpha)    .... 1000.000
   Orbital update algorithm             .... Taylor
   White noise on init. David. guess    .... on
   Maximum white noise                  ....   0.010
   Quad. conv. algorithm                .... NR
 SOSCF                  CNVSOSCF        .... on
   Start iteration      SOSCFMaxIt      ....   150
   Startup grad/error   SOSCFStart      ....  0.003300
 Level Shifting         CNVShift        .... on
   Level shift para.    LevelShift      ....    0.2500
   Turn off err/grad.   ShiftErr        ....    0.0010
 Zerner damping         CNVZerner       .... off
 Static damping         CNVDamp         .... on
   Fraction old density DampFac         ....    0.7000
   Max. Damping (<1)    DampMax         ....    0.9800
   Min. Damping (>=0)   DampMin         ....    0.0000
   Turn off err/grad.   DampErr         ....    0.1000
 Fernandez-Rico         CNVRico         .... off

SCF Procedure:
 Maximum # iterations   MaxIter         ....   150
 SCF integral mode      SCFMode         .... Direct
   Integral package                     .... SHARK and LIBINT hybrid scheme
 Reset frequency        DirectResetFreq ....    20
 Integral Threshold     Thresh          ....  2.500e-11 Eh
 Primitive CutOff       TCut            ....  2.500e-12 Eh

Convergence Tolerance:
 Convergence Check Mode ConvCheckMode   .... Total+1el-Energy
 Convergence forced     ConvForced      .... 0
 Energy Change          TolE            ....  1.000e-08 Eh
 1-El. energy change                    ....  1.000e-05 Eh
 Orbital Gradient       TolG            ....  1.000e-05
 Orbital Rotation angle TolX            ....  1.000e-05
 DIIS Error             TolErr          ....  5.000e-07


Diagonalization of the overlap matrix:
Smallest eigenvalue                        ... 1.222e-05
Time for diagonalization                   ...    0.072 sec
Threshold for overlap eigenvalues          ... 1.000e-08
Number of eigenvalues below threshold      ... 0
Time for construction of square roots      ...    0.090 sec
Total time needed                          ...    0.165 sec

Time for model grid setup =    0.515 sec

------------------------------
INITIAL GUESS: MODEL POTENTIAL
------------------------------
Loading Hartree-Fock densities                     ... done
Calculating cut-offs                               ... done
Initializing the effective Hamiltonian             ... done
Setting up the integral package (SHARK)            ... done
Starting the Coulomb interaction                   ... done (   0.7 sec)
Reading the grid                                   ... done
Mapping shells                                     ... done
Starting the XC term evaluation                    ... done (   0.8 sec)
  promolecular density results
     # of electrons  =    143.983018170
     EX              =   -127.655470054
     EC              =     -4.952990160
     EX+EC           =   -132.608460214
Transforming the Hamiltonian                       ... done (   0.0 sec)
Diagonalizing the Hamiltonian                      ... done (   0.1 sec)
Back transforming the eigenvectors                 ... done (   0.0 sec)
Now organizing SCF variables                       ... done
                      ------------------
                      INITIAL GUESS DONE (   2.0 sec)
                      ------------------
-------------------
DFT GRID GENERATION
-------------------

General Integration Accuracy     IntAcc      ... 4.388
Radial Grid Type                 RadialGrid  ... OptM3 with GC (2021)
Angular Grid (max. ang.)         AngularGrid ... 4 (Lebedev-302)
Angular grid pruning method      GridPruning ... 4 (adaptive)
Weight generation scheme         WeightScheme... Becke
Basis function cutoff            BFCut       ... 1.0000e-11
Integration weight cutoff        WCut        ... 1.0000e-14
Angular grids for H and He will be reduced by one unit
Partially contracted basis set               ... off
Rotationally invariant grid construction     ... off

Total number of grid points                  ...   179822
Total number of batches                      ...     2829
Average number of points per batch           ...       63
Average number of grid points per atom       ...     4496
Time for grid setup =    1.887 sec

--------------------
COSX GRID GENERATION
--------------------

GRIDX 1
-------
General Integration Accuracy     IntAcc      ... 3.816
Radial Grid Type                 RadialGrid  ... OptM3 with GC (2021)
Angular Grid (max. ang.)         AngularGrid ... 1 (Lebedev-50)
Angular grid pruning method      GridPruning ... 4 (adaptive)
Weight generation scheme         WeightScheme... Becke
Basis function cutoff            BFCut       ... 1.0000e-11
Integration weight cutoff        WCut        ... 1.0000e-14
Angular grids for H and He will be reduced by one unit
Partially contracted basis set               ... on
Rotationally invariant grid construction     ... off

Total number of grid points                  ...    22370
Total number of batches                      ...      376
Average number of points per batch           ...       59
Average number of grid points per atom       ...      559
UseSFitting                                  ... on

GRIDX 2
-------
General Integration Accuracy     IntAcc      ... 4.020
Radial Grid Type                 RadialGrid  ... OptM3 with GC (2021)
Angular Grid (max. ang.)         AngularGrid ... 2 (Lebedev-110)
Angular grid pruning method      GridPruning ... 4 (adaptive)
Weight generation scheme         WeightScheme... Becke
Basis function cutoff            BFCut       ... 1.0000e-11
Integration weight cutoff        WCut        ... 1.0000e-14
Angular grids for H and He will be reduced by one unit
Partially contracted basis set               ... on
Rotationally invariant grid construction     ... off

Total number of grid points                  ...    49141
Total number of batches                      ...      788
Average number of points per batch           ...       62
Average number of grid points per atom       ...     1229
UseSFitting                                  ... on

GRIDX 3
-------
General Integration Accuracy     IntAcc      ... 4.338
Radial Grid Type                 RadialGrid  ... OptM3 with GC (2021)
Angular Grid (max. ang.)         AngularGrid ... 3 (Lebedev-194)
Angular grid pruning method      GridPruning ... 4 (adaptive)
Weight generation scheme         WeightScheme... Becke
Basis function cutoff            BFCut       ... 1.0000e-11
Integration weight cutoff        WCut        ... 1.0000e-14
Angular grids for H and He will be reduced by one unit
Partially contracted basis set               ... on
Rotationally invariant grid construction     ... off

Total number of grid points                  ...   110432
Total number of batches                      ...     1747
Average number of points per batch           ...       63
Average number of grid points per atom       ...     2761
UseSFitting                                  ... on

Time for X-Grid setup             =    2.777 sec

--------------
SCF ITERATIONS
--------------
ITER       Energy         Delta-E        Max-DP      RMS-DP      [F,P]     Damp
               ***  Starting incremental Fock matrix formation  ***
  0  -1189.1472037668   0.000000000000 0.21313995  0.00272467  0.2645529 0.7000
  1  -1189.4610220869  -0.313818320004 0.27162639  0.00209943  0.1399886 0.7000
                               ***Turning on DIIS***
  2  -1189.5928504009  -0.131828314007 0.53474749  0.00420736  0.0657246 0.0000
  3  -1189.8044425095  -0.211592108691 0.18874527  0.00154600  0.0674061 0.0000
  4  -1189.8460166650  -0.041574155461 0.04894714  0.00040829  0.0166633 0.0000
  5  -1189.8476718856  -0.001655220580 0.03302411  0.00016983  0.0090171 0.0000
                      *** Initiating the SOSCF procedure ***
                           *** Shutting down DIIS ***
                      *** Re-Reading the Fockian *** 
                      *** Removing any level shift *** 
ITER      Energy       Delta-E        Grad      Rot      Max-DP    RMS-DP
  6  -1189.84791625  -0.0002443617  0.000432  0.000432  0.006962  0.000061
               *** Restarting incremental Fock matrix formation ***
  7  -1189.84799057  -0.0000743258  0.000251  0.000936  0.009035  0.000153
  8  -1189.84799646  -0.0000058872  0.000147  0.000677  0.004139  0.000072
  9  -1189.84799780  -0.0000013410  0.000063  0.000167  0.003307  0.000054
 10  -1189.84799836  -0.0000005597  0.000016  0.000048  0.001962  0.000018
 11  -1189.84799840  -0.0000000382  0.000020  0.000048  0.000672  0.000010
 12  -1189.84799844  -0.0000000434  0.000003  0.000005  0.002261  0.000008
                  ***Gradient check signals convergence***
              ***Rediagonalizing the Fockian in SOSCF/NRSCF***

               *****************************************************
               *                     SUCCESS                       *
               *           SCF CONVERGED AFTER  13 CYCLES          *
               *****************************************************

Old exchange energy                            =    -36.044621275 Eh
New exchange energy                            =    -36.044615153 Eh
Exchange energy change after final integration =      0.000006122 Eh
Total energy after final integration           =  -1189.847992320 Eh
Final COS-X integration done in                =    83.369 sec

----------------
TOTAL SCF ENERGY
----------------

Total Energy       :        -1189.84799232 Eh          -32377.40991 eV

Components:
Nuclear Repulsion  :         1571.41411626 Eh           42760.35200 eV
Electronic Energy  :        -2761.26210858 Eh          -75137.76190 eV
One Electron Energy:        -4750.53933949 Eh         -129268.74732 eV
Two Electron Energy:         1989.27723091 Eh           54130.98542 eV
Max COSX asymmetry :            0.00000844 Eh               0.00023 eV

Virial components:
Potential Energy   :        -2371.11766621 Eh          -64521.39190 eV
Kinetic Energy     :         1181.26967389 Eh           32143.98199 eV
Virial Ratio       :            2.00726195


DFT components:
N(Alpha)           :       71.999790391957 electrons
N(Beta)            :       71.999790391957 electrons
N(Total)           :      143.999580783913 electrons
E(XC)              :      -99.315933601473 Eh       
DFET-embed. en.    :        0.000000000000 Eh       

---------------
SCF CONVERGENCE
---------------

  Last Energy change         ...    9.0154e-10  Tolerance :   1.0000e-08
  Last MAX-Density change    ...    5.3291e-15  Tolerance :   1.0000e-07
  Last RMS-Density change    ...    3.5920e-17  Tolerance :   5.0000e-09
  Last Orbital Gradient      ...    1.6163e-06  Tolerance :   1.0000e-05
  Last Orbital Rotation      ...    2.5545e-06  Tolerance :   1.0000e-05

             **** THE GBW FILE WAS UPDATED (28Oct_SVPD_CAMB3LYP_D5_wb97.gbw) ****
             **** DENSITY 28Oct_SVPD_CAMB3LYP_D5_wb97.scfp WAS UPDATED ****
             **** ENERGY FILE WAS UPDATED (28Oct_SVPD_CAMB3LYP_D5_wb97.en.tmp) ****
             **** THE GBW FILE WAS UPDATED (28Oct_SVPD_CAMB3LYP_D5_wb97.gbw) ****
             **** DENSITY 28Oct_SVPD_CAMB3LYP_D5_wb97.scfp WAS UPDATED ****
----------------
ORBITAL ENERGIES
----------------

  NO   OCC          E(Eh)            E(eV) 
   0   2.0000     -89.238225     -2428.2956 
   1   2.0000     -24.910287      -677.8434 
   2   2.0000     -19.240398      -523.5578 
   3   2.0000     -19.229533      -523.2622 
   4   2.0000     -14.378608      -391.2618 
   5   2.0000     -14.361452      -390.7950 
   6   2.0000     -10.333072      -281.1772 
   7   2.0000     -10.290518      -280.0192 
   8   2.0000     -10.273236      -279.5490 
   9   2.0000     -10.273126      -279.5460 
  10   2.0000     -10.261792      -279.2376 
  11   2.0000     -10.255969      -279.0791 
  12   2.0000     -10.251689      -278.9626 
  13   2.0000     -10.245937      -278.8061 
  14   2.0000     -10.239794      -278.6390 
  15   2.0000     -10.238870      -278.6138 
  16   2.0000     -10.127592      -275.5858 
  17   2.0000      -8.290902      -225.6069 
  18   2.0000      -6.265098      -170.4820 
  19   2.0000      -6.258731      -170.3087 
  20   2.0000      -6.257041      -170.2627 
  21   2.0000      -1.479130       -40.2492 
  22   2.0000      -1.203942       -32.7609 
  23   2.0000      -1.098820       -29.9004 
  24   2.0000      -1.013215       -27.5710 
  25   2.0000      -0.928690       -25.2709 
  26   2.0000      -0.926954       -25.2237 
  27   2.0000      -0.889446       -24.2031 
  28   2.0000      -0.860461       -23.4143 
  29   2.0000      -0.831212       -22.6184 
  30   2.0000      -0.805439       -21.9171 
  31   2.0000      -0.776723       -21.1357 
  32   2.0000      -0.746229       -20.3059 
  33   2.0000      -0.719324       -19.5738 
  34   2.0000      -0.697205       -18.9719 
  35   2.0000      -0.685425       -18.6514 
  36   2.0000      -0.669461       -18.2170 
  37   2.0000      -0.666610       -18.1394 
  38   2.0000      -0.652502       -17.7555 
  39   2.0000      -0.633790       -17.2463 
  40   2.0000      -0.620456       -16.8835 
  41   2.0000      -0.587985       -15.9999 
  42   2.0000      -0.580008       -15.7828 
  43   2.0000      -0.564988       -15.3741 
  44   2.0000      -0.551203       -14.9990 
  45   2.0000      -0.547815       -14.9068 
  46   2.0000      -0.534572       -14.5464 
  47   2.0000      -0.533202       -14.5092 
  48   2.0000      -0.521258       -14.1841 
  49   2.0000      -0.513403       -13.9704 
  50   2.0000      -0.501664       -13.6510 
  51   2.0000      -0.494764       -13.4632 
  52   2.0000      -0.485613       -13.2142 
  53   2.0000      -0.467552       -12.7227 
  54   2.0000      -0.458158       -12.4671 
  55   2.0000      -0.455030       -12.3820 
  56   2.0000      -0.445433       -12.1209 
  57   2.0000      -0.439625       -11.9628 
  58   2.0000      -0.426809       -11.6141 
  59   2.0000      -0.423577       -11.5261 
  60   2.0000      -0.421185       -11.4610 
  61   2.0000      -0.413948       -11.2641 
  62   2.0000      -0.404101       -10.9962 
  63   2.0000      -0.398589       -10.8462 
  64   2.0000      -0.392527       -10.6812 
  65   2.0000      -0.385443       -10.4884 
  66   2.0000      -0.375060       -10.2059 
  67   2.0000      -0.373238       -10.1563 
  68   2.0000      -0.367208        -9.9922 
  69   2.0000      -0.356029        -9.6881 
  70   2.0000      -0.290428        -7.9029 
  71   2.0000      -0.189212        -5.1487 
  72   0.0000       0.020947         0.5700 
  73   0.0000       0.043358         1.1798 
  74   0.0000       0.051050         1.3891 
  75   0.0000       0.057792         1.5726 
  76   0.0000       0.065666         1.7869 
  77   0.0000       0.070854         1.9280 
  78   0.0000       0.074997         2.0408 
  79   0.0000       0.079157         2.1540 
  80   0.0000       0.083207         2.2642 
  81   0.0000       0.090390         2.4596 
  82   0.0000       0.095239         2.5916 
  83   0.0000       0.097441         2.6515 
  84   0.0000       0.105403         2.8682 
  85   0.0000       0.109014         2.9664 
  86   0.0000       0.112111         3.0507 
  87   0.0000       0.121691         3.3114 
  88   0.0000       0.127771         3.4768 
  89   0.0000       0.129169         3.5149 
  90   0.0000       0.133879         3.6430 
  91   0.0000       0.137562         3.7432 
  92   0.0000       0.142144         3.8679 
  93   0.0000       0.146063         3.9746 
  94   0.0000       0.152788         4.1576 
  95   0.0000       0.157727         4.2920 
  96   0.0000       0.161827         4.4035 
  97   0.0000       0.163291         4.4434 
  98   0.0000       0.165766         4.5107 
  99   0.0000       0.172453         4.6927 
 100   0.0000       0.178395         4.8544 
 101   0.0000       0.184166         5.0114 
 102   0.0000       0.186596         5.0775 
 103   0.0000       0.192475         5.2375 
 104   0.0000       0.200086         5.4446 
 105   0.0000       0.203435         5.5357 
 106   0.0000       0.209222         5.6932 
 107   0.0000       0.213892         5.8203 
 108   0.0000       0.217055         5.9064 
 109   0.0000       0.220718         6.0060 
 110   0.0000       0.222022         6.0415 
 111   0.0000       0.230520         6.2728 
 112   0.0000       0.233139         6.3440 
 113   0.0000       0.235833         6.4173 
 114   0.0000       0.240191         6.5359 
 115   0.0000       0.243594         6.6285 
 116   0.0000       0.244517         6.6536 
 117   0.0000       0.255339         6.9481 
 118   0.0000       0.258170         7.0252 
 119   0.0000       0.260476         7.0879 
 120   0.0000       0.262286         7.1372 
 121   0.0000       0.264814         7.2059 
 122   0.0000       0.270051         7.3485 
 123   0.0000       0.276153         7.5145 
 124   0.0000       0.281122         7.6497 
 125   0.0000       0.282645         7.6912 
 126   0.0000       0.282717         7.6931 
 127   0.0000       0.287112         7.8127 
 128   0.0000       0.290424         7.9028 
 129   0.0000       0.295314         8.0359 
 130   0.0000       0.306226         8.3328 
 131   0.0000       0.308492         8.3945 
 132   0.0000       0.312583         8.5058 
 133   0.0000       0.318841         8.6761 
 134   0.0000       0.321239         8.7413 
 135   0.0000       0.325359         8.8535 
 136   0.0000       0.329232         8.9588 
 137   0.0000       0.332343         9.0435 
 138   0.0000       0.337162         9.1746 
 139   0.0000       0.340150         9.2560 
 140   0.0000       0.342044         9.3075 
 141   0.0000       0.349838         9.5196 
 142   0.0000       0.352453         9.5907 
 143   0.0000       0.354986         9.6597 
 144   0.0000       0.358473         9.7545 
 145   0.0000       0.363435         9.8896 
 146   0.0000       0.365031         9.9330 
 147   0.0000       0.367882        10.0106 
 148   0.0000       0.370997        10.0953 
 149   0.0000       0.374236        10.1835 
 150   0.0000       0.377580        10.2745 
 151   0.0000       0.378502        10.2996 
 152   0.0000       0.382876        10.4186 
 153   0.0000       0.385902        10.5009 
 154   0.0000       0.387430        10.5425 
 155   0.0000       0.390159        10.6168 
 156   0.0000       0.392133        10.6705 
 157   0.0000       0.398820        10.8524 
 158   0.0000       0.401839        10.9346 
 159   0.0000       0.403586        10.9821 
 160   0.0000       0.408383        11.1127 
 161   0.0000       0.415405        11.3037 
 162   0.0000       0.417772        11.3682 
 163   0.0000       0.418718        11.3939 
 164   0.0000       0.420898        11.4532 
 165   0.0000       0.426192        11.5973 
 166   0.0000       0.428450        11.6587 
 167   0.0000       0.429803        11.6955 
 168   0.0000       0.432810        11.7774 
 169   0.0000       0.439149        11.9499 
 170   0.0000       0.440872        11.9967 
 171   0.0000       0.444235        12.0882 
 172   0.0000       0.449199        12.2233 
 173   0.0000       0.449321        12.2266 
 174   0.0000       0.455871        12.4049 
 175   0.0000       0.457440        12.4476 
 176   0.0000       0.461544        12.5593 
 177   0.0000       0.468024        12.7356 
 178   0.0000       0.471689        12.8353 
 179   0.0000       0.475416        12.9367 
 180   0.0000       0.477553        12.9949 
 181   0.0000       0.482334        13.1250 
 182   0.0000       0.483138        13.1468 
 183   0.0000       0.487881        13.2759 
 184   0.0000       0.489938        13.3319 
 185   0.0000       0.491486        13.3740 
 186   0.0000       0.495481        13.4827 
 187   0.0000       0.500109        13.6087 
 188   0.0000       0.503256        13.6943 
 189   0.0000       0.507831        13.8188 
 190   0.0000       0.511094        13.9076 
 191   0.0000       0.515448        14.0261 
 192   0.0000       0.519502        14.1364 
 193   0.0000       0.520719        14.1695 
 194   0.0000       0.524196        14.2641 
 195   0.0000       0.525634        14.3032 
 196   0.0000       0.526978        14.3398 
 197   0.0000       0.535136        14.5618 
 198   0.0000       0.540188        14.6993 
 199   0.0000       0.547276        14.8921 
 200   0.0000       0.551841        15.0164 
 201   0.0000       0.553435        15.0597 
 202   0.0000       0.554335        15.0842 
 203   0.0000       0.558320        15.1927 
 204   0.0000       0.559905        15.2358 
 205   0.0000       0.562835        15.3155 
 206   0.0000       0.569211        15.4890 
 207   0.0000       0.573664        15.6102 
 208   0.0000       0.579229        15.7616 
 209   0.0000       0.580745        15.8029 
 210   0.0000       0.585790        15.9401 
 211   0.0000       0.587969        15.9995 
 212   0.0000       0.590204        16.0603 
 213   0.0000       0.592955        16.1351 
 214   0.0000       0.599109        16.3026 
 215   0.0000       0.602428        16.3929 
 216   0.0000       0.607387        16.5278 
 217   0.0000       0.607672        16.5356 
 218   0.0000       0.611313        16.6347 
 219   0.0000       0.618022        16.8172 
 220   0.0000       0.621054        16.8997 
 221   0.0000       0.622570        16.9410 
 222   0.0000       0.632358        17.2073 
 223   0.0000       0.636771        17.3274 
 224   0.0000       0.638524        17.3751 
 225   0.0000       0.639538        17.4027 
 226   0.0000       0.644769        17.5451 
 227   0.0000       0.650044        17.6886 
 228   0.0000       0.650713        17.7068 
 229   0.0000       0.658465        17.9178 
 230   0.0000       0.660008        17.9597 
 231   0.0000       0.667295        18.1580 
 232   0.0000       0.668655        18.1950 
 233   0.0000       0.676753        18.4154 
 234   0.0000       0.678596        18.4655 
 235   0.0000       0.684335        18.6217 
 236   0.0000       0.694011        18.8850 
 237   0.0000       0.698174        18.9983 
 238   0.0000       0.699059        19.0224 
 239   0.0000       0.703511        19.1435 
 240   0.0000       0.708094        19.2682 
 241   0.0000       0.710801        19.3419 
 242   0.0000       0.712714        19.3939 
 243   0.0000       0.717927        19.5358 
 244   0.0000       0.726400        19.7663 
 245   0.0000       0.730319        19.8730 
 246   0.0000       0.731387        19.9020 
 247   0.0000       0.736240        20.0341 
 248   0.0000       0.738575        20.0976 
 249   0.0000       0.746811        20.3218 
 250   0.0000       0.749504        20.3951 
 251   0.0000       0.753003        20.4902 
 252   0.0000       0.757950        20.6249 
 253   0.0000       0.763048        20.7636 
 254   0.0000       0.768497        20.9119 
 255   0.0000       0.770810        20.9748 
 256   0.0000       0.782811        21.3014 
 257   0.0000       0.784949        21.3595 
 258   0.0000       0.794193        21.6111 
 259   0.0000       0.798988        21.7416 
 260   0.0000       0.800664        21.7872 
 261   0.0000       0.805389        21.9158 
 262   0.0000       0.810693        22.0601 
 263   0.0000       0.817563        22.2470 
 264   0.0000       0.821460        22.3531 
 265   0.0000       0.825530        22.4638 
 266   0.0000       0.827121        22.5071 
 267   0.0000       0.838326        22.8120 
 268   0.0000       0.843776        22.9603 
 269   0.0000       0.847425        23.0596 
 270   0.0000       0.850030        23.1305 
 271   0.0000       0.858247        23.3541 
 272   0.0000       0.867961        23.6184 
 273   0.0000       0.876078        23.8393 
 274   0.0000       0.887048        24.1378 
 275   0.0000       0.892109        24.2755 
 276   0.0000       0.896411        24.3926 
 277   0.0000       0.899921        24.4881 
 278   0.0000       0.906749        24.6739 
 279   0.0000       0.910217        24.7683 
 280   0.0000       0.913957        24.8700 
 281   0.0000       0.919261        25.0144 
 282   0.0000       0.925723        25.1902 
 283   0.0000       0.928501        25.2658 
 284   0.0000       0.950307        25.8592 
 285   0.0000       0.957497        26.0548 
 286   0.0000       0.961817        26.1724 
 287   0.0000       0.964491        26.2451 
 288   0.0000       0.976618        26.5751 
 289   0.0000       0.993111        27.0239 
 290   0.0000       0.999342        27.1935 
 291   0.0000       1.003684        27.3116 
 292   0.0000       1.011803        27.5326 
 293   0.0000       1.017609        27.6906 
 294   0.0000       1.025476        27.9046 
 295   0.0000       1.035476        28.1767 
 296   0.0000       1.038797        28.2671 
 297   0.0000       1.043076        28.3835 
 298   0.0000       1.048847        28.5406 
 299   0.0000       1.057105        28.7653 
 300   0.0000       1.064673        28.9712 
 301   0.0000       1.070622        29.1331 
 302   0.0000       1.080051        29.3897 
 303   0.0000       1.085789        29.5458 
 304   0.0000       1.088325        29.6148 
 305   0.0000       1.089165        29.6377 
 306   0.0000       1.094870        29.7929 
 307   0.0000       1.099994        29.9324 
 308   0.0000       1.107121        30.1263 
 309   0.0000       1.111646        30.2494 
 310   0.0000       1.117986        30.4220 
 311   0.0000       1.124544        30.6004 
 312   0.0000       1.130543        30.7636 
 313   0.0000       1.135037        30.8859 
 314   0.0000       1.147531        31.2259 
 315   0.0000       1.152895        31.3719 
 316   0.0000       1.157746        31.5039 
 317   0.0000       1.168545        31.7977 
 318   0.0000       1.174707        31.9654 
 319   0.0000       1.178312        32.0635 
 320   0.0000       1.185439        32.2574 
 321   0.0000       1.196505        32.5585 
 322   0.0000       1.200791        32.6752 
 323   0.0000       1.202962        32.7343 
 324   0.0000       1.206640        32.8343 
 325   0.0000       1.210658        32.9437 
 326   0.0000       1.228651        33.4333 
 327   0.0000       1.234264        33.5860 
 328   0.0000       1.240246        33.7488 
 329   0.0000       1.252042        34.0698 
 330   0.0000       1.263251        34.3748 
 331   0.0000       1.270074        34.5605 
 332   0.0000       1.278358        34.7859 
 333   0.0000       1.284075        34.9414 
 334   0.0000       1.291774        35.1510 
 335   0.0000       1.297489        35.3065 
 336   0.0000       1.302443        35.4413 
 337   0.0000       1.310694        35.6658 
 338   0.0000       1.325113        36.0582 
 339   0.0000       1.327714        36.1289 
 340   0.0000       1.343211        36.5506 
 341   0.0000       1.347306        36.6621 
 342   0.0000       1.357824        36.9483 
 343   0.0000       1.362906        37.0866 
 344   0.0000       1.375343        37.4250 
 345   0.0000       1.382168        37.6107 
 346   0.0000       1.386144        37.7189 
 347   0.0000       1.400993        38.1230 
 348   0.0000       1.416030        38.5321 
 349   0.0000       1.422506        38.7083 
 350   0.0000       1.423964        38.7480 
 351   0.0000       1.440490        39.1977 
 352   0.0000       1.447119        39.3781 
 353   0.0000       1.457158        39.6513 
 354   0.0000       1.487075        40.4654 
 355   0.0000       1.489598        40.5340 
 356   0.0000       1.504070        40.9278 
 357   0.0000       1.512242        41.1502 
 358   0.0000       1.517919        41.3047 
 359   0.0000       1.536289        41.8045 
 360   0.0000       1.547600        42.1123 
 361   0.0000       1.552649        42.2497 
 362   0.0000       1.559278        42.4301 
 363   0.0000       1.579392        42.9775 
 364   0.0000       1.588863        43.2352 
 365   0.0000       1.599814        43.5331 
 366   0.0000       1.605256        43.6812 
 367   0.0000       1.620656        44.1003 
 368   0.0000       1.637699        44.5640 
 369   0.0000       1.642761        44.7018 
 370   0.0000       1.662541        45.2400 
 371   0.0000       1.684440        45.8360 
 372   0.0000       1.692300        46.0498 
 373   0.0000       1.707600        46.4662 
 374   0.0000       1.719711        46.7957 
 375   0.0000       1.726759        46.9875 
 376   0.0000       1.735265        47.2189 
 377   0.0000       1.750801        47.6417 
 378   0.0000       1.758942        47.8632 
 379   0.0000       1.774366        48.2830 
 380   0.0000       1.787804        48.6486 
 381   0.0000       1.803320        49.0708 
 382   0.0000       1.813362        49.3441 
 383   0.0000       1.819010        49.4978 
 384   0.0000       1.830516        49.8109 
 385   0.0000       1.831798        49.8458 
 386   0.0000       1.842487        50.1366 
 387   0.0000       1.849645        50.3314 
 388   0.0000       1.862343        50.6769 
 389   0.0000       1.870510        50.8992 
 390   0.0000       1.882300        51.2200 
 391   0.0000       1.891002        51.4568 
 392   0.0000       1.898432        51.6590 
 393   0.0000       1.908483        51.9325 
 394   0.0000       1.912301        52.0364 
 395   0.0000       1.926248        52.4159 
 396   0.0000       1.928333        52.4726 
 397   0.0000       1.942435        52.8564 
 398   0.0000       1.948941        53.0334 
 399   0.0000       1.959852        53.3303 
 400   0.0000       1.967897        53.5492 
 401   0.0000       1.979820        53.8736 
 402   0.0000       1.985689        54.0333 
 403   0.0000       1.996890        54.3381 
 404   0.0000       1.999889        54.4197 
 405   0.0000       2.007531        54.6277 
 406   0.0000       2.014809        54.8258 
 407   0.0000       2.018929        54.9379 
 408   0.0000       2.024896        55.1002 
 409   0.0000       2.029134        55.2156 
 410   0.0000       2.037651        55.4473 
 411   0.0000       2.041219        55.5444 
 412   0.0000       2.051461        55.8231 
 413   0.0000       2.066793        56.2403 
 414   0.0000       2.075166        56.4681 
 415   0.0000       2.076584        56.5067 
 416   0.0000       2.085743        56.7560 
 417   0.0000       2.096837        57.0578 
 418   0.0000       2.109070        57.3907 
 419   0.0000       2.113188        57.5028 
 420   0.0000       2.120032        57.6890 
 421   0.0000       2.122445        57.7547 
 422   0.0000       2.127234        57.8850 
 423   0.0000       2.133940        58.0675 
 424   0.0000       2.144500        58.3548 
 425   0.0000       2.146946        58.4214 
 426   0.0000       2.147597        58.4391 
 427   0.0000       2.167768        58.9880 
 428   0.0000       2.173912        59.1552 
 429   0.0000       2.182225        59.3813 
 430   0.0000       2.183612        59.4191 
 431   0.0000       2.203261        59.9538 
 432   0.0000       2.207264        60.0627 
 433   0.0000       2.212625        60.2086 
 434   0.0000       2.222950        60.4895 
 435   0.0000       2.226650        60.5902 
 436   0.0000       2.235468        60.8302 
 437   0.0000       2.243933        61.0605 
 438   0.0000       2.254220        61.3404 
 439   0.0000       2.259276        61.4780 
 440   0.0000       2.280088        62.0444 
 441   0.0000       2.283700        62.1426 
 442   0.0000       2.292358        62.3782 
 443   0.0000       2.295089        62.4525 
 444   0.0000       2.305723        62.7419 
 445   0.0000       2.318129        63.0795 
 446   0.0000       2.324163        63.2437 
 447   0.0000       2.337114        63.5961 
 448   0.0000       2.355237        64.0893 
 449   0.0000       2.359995        64.2187 
 450   0.0000       2.363959        64.3266 
 451   0.0000       2.386681        64.9449 
 452   0.0000       2.410191        65.5846 
 453   0.0000       2.413752        65.6815 
 454   0.0000       2.428565        66.0846 
 455   0.0000       2.445821        66.5542 
 456   0.0000       2.458934        66.9110 
 457   0.0000       2.464625        67.0658 
 458   0.0000       2.492170        67.8154 
 459   0.0000       2.512159        68.3593 
 460   0.0000       2.513475        68.3951 
 461   0.0000       2.521849        68.6230 
 462   0.0000       2.527620        68.7800 
 463   0.0000       2.545565        69.2684 
 464   0.0000       2.560871        69.6848 
 465   0.0000       2.567722        69.8713 
 466   0.0000       2.574884        70.0662 
 467   0.0000       2.597681        70.6865 
 468   0.0000       2.605104        70.8885 
 469   0.0000       2.611114        71.0520 
 470   0.0000       2.633433        71.6594 
 471   0.0000       2.640645        71.8556 
 472   0.0000       2.662072        72.4387 
 473   0.0000       2.667784        72.5941 
 474   0.0000       2.681806        72.9757 
 475   0.0000       2.685811        73.0846 
 476   0.0000       2.690079        73.2008 
 477   0.0000       2.697718        73.4086 
 478   0.0000       2.705424        73.6183 
 479   0.0000       2.709623        73.7326 
 480   0.0000       2.730717        74.3066 
 481   0.0000       2.756734        75.0145 
 482   0.0000       2.764991        75.2392 
 483   0.0000       2.770912        75.4003 
 484   0.0000       2.775080        75.5138 
 485   0.0000       2.796424        76.0946 
 486   0.0000       2.813874        76.5694 
 487   0.0000       2.816372        76.6374 
 488   0.0000       2.829677        76.9994 
 489   0.0000       2.868158        78.0466 
 490   0.0000       2.879998        78.3687 
 491   0.0000       2.887197        78.5646 
 492   0.0000       2.904411        79.0330 
 493   0.0000       2.930164        79.7338 
 494   0.0000       2.951332        80.3098 
 495   0.0000       2.963265        80.6345 
 496   0.0000       2.968785        80.7848 
 497   0.0000       2.983424        81.1831 
 498   0.0000       2.999916        81.6319 
 499   0.0000       3.015895        82.0667 
 500   0.0000       3.024738        82.3073 
 501   0.0000       3.032794        82.5265 
 502   0.0000       3.058873        83.2362 
 503   0.0000       3.078387        83.7672 
 504   0.0000       3.095328        84.2282 
 505   0.0000       3.114382        84.7466 
 506   0.0000       3.119391        84.8830 
 507   0.0000       3.132327        85.2349 
 508   0.0000       3.156368        85.8892 
 509   0.0000       3.165320        86.1327 
 510   0.0000       3.179878        86.5289 
 511   0.0000       3.193480        86.8990 
 512   0.0000       3.202150        87.1349 
 513   0.0000       3.220678        87.6391 
 514   0.0000       3.226206        87.7895 
 515   0.0000       3.248614        88.3993 
 516   0.0000       3.256100        88.6030 
 517   0.0000       3.266826        88.8949 
 518   0.0000       3.270443        88.9933 
 519   0.0000       3.290376        89.5357 
 520   0.0000       3.318433        90.2992 
 521   0.0000       3.331457        90.6535 
 522   0.0000       3.344387        91.0054 
 523   0.0000       3.350976        91.1847 
 524   0.0000       3.366335        91.6026 
 525   0.0000       3.369530        91.6896 
 526   0.0000       3.374089        91.8136 
 527   0.0000       3.383998        92.0833 
 528   0.0000       3.398028        92.4650 
 529   0.0000       3.400450        92.5310 
 530   0.0000       3.415967        92.9532 
 531   0.0000       3.431782        93.3835 
 532   0.0000       3.448316        93.8335 
 533   0.0000       3.466190        94.3198 
 534   0.0000       3.567525        97.0773 
 535   0.0000       3.636290        98.9485 
 536   0.0000       3.695007       100.5463 
 537   0.0000       3.840247       104.4984 
 538   0.0000       3.868114       105.2567 
 539   0.0000       3.916651       106.5775 

                    ********************************
                    * MULLIKEN POPULATION ANALYSIS *
                    ********************************

-----------------------
MULLIKEN ATOMIC CHARGES
-----------------------
   0 C :    1.173131
   1 N :    0.392476
   2 C :    0.347052
   3 C :    0.410021
   4 H :   -0.038019
   5 H :   -0.056882
   6 S :    1.602759
   7 C :    0.885961
   8 C :    0.734794
   9 N :    0.366437
  10 H :   -0.102546
  11 H :   -0.254580
  12 H :   -1.143563
  13 H :   -0.559246
  14 H :   -0.779949
  15 O :   -0.671600
  16 F :   -0.519934
  17 C :    0.480718
  18 H :   -0.408264
  19 H :   -0.264878
  20 C :    0.171813
  21 C :    0.431143
  22 H :   -0.019795
  23 H :   -0.659163
  24 H :   -0.163722
  25 H :   -0.003134
  26 C :    0.324365
  27 H :   -0.249811
  28 H :   -0.119651
  29 C :    0.006152
  30 H :   -0.245725
  31 H :   -0.216160
  32 C :    0.803372
  33 H :   -0.431546
  34 H :    0.073360
  35 H :    0.061467
  36 H :   -0.426081
  37 H :   -0.117661
  38 H :   -0.066245
  39 O :   -0.746864
Sum of atomic charges:    0.0000000

--------------------------------
MULLIKEN REDUCED ORBITAL CHARGES
--------------------------------
  0 C s       :     2.450925  s :     2.450925
      pz      :     0.881828  p :     2.344564
      px      :     0.908009
      py      :     0.554726
      dz2     :     0.009151  d :     0.031380
      dxz     :     0.124072
      dyz     :    -0.173724
      dx2y2   :     0.035774
      dxy     :     0.036107
  1 N s       :     2.672223  s :     2.672223
      pz      :     1.022750  p :     3.631116
      px      :     1.538162
      py      :     1.070203
      dz2     :     0.106633  d :     0.304185
      dxz     :     0.066114
      dyz     :     0.111741
      dx2y2   :     0.009536
      dxy     :     0.010161
  2 C s       :     2.647695  s :     2.647695
      pz      :     1.015472  p :     2.589142
      px      :     0.816939
      py      :     0.756730
      dz2     :     0.048885  d :     0.416111
      dxz     :     0.268416
      dyz     :     0.067103
      dx2y2   :     0.024395
      dxy     :     0.007311
  3 C s       :     2.606408  s :     2.606408
      pz      :     0.895660  p :     2.756475
      px      :     1.073625
      py      :     0.787190
      dz2     :     0.109627  d :     0.227096
      dxz     :     0.047748
      dyz     :    -0.064162
      dx2y2   :     0.046436
      dxy     :     0.087447
  4 H s       :     1.030937  s :     1.030937
      pz      :    -0.025647  p :     0.007083
      px      :     0.013638
      py      :     0.019092
  5 H s       :     1.028389  s :     1.028389
      pz      :     0.041480  p :     0.028493
      px      :    -0.017434
      py      :     0.004447
  6 S s       :     4.895310  s :     4.895310
      pz      :     2.830390  p :     8.710978
      px      :     2.731682
      py      :     3.148906
      dz2     :     0.177466  d :     0.790953
      dxz     :     0.161345
      dyz     :     0.175189
      dx2y2   :     0.183355
      dxy     :     0.093597
  7 C s       :     2.680770  s :     2.680770
      pz      :     0.519026  p :     2.083114
      px      :     0.792744
      py      :     0.771344
      dz2     :    -0.107193  d :     0.350155
      dxz     :     0.121071
      dyz     :     0.350205
      dx2y2   :     0.009358
      dxy     :    -0.023286
  8 C s       :     2.713865  s :     2.713865
      pz      :     0.942376  p :     2.438718
      px      :     1.079489
      py      :     0.416853
      dz2     :     0.005416  d :     0.112623
      dxz     :    -0.003967
      dyz     :     0.116463
      dx2y2   :    -0.020531
      dxy     :     0.015243
  9 N s       :     3.057787  s :     3.057787
      pz      :     0.976926  p :     3.600372
      px      :     1.605256
      py      :     1.018190
      dz2     :    -0.007534  d :    -0.024596
      dxz     :     0.003978
      dyz     :    -0.032278
      dx2y2   :    -0.000340
      dxy     :     0.011578
 10 H s       :     1.060209  s :     1.060209
      pz      :    -0.020327  p :     0.042337
      px      :     0.047609
      py      :     0.015055
 11 H s       :     1.225238  s :     1.225238
      pz      :    -0.042455  p :     0.029342
      px      :     0.067131
      py      :     0.004666
 12 H s       :     2.018898  s :     2.018898
      pz      :    -0.128572  p :     0.124665
      px      :     0.153582
      py      :     0.099655
 13 H s       :     1.549098  s :     1.549098
      pz      :     0.035275  p :     0.010147
      px      :    -0.017377
      py      :    -0.007751
 14 H s       :     1.737459  s :     1.737459
      pz      :     0.008066  p :     0.042490
      px      :     0.074905
      py      :    -0.040481
 15 O s       :     3.967844  s :     3.967844
      pz      :     1.703007  p :     4.684253
      px      :     1.364906
      py      :     1.616340
      dz2     :     0.002223  d :     0.019503
      dxz     :     0.005033
      dyz     :     0.003488
      dx2y2   :     0.004314
      dxy     :     0.004445
 16 F s       :     4.028921  s :     4.028921
      pz      :     1.845971  p :     5.471734
      px      :     1.661035
      py      :     1.964727
      dz2     :     0.002456  d :     0.019279
      dxz     :     0.004198
      dyz     :     0.004145
      dx2y2   :     0.004291
      dxy     :     0.004190
 17 C s       :     2.670357  s :     2.670357
      pz      :     0.715124  p :     2.492628
      px      :     0.923855
      py      :     0.853649
      dz2     :     0.122316  d :     0.356297
      dxz     :     0.025216
      dyz     :     0.054847
      dx2y2   :     0.061849
      dxy     :     0.092069
 18 H s       :     1.368927  s :     1.368927
      pz      :     0.062163  p :     0.039337
      px      :     0.000523
      py      :    -0.023349
 19 H s       :     1.270803  s :     1.270803
      pz      :     0.047661  p :    -0.005925
      px      :    -0.037672
      py      :    -0.015914
 20 C s       :     2.725759  s :     2.725759
      pz      :     0.923063  p :     2.570139
      px      :     0.939816
      py      :     0.707260
      dz2     :     0.082133  d :     0.532289
      dxz     :     0.226926
      dyz     :     0.052638
      dx2y2   :     0.032563
      dxy     :     0.138027
 21 C s       :     2.311667  s :     2.311667
      pz      :     0.790551  p :     2.647018
      px      :     0.901120
      py      :     0.955347
      dz2     :     0.063142  d :     0.610172
      dxz     :     0.182864
      dyz     :     0.147869
      dx2y2   :     0.021925
      dxy     :     0.194371
 22 H s       :     1.001027  s :     1.001027
      pz      :    -0.002784  p :     0.018768
      px      :     0.004653
      py      :     0.016899
 23 H s       :     1.492961  s :     1.492961
      pz      :     0.024299  p :     0.166202
      px      :    -0.070804
      py      :     0.212707
 24 H s       :     1.194579  s :     1.194579
      pz      :    -0.022110  p :    -0.030857
      px      :    -0.032756
      py      :     0.024009
 25 H s       :     0.966809  s :     0.966809
      pz      :     0.010589  p :     0.036325
      px      :     0.037462
      py      :    -0.011725
 26 C s       :     2.615138  s :     2.615138
      pz      :     0.906650  p :     2.596963
      px      :     0.758968
      py      :     0.931345
      dz2     :     0.174229  d :     0.463534
      dxz     :     0.017601
      dyz     :     0.027143
      dx2y2   :     0.207819
      dxy     :     0.036742
 27 H s       :     1.258132  s :     1.258132
      pz      :     0.052571  p :    -0.008321
      px      :    -0.022798
      py      :    -0.038095
 28 H s       :     1.122409  s :     1.122409
      pz      :    -0.043066  p :    -0.002758
      px      :     0.009085
      py      :     0.031224
 29 C s       :     2.806971  s :     2.806971
      pz      :     0.757237  p :     2.632561
      px      :     0.925864
      py      :     0.949461
      dz2     :     0.234482  d :     0.554316
      dxz     :    -0.000040
      dyz     :    -0.009403
      dx2y2   :     0.231371
      dxy     :     0.097906
 30 H s       :     1.250690  s :     1.250690
      pz      :    -0.038904  p :    -0.004965
      px      :     0.054780
      py      :    -0.020841
 31 H s       :     1.183487  s :     1.183487
      pz      :     0.080771  p :     0.032673
      px      :    -0.028487
      py      :    -0.019612
 32 C s       :     2.437162  s :     2.437162
      pz      :     0.919512  p :     2.528931
      px      :     0.726809
      py      :     0.882611
      dz2     :     0.025023  d :     0.230535
      dxz     :     0.054356
      dyz     :     0.122736
      dx2y2   :     0.044689
      dxy     :    -0.016269
 33 H s       :     1.408933  s :     1.408933
      pz      :     0.067938  p :     0.022612
      px      :    -0.032877
      py      :    -0.012449
 34 H s       :     0.912391  s :     0.912391
      pz      :    -0.010300  p :     0.014249
      px      :     0.063891
      py      :    -0.039343
 35 H s       :     0.932263  s :     0.932263
      pz      :     0.001030  p :     0.006270
      px      :     0.022486
      py      :    -0.017245
 36 H s       :     1.427113  s :     1.427113
      pz      :    -0.024399  p :    -0.001033
      px      :    -0.013447
      py      :     0.036813
 37 H s       :     1.150420  s :     1.150420
      pz      :    -0.003412  p :    -0.032759
      px      :    -0.047873
      py      :     0.018527
 38 H s       :     1.091952  s :     1.091952
      pz      :    -0.029812  p :    -0.025707
      px      :     0.027204
      py      :    -0.023099
 39 O s       :     3.975543  s :     3.975543
      pz      :     1.227377  p :     4.749912
      px      :     1.751620
      py      :     1.770915
      dz2     :     0.008184  d :     0.021409
      dxz     :     0.010585
      dyz     :    -0.000285
      dx2y2   :    -0.000607
      dxy     :     0.003532


                     *******************************
                     * LOEWDIN POPULATION ANALYSIS *
                     *******************************

----------------------
LOEWDIN ATOMIC CHARGES
----------------------
   0 C :    0.057658
   1 N :    0.015750
   2 C :   -0.017224
   3 C :   -0.047286
   4 H :    0.030702
   5 H :    0.026060
   6 S :    1.199222
   7 C :   -0.211921
   8 C :    0.169795
   9 N :    0.198319
  10 H :   -0.031556
  11 H :   -0.001507
  12 H :   -0.089931
  13 H :   -0.197076
  14 H :   -0.100843
  15 O :   -0.445923
  16 F :   -0.233881
  17 C :   -0.021626
  18 H :    0.016019
  19 H :    0.008337
  20 C :   -0.033699
  21 C :   -0.025706
  22 H :    0.041091
  23 H :   -0.014502
  24 H :    0.040717
  25 H :    0.034237
  26 C :   -0.029985
  27 H :    0.018712
  28 H :    0.010915
  29 C :   -0.038472
  30 H :    0.026209
  31 H :    0.010926
  32 C :   -0.029519
  33 H :    0.023733
  34 H :    0.005528
  35 H :    0.020686
  36 H :    0.023592
  37 H :    0.021141
  38 H :    0.023171
  39 O :   -0.451864

-------------------------------
LOEWDIN REDUCED ORBITAL CHARGES
-------------------------------
  0 C s       :     2.657003  s :     2.657003
      pz      :     0.800897  p :     2.585648
      px      :     0.896020
      py      :     0.888732
      dz2     :     0.158544  d :     0.699691
      dxz     :     0.193770
      dyz     :     0.120431
      dx2y2   :     0.097276
      dxy     :     0.129670
  1 N s       :     2.876698  s :     2.876698
      pz      :     1.044638  p :     3.489993
      px      :     1.325897
      py      :     1.119458
      dz2     :     0.169486  d :     0.617560
      dxz     :     0.130637
      dyz     :     0.185116
      dx2y2   :     0.057795
      dxy     :     0.074525
  2 C s       :     2.672526  s :     2.672526
      pz      :     0.911564  p :     2.683060
      px      :     0.857983
      py      :     0.913512
      dz2     :     0.147200  d :     0.661638
      dxz     :     0.179823
      dyz     :     0.131624
      dx2y2   :     0.107523
      dxy     :     0.095469
  3 C s       :     2.712045  s :     2.712045
      pz      :     0.947217  p :     2.718085
      px      :     0.948896
      py      :     0.821973
      dz2     :     0.129826  d :     0.617156
      dxz     :     0.097991
      dyz     :     0.075127
      dx2y2   :     0.138762
      dxy     :     0.175449
  4 H s       :     0.714806  s :     0.714806
      pz      :     0.085006  p :     0.254492
      px      :     0.089156
      py      :     0.080330
  5 H s       :     0.716221  s :     0.716221
      pz      :     0.126418  p :     0.257719
      px      :     0.063783
      py      :     0.067518
  6 S s       :     4.654626  s :     4.654626
      pz      :     2.783174  p :     8.362035
      px      :     2.733136
      py      :     2.845725
      dz2     :     0.405291  d :     1.784117
      dxz     :     0.416384
      dyz     :     0.293965
      dx2y2   :     0.387747
      dxy     :     0.280730
  7 C s       :     2.624919  s :     2.624919
      pz      :     0.948968  p :     2.503658
      px      :     0.731415
      py      :     0.823275
      dz2     :     0.217710  d :     1.083344
      dxz     :     0.255820
      dyz     :     0.283187
      dx2y2   :     0.160174
      dxy     :     0.166453
  8 C s       :     2.704941  s :     2.704941
      pz      :     0.915454  p :     2.777860
      px      :     0.940211
      py      :     0.922194
      dz2     :     0.088430  d :     0.347404
      dxz     :     0.062586
      dyz     :     0.137851
      dx2y2   :     0.041298
      dxy     :     0.017239
  9 N s       :     2.926111  s :     2.926111
      pz      :     1.055084  p :     3.528063
      px      :     1.389742
      py      :     1.083237
      dz2     :     0.077591  d :     0.347506
      dxz     :     0.037836
      dyz     :     0.107731
      dx2y2   :     0.063441
      dxy     :     0.060908
 10 H s       :     0.655081  s :     0.655081
      pz      :     0.153896  p :     0.376476
      px      :     0.131516
      py      :     0.091063
 11 H s       :     0.656597  s :     0.656597
      pz      :     0.105480  p :     0.344910
      px      :     0.119869
      py      :     0.119561
 12 H s       :     0.595010  s :     0.595010
      pz      :     0.122949  p :     0.494921
      px      :     0.168321
      py      :     0.203650
 13 H s       :     0.699669  s :     0.699669
      pz      :     0.107735  p :     0.497406
      px      :     0.139833
      py      :     0.249838
 14 H s       :     0.772705  s :     0.772705
      pz      :     0.083945  p :     0.328138
      px      :     0.130189
      py      :     0.114003
 15 O s       :     3.518020  s :     3.518020
      pz      :     1.625835  p :     4.618900
      px      :     1.419946
      py      :     1.573119
      dz2     :     0.050416  d :     0.309003
      dxz     :     0.051336
      dyz     :     0.045642
      dx2y2   :     0.091896
      dxy     :     0.069713
 16 F s       :     3.691654  s :     3.691654
      pz      :     1.785067  p :     5.307632
      px      :     1.682375
      py      :     1.840190
      dz2     :     0.048509  d :     0.234595
      dxz     :     0.063692
      dyz     :     0.017593
      dx2y2   :     0.051103
      dxy     :     0.053699
 17 C s       :     2.690969  s :     2.690969
      pz      :     0.895081  p :     2.683940
      px      :     0.893314
      py      :     0.895545
      dz2     :     0.155918  d :     0.646718
      dxz     :     0.074669
      dyz     :     0.083301
      dx2y2   :     0.145038
      dxy     :     0.187792
 18 H s       :     0.722945  s :     0.722945
      pz      :     0.060595  p :     0.261037
      px      :     0.080134
      py      :     0.120307
 19 H s       :     0.735300  s :     0.735300
      pz      :     0.067696  p :     0.256363
      px      :     0.070684
      py      :     0.117983
 20 C s       :     2.679725  s :     2.679725
      pz      :     0.889700  p :     2.679411
      px      :     0.889278
      py      :     0.900433
      dz2     :     0.157151  d :     0.674562
      dxz     :     0.172279
      dyz     :     0.117153
      dx2y2   :     0.095313
      dxy     :     0.132667
 21 C s       :     2.668901  s :     2.668901
      pz      :     0.861888  p :     2.672087
      px      :     0.898172
      py      :     0.912028
      dz2     :     0.162557  d :     0.684718
      dxz     :     0.161295
      dyz     :     0.128734
      dx2y2   :     0.085486
      dxy     :     0.146647
 22 H s       :     0.722321  s :     0.722321
      pz      :     0.067280  p :     0.236587
      px      :     0.076036
      py      :     0.093272
 23 H s       :     0.690517  s :     0.690517
      pz      :     0.088257  p :     0.323985
      px      :     0.096270
      py      :     0.139458
 24 H s       :     0.717797  s :     0.717797
      pz      :     0.065093  p :     0.241487
      px      :     0.063436
      py      :     0.112958
 25 H s       :     0.699426  s :     0.699426
      pz      :     0.070412  p :     0.266337
      px      :     0.088341
      py      :     0.107583
 26 C s       :     2.678835  s :     2.678835
      pz      :     0.909099  p :     2.677449
      px      :     0.894374
      py      :     0.873976
      dz2     :     0.168487  d :     0.673701
      dxz     :     0.045335
      dyz     :     0.141784
      dx2y2   :     0.191377
      dxy     :     0.126718
 27 H s       :     0.729116  s :     0.729116
      pz      :     0.124088  p :     0.252172
      px      :     0.060840
      py      :     0.067245
 28 H s       :     0.724074  s :     0.724074
      pz      :     0.080762  p :     0.265011
      px      :     0.078884
      py      :     0.105364
 29 C s       :     2.679349  s :     2.679349
      pz      :     0.894497  p :     2.676527
      px      :     0.902305
      py      :     0.879726
      dz2     :     0.174090  d :     0.682596
      dxz     :     0.045414
      dyz     :     0.126077
      dx2y2   :     0.194401
      dxy     :     0.142614
 30 H s       :     0.727930  s :     0.727930
      pz      :     0.066153  p :     0.245861
      px      :     0.119371
      py      :     0.060336
 31 H s       :     0.708234  s :     0.708234
      pz      :     0.123603  p :     0.280839
      px      :     0.081990
      py      :     0.075247
 32 C s       :     2.683718  s :     2.683718
      pz      :     0.887069  p :     2.684647
      px      :     0.902738
      py      :     0.894841
      dz2     :     0.152368  d :     0.661154
      dxz     :     0.109415
      dyz     :     0.186001
      dx2y2   :     0.123949
      dxy     :     0.089421
 33 H s       :     0.728960  s :     0.728960
      pz      :     0.118539  p :     0.247307
      px      :     0.067101
      py      :     0.061667
 34 H s       :     0.713069  s :     0.713069
      pz      :     0.084819  p :     0.281403
      px      :     0.124950
      py      :     0.071634
 35 H s       :     0.714008  s :     0.714008
      pz      :     0.077281  p :     0.265305
      px      :     0.076384
      py      :     0.111640
 36 H s       :     0.731096  s :     0.731096
      pz      :     0.065033  p :     0.245312
      px      :     0.067561
      py      :     0.112717
 37 H s       :     0.729606  s :     0.729606
      pz      :     0.071843  p :     0.249253
      px      :     0.081492
      py      :     0.095918
 38 H s       :     0.728375  s :     0.728375
      pz      :     0.063036  p :     0.248454
      px      :     0.120174
      py      :     0.065244
 39 O s       :     3.507624  s :     3.507624
      pz      :     1.371216  p :     4.648166
      px      :     1.641357
      py      :     1.635593
      dz2     :     0.089541  d :     0.296075
      dxz     :     0.073272
      dyz     :     0.079102
      dx2y2   :     0.015805
      dxy     :     0.038355


                      *****************************
                      * MAYER POPULATION ANALYSIS *
                      *****************************

  NA   - Mulliken gross atomic population
  ZA   - Total nuclear charge
  QA   - Mulliken gross atomic charge
  VA   - Mayer's total valence
  BVA  - Mayer's bonded valence
  FA   - Mayer's free valence

  ATOM       NA         ZA         QA         VA         BVA        FA
  0 C      4.8269     6.0000     1.1731     3.2778     3.2778    -0.0000
  1 N      6.6075     7.0000     0.3925     3.8366     3.8366     0.0000
  2 C      5.6529     6.0000     0.3471     4.6748     4.6748     0.0000
  3 C      5.5900     6.0000     0.4100     4.1314     4.1314     0.0000
  4 H      1.0380     1.0000    -0.0380     0.9835     0.9835     0.0000
  5 H      1.0569     1.0000    -0.0569     1.0863     1.0863     0.0000
  6 S     14.3972    16.0000     1.6028     4.5498     4.5498     0.0000
  7 C      5.1140     6.0000     0.8860     2.6038     2.6038     0.0000
  8 C      5.2652     6.0000     0.7348     2.9330     2.9330     0.0000
  9 N      6.6336     7.0000     0.3664     3.7197     3.7197     0.0000
 10 H      1.1025     1.0000    -0.1025     0.9214     0.9214     0.0000
 11 H      1.2546     1.0000    -0.2546     0.8588     0.8588     0.0000
 12 H      2.1436     1.0000    -1.1436    -0.0671    -0.0671     0.0000
 13 H      1.5592     1.0000    -0.5592     0.5634     0.5634     0.0000
 14 H      1.7799     1.0000    -0.7799     0.5555     0.5555     0.0000
 15 O      8.6716     8.0000    -0.6716     1.7384     1.7384     0.0000
 16 F      9.5199     9.0000    -0.5199     0.7043     0.7043     0.0000
 17 C      5.5193     6.0000     0.4807     4.4862     4.4862     0.0000
 18 H      1.4083     1.0000    -0.4083     0.9070     0.9070    -0.0000
 19 H      1.2649     1.0000    -0.2649     0.8259     0.8259     0.0000
 20 C      5.8282     6.0000     0.1718     4.9310     4.9310     0.0000
 21 C      5.5689     6.0000     0.4311     4.5773     4.5773     0.0000
 22 H      1.0198     1.0000    -0.0198     1.0077     1.0077     0.0000
 23 H      1.6592     1.0000    -0.6592     1.1530     1.1530     0.0000
 24 H      1.1637     1.0000    -0.1637     0.9224     0.9224     0.0000
 25 H      1.0031     1.0000    -0.0031     1.0793     1.0793     0.0000
 26 C      5.6756     6.0000     0.3244     4.6907     4.6907     0.0000
 27 H      1.2498     1.0000    -0.2498     0.9751     0.9751     0.0000
 28 H      1.1197     1.0000    -0.1197     0.9114     0.9114     0.0000
 29 C      5.9938     6.0000     0.0062     5.0876     5.0876     0.0000
 30 H      1.2457     1.0000    -0.2457     0.9634     0.9634     0.0000
 31 H      1.2162     1.0000    -0.2162     1.1500     1.1500     0.0000
 32 C      5.1966     6.0000     0.8034     3.8025     3.8025    -0.0000
 33 H      1.4315     1.0000    -0.4315     1.0303     1.0303     0.0000
 34 H      0.9266     1.0000     0.0734     1.0429     1.0429    -0.0000
 35 H      0.9385     1.0000     0.0615     1.0212     1.0212    -0.0000
 36 H      1.4261     1.0000    -0.4261     0.9703     0.9703    -0.0000
 37 H      1.1177     1.0000    -0.1177     0.9151     0.9151    -0.0000
 38 H      1.0662     1.0000    -0.0662     0.9255     0.9255     0.0000
 39 O      8.7469     8.0000    -0.7469     1.6033     1.6033     0.0000

  Mayer bond orders larger than 0.100000
B(  0-C ,  1-N ) :   0.9959 B(  0-C , 12-H ) :  -0.5429 B(  0-C , 17-C ) :   1.0852 
B(  0-C , 18-H ) :   0.5565 B(  0-C , 19-H ) :   0.8178 B(  0-C , 26-C ) :   0.1644 
B(  0-C , 27-H ) :   0.1192 B(  0-C , 28-H ) :   0.1013 B(  1-N ,  7-C ) :   1.1925 
B(  1-N ,  8-C ) :   0.1185 B(  1-N ,  9-N ) :   0.3014 B(  1-N , 12-H ) :   0.8004 
B(  1-N , 18-H ) :   0.2826 B(  2-C ,  3-C ) :   1.2227 B(  2-C ,  5-H ) :   0.3071 
B(  2-C , 20-C ) :   0.1429 B(  2-C , 21-C ) :   1.1242 B(  2-C , 22-H ) :   0.1142 
B(  2-C , 24-H ) :   0.7587 B(  2-C , 25-H ) :   0.8375 B(  3-C ,  4-H ) :   0.8835 
B(  3-C ,  5-H ) :   0.6362 B(  3-C ,  6-S ) :   0.9869 B(  3-C , 21-C ) :   0.1476 
B(  3-C , 25-H ) :   0.1081 B(  6-S , 15-O ) :   1.4249 B(  6-S , 16-F ) :   0.5134 
B(  6-S , 39-O ) :   1.3323 B(  7-C ,  8-C ) :   1.3069 B(  7-C ,  9-N ) :   0.8360 
B(  7-C , 12-H ) :  -0.8005 B(  7-C , 14-H ) :   0.1669 B(  8-C ,  9-N ) :   0.3008 
B(  8-C , 13-H ) :   0.4570 B(  8-C , 14-H ) :   0.6176 B(  9-N , 10-H ) :   0.9806 
B(  9-N , 11-H ) :   1.2039 B( 10-H , 11-H ) :  -0.1950 B( 12-H , 18-H ) :   0.1222 
B( 12-H , 39-O ) :   0.1485 B( 13-H , 14-H ) :  -0.2022 B( 13-H , 15-O ) :   0.1582 
B( 15-O , 39-O ) :   0.1026 B( 17-C , 18-H ) :   0.1164 B( 17-C , 19-H ) :   0.1256 
B( 17-C , 26-C ) :   1.1945 B( 17-C , 27-H ) :   0.8884 B( 17-C , 28-H ) :   0.6774 
B( 17-C , 31-H ) :   0.1272 B( 18-H , 19-H ) :  -0.2136 B( 20-C , 21-C ) :   1.2115 
B( 20-C , 22-H ) :   0.1206 B( 20-C , 23-H ) :   0.1289 B( 20-C , 29-C ) :   0.1510 
B( 20-C , 32-C ) :   1.1204 B( 20-C , 35-H ) :   0.8377 B( 20-C , 36-H ) :   0.8739 
B( 20-C , 37-H ) :   0.1110 B( 20-C , 38-H ) :   0.2512 B( 21-C , 22-H ) :   0.6685 
B( 21-C , 23-H ) :   0.6373 B( 21-C , 24-H ) :   0.2016 B( 21-C , 25-H ) :   0.1050 
B( 21-C , 35-H ) :   0.1091 B( 21-C , 36-H ) :   0.2025 B( 22-H , 23-H ) :   0.2199 
B( 23-H , 34-H ) :   0.1303 B( 26-C , 28-H ) :   0.2451 B( 26-C , 29-C ) :   1.2030 
B( 26-C , 30-H ) :   0.8108 B( 26-C , 31-H ) :   0.8620 B( 26-C , 33-H ) :   0.1440 
B( 26-C , 34-H ) :   0.1118 B( 27-H , 28-H ) :  -0.1268 B( 29-C , 30-H ) :   0.1618 
B( 29-C , 31-H ) :   0.1317 B( 29-C , 32-C ) :   1.1120 B( 29-C , 33-H ) :   0.9600 
B( 29-C , 34-H ) :   0.8367 B( 29-C , 37-H ) :   0.3254 B( 29-C , 38-H ) :   0.1421 
B( 32-C , 37-H ) :   0.6089 B( 32-C , 38-H ) :   0.6461 B( 37-H , 38-H ) :  -0.1288 


-------
TIMINGS
-------

Total SCF time: 0 days 0 hours 8 min 12 sec 

Total time                  ....     492.029 sec
Sum of individual times     ....     490.992 sec  ( 99.8%)

Fock matrix formation       ....     482.499 sec  ( 98.1%)
  Split-RI-J                ....      18.987 sec  (  3.9% of F)
  Chain of spheres X        ....     430.369 sec  ( 89.2% of F)
  XC integration            ....      32.420 sec  (  6.7% of F)
    Basis function eval.    ....       8.401 sec  ( 25.9% of XC)
    Density eval.           ....      11.471 sec  ( 35.4% of XC)
    XC-Functional eval.     ....       1.847 sec  (  5.7% of XC)
    XC-Potential eval.      ....       9.837 sec  ( 30.3% of XC)
Diagonalization             ....       0.709 sec  (  0.1%)
Density matrix formation    ....       0.057 sec  (  0.0%)
Population analysis         ....       0.087 sec  (  0.0%)
Initial guess               ....       1.525 sec  (  0.3%)
Orbital Transformation      ....       0.000 sec  (  0.0%)
Orbital Orthonormalization  ....       0.000 sec  (  0.0%)
DIIS solution               ....       0.388 sec  (  0.1%)
SOSCF solution              ....       0.546 sec  (  0.1%)
Grid generation             ....       5.179 sec  (  1.1%)

Maximum memory used throughout the entire SCF-calculation: 113.7 MB

-------------------------   --------------------
FINAL SINGLE POINT ENERGY     -1189.847992319841
-------------------------   --------------------


                            ***************************************
                            *     ORCA property calculations      *
                            ***************************************

                                    ---------------------
                                    Active property flags
                                    ---------------------
   (+) Dipole Moment


------------------------------------------------------------------------------
                       ORCA ELECTRIC PROPERTIES CALCULATION
------------------------------------------------------------------------------

Dipole Moment Calculation                       ... on
Quadrupole Moment Calculation                   ... off
Polarizability Calculation                      ... off
GBWName                                         ... 28Oct_SVPD_CAMB3LYP_D5_wb97.gbw
Electron density file                           ... 28Oct_SVPD_CAMB3LYP_D5_wb97.scfp
The origin for moment calculation is the CENTER OF MASS  = ( 8.524657, -1.074254 -8.852513)

-------------
DIPOLE MOMENT
-------------
                                X             Y             Z
Electronic contribution:    -20.60734       2.57193     -20.18882
Nuclear contribution   :     20.03262      -4.53368      20.24480
                        -----------------------------------------
Total Dipole Moment    :     -0.57471      -1.96175       0.05598
                        -----------------------------------------
Magnitude (a.u.)       :      2.04497
Magnitude (Debye)      :      5.19790



--------------------
Rotational spectrum 
--------------------
 
Rotational constants in cm-1:     0.014367     0.012055     0.007393 
Rotational constants in MHz :   430.711297   361.391195   221.649333 

 Dipole components along the rotational axes: 
x,y,z [a.u.] :    -0.940709     1.671646     0.708916 
x,y,z [Debye]:    -2.391092     4.248987     1.801922 

 

Timings for individual modules:

Sum of individual times         ...      493.517 sec (=   8.225 min)
GTO integral calculation        ...        1.098 sec (=   0.018 min)   0.2 %
SCF iterations                  ...      492.420 sec (=   8.207 min)  99.8 %
                             ****ORCA TERMINATED NORMALLY****
TOTAL RUN TIME: 0 days 0 hours 8 minutes 14 seconds 216 msec
