
                                        *****************
                                        * O   R   C   A *
                                        *****************

                                            #,                                       
                                            ###                                      
                                            ####                                     
                                            #####                                    
                                            ######                                   
                                           ########,                                 
                                     ,,################,,,,,                         
                               ,,#################################,,                 
                          ,,##########################################,,             
                       ,#########################################, ''#####,          
                    ,#############################################,,   '####,        
                  ,##################################################,,,,####,       
                ,###########''''           ''''###############################       
              ,#####''   ,,,,##########,,,,          '''####'''          '####       
            ,##' ,,,,###########################,,,                        '##       
           ' ,,###''''                  '''############,,,                           
         ,,##''                                '''############,,,,        ,,,,,,###''
      ,#''                                            '''#######################'''  
     '                                                          ''''####''''         
             ,#######,   #######,   ,#######,      ##                                
            ,#'     '#,  ##    ##  ,#'     '#,    #''#        ######   ,####,        
            ##       ##  ##   ,#'  ##            #'  '#       #        #'  '#        
            ##       ##  #######   ##           ,######,      #####,   #    #        
            '#,     ,#'  ##    ##  '#,     ,#' ,#      #,         ##   #,  ,#        
             '#######'   ##     ##  '#######'  #'      '#     #####' # '####'        



                  #######################################################
                  #                        -***-                        #
                  #          Department of theory and spectroscopy      #
                  #    Directorship and core code : Frank Neese         #
                  #        Max Planck Institute fuer Kohlenforschung    #
                  #                Kaiser Wilhelm Platz 1               #
                  #                 D-45470 Muelheim/Ruhr               #
                  #                      Germany                        #
                  #                                                     #
                  #                  All rights reserved                #
                  #                        -***-                        #
                  #######################################################


                         Program Version 5.0.0 -  RELEASE  -
                                (SVN: $Rev: 19529$)
                ($Date: 2021-06-28 11:36:33 +0200 (Mo, 28 Jun 2021) $)


 With contributions from (in alphabetic order):
   Daniel Aravena         : Magnetic Suceptibility
   Michael Atanasov       : Ab Initio Ligand Field Theory (pilot matlab implementation)
   Alexander A. Auer      : GIAO ZORA, VPT2 properties, NMR spectrum
   Ute Becker             : Parallelization
   Giovanni Bistoni       : ED, misc. LED, open-shell LED, HFLD
   Martin Brehm           : Molecular dynamics
   Dmytro Bykov           : SCF Hessian
   Vijay G. Chilkuri      : MRCI spin determinant printing, contributions to CSF-ICE
   Dipayan Datta          : RHF DLPNO-CCSD density
   Achintya Kumar Dutta   : EOM-CC, STEOM-CC
   Dmitry Ganyushin       : Spin-Orbit,Spin-Spin,Magnetic field MRCI
   Miquel Garcia          : C-PCM Hessian, Gaussian charge scheme
   Yang Guo               : DLPNO-NEVPT2, F12-NEVPT2, CIM, IAO-localization
   Andreas Hansen         : Spin unrestricted coupled pair/coupled cluster methods
   Benjamin Helmich-Paris : MC-RPA, TRAH-SCF, COSX integrals
   Lee Huntington         : MR-EOM, pCC
   Robert Izsak           : Overlap fitted RIJCOSX, COSX-SCS-MP3, EOM
   Marcus Kettner         : VPT2
   Christian Kollmar      : KDIIS, OOCD, Brueckner-CCSD(T), CCSD density, CASPT2, CASPT2-K
   Simone Kossmann        : Meta GGA functionals, TD-DFT gradient, OOMP2, MP2 Hessian
   Martin Krupicka        : Initial AUTO-CI
   Lucas Lang             : DCDCAS
   Marvin Lechner         : AUTO-CI (C++ implementation), FIC-MRCC
   Dagmar Lenk            : GEPOL surface, SMD
   Dimitrios Liakos       : Extrapolation schemes; Compound Job, initial MDCI parallelization
   Dimitrios Manganas     : Further ROCIS development; embedding schemes
   Dimitrios Pantazis     : SARC Basis sets
   Anastasios Papadopoulos: AUTO-CI, single reference methods and gradients
   Taras Petrenko         : DFT Hessian,TD-DFT gradient, ASA, ECA, R-Raman, ABS, FL, XAS/XES, NRVS
   Peter Pinski           : DLPNO-MP2, DLPNO-MP2 Gradient
   Christoph Reimann      : Effective Core Potentials
   Marius Retegan         : Local ZFS, SOC
   Christoph Riplinger    : Optimizer, TS searches, QM/MM, DLPNO-CCSD(T), (RO)-DLPNO pert. Triples
   Tobias Risthaus        : Range-separated hybrids, TD-DFT gradient, RPA, STAB
   Michael Roemelt        : Original ROCIS implementation
   Masaaki Saitow         : Open-shell DLPNO-CCSD energy and density
   Barbara Sandhoefer     : DKH picture change effects
   Avijit Sen             : IP-ROCIS
   Kantharuban Sivalingam : CASSCF convergence, NEVPT2, FIC-MRCI
   Bernardo de Souza      : ESD, SOC TD-DFT
   Georgi Stoychev        : AutoAux, RI-MP2 NMR
   Willem Van den Heuvel  : Paramagnetic NMR
   Boris Wezisla          : Elementary symmetry handling
   Frank Wennmohs         : Technical directorship


 We gratefully acknowledge several colleagues who have allowed us to
 interface, adapt or use parts of their codes:
   Stefan Grimme, W. Hujo, H. Kruse, P. Pracht,  : VdW corrections, initial TS optimization,
                  C. Bannwarth, S. Ehlert          DFT functionals, gCP, sTDA/sTD-DF
   Ed Valeev, F. Pavosevic, A. Kumar             : LibInt (2-el integral package), F12 methods
   Garnet Chan, S. Sharma, J. Yang, R. Olivares  : DMRG
   Ulf Ekstrom                                   : XCFun DFT Library
   Mihaly Kallay                                 : mrcc  (arbitrary order and MRCC methods)
   Jiri Pittner, Ondrej Demel                    : Mk-CCSD
   Frank Weinhold                                : gennbo (NPA and NBO analysis)
   Christopher J. Cramer and Donald G. Truhlar   : smd solvation model
   Lars Goerigk                                  : TD-DFT with DH, B97 family of functionals
   V. Asgeirsson, H. Jonsson                     : NEB implementation
   FAccTs GmbH                                   : IRC, NEB, NEB-TS, DLPNO-Multilevel, CI-OPT
                                                   MM, QMMM, 2- and 3-layer-ONIOM, Crystal-QMMM,
                                                   LR-CPCM, SF, NACMEs, symmetry and pop. for TD-DFT,
                                                   nearIR, NL-DFT gradient (VV10), updates on ESD,
                                                   ML-optimized integration grids
   S Lehtola, MJT Oliveira, MAL Marques          : LibXC Library
   Liviu Ungur et al                             : ANISO software


 Your calculation uses the libint2 library for the computation of 2-el integrals
 For citations please refer to: http://libint.valeyev.net

 Your ORCA version has been built with support for libXC version: 5.1.0
 For citations please refer to: https://tddft.org/programs/libxc/

 This ORCA versions uses:
   CBLAS   interface :  Fast vector & matrix operations
   LAPACKE interface :  Fast linear algebra routines
   SCALAPACK package :  Parallel linear algebra routines
   Shared memory     :  Shared parallel matrices
   BLAS/LAPACK       :  OpenBLAS 0.3.15  USE64BITINT DYNAMIC_ARCH NO_AFFINITY Haswell SINGLE_THREADED
        Core in use  :  Haswell
   Copyright (c) 2011-2014, The OpenBLAS Project


XCFun DFT library Copyright 2009-2010 Ulf Ekstrom and contributors.
See http://admol.org/xcfun for more information.
This is free software; see the source code for copying conditions.
There is ABSOLUTELY NO WARRANTY; not even for MERCHANTABILITY or FITNESS FOR A PARTICULAR PURPOSE.
For details see the documentation.
Scientific users of this library should cite U. Ekstrom, L. Visscher, R. Bast, A. J. Thorvaldsen and K. Ruud;
J.Chem.Theor.Comp. 2010, DOI: 10.1021/ct100117s
XCFun Version 0.99 

================================================================================

----- Orbital basis set information -----
Your calculation utilizes the basis: def2-SVPD
   F. Weigend and R. Ahlrichs, Phys. Chem. Chem. Phys. 7, 3297 (2005).
   D. Rappoport and F. Furche, J. Chem. Phys. 133 134105 (2010).

----- AuxJ basis set information -----
Your calculation utilizes the auxiliary basis: def2/J
   F. Weigend, Phys. Chem. Chem. Phys. 8, 1057 (2006).

================================================================================
                                        WARNINGS
                       Please study these warnings very carefully!
================================================================================


INFO   : the flag for use of the SHARK integral package has been found!

================================================================================
                                       INPUT FILE
================================================================================
NAME = SVPD_LC_BLYP_A_wt_dlpno_pos.com
|  1> !LC-BLYP RIJCOSX def2-SVPD def2/J TightSCF 
|  2> *xyz 1 1 
|  3> C         -0.70169        4.07250       -4.00392
|  4> N          0.68053        4.61482       -4.04800
|  5> H          0.69993        5.58489       -4.38827
|  6> H          1.27804        4.05598       -4.66824
|  7> H          1.08573        4.53358       -3.10652
|  8> C         -1.70347        5.09320       -3.47740
|  9> H         -0.99590        3.74039       -5.00065
| 10> H         -0.64358        3.20191       -3.35153
| 11> H         -1.73704        5.93384       -4.13853
| 12> H         -1.40338        5.41759       -2.50291
| 13> H         -2.67335        4.64479       -3.42108
| 14> *
| 15> %MaxCore 64000
| 16> 
| 17> %pal nprocs 4
| 18> end  
| 19> 
| 20> %scf
| 21>   MaxIter 150
| 22> end
| 23> 
| 24> 
| 25>                          ****END OF INPUT****
================================================================================

                       ****************************
                       * Single Point Calculation *
                       ****************************

---------------------------------
CARTESIAN COORDINATES (ANGSTROEM)
---------------------------------
  C     -0.701690    4.072500   -4.003920
  N      0.680530    4.614820   -4.048000
  H      0.699930    5.584890   -4.388270
  H      1.278040    4.055980   -4.668240
  H      1.085730    4.533580   -3.106520
  C     -1.703470    5.093200   -3.477400
  H     -0.995900    3.740390   -5.000650
  H     -0.643580    3.201910   -3.351530
  H     -1.737040    5.933840   -4.138530
  H     -1.403380    5.417590   -2.502910
  H     -2.673350    4.644790   -3.421080

----------------------------
CARTESIAN COORDINATES (A.U.)
----------------------------
  NO LB      ZA    FRAG     MASS         X           Y           Z
   0 C     6.0000    0    12.011   -1.326002    7.695910   -7.566312
   1 N     7.0000    0    14.007    1.286015    8.720746   -7.649611
   2 H     1.0000    0     1.008    1.322676   10.553913   -8.292629
   3 H     1.0000    0     1.008    2.415146    7.664691   -8.821695
   4 H     1.0000    0     1.008    2.051732    8.567225   -5.870472
   5 C     6.0000    0    12.011   -3.219092    9.624753   -6.571334
   6 H     1.0000    0     1.008   -1.881978    7.068313   -9.449859
   7 H     1.0000    0     1.008   -1.216190    6.050733   -6.333474
   8 H     1.0000    0     1.008   -3.282530   11.213333   -7.820688
   9 H     1.0000    0     1.008   -2.652004   10.237761   -4.729814
  10 H     1.0000    0     1.008   -5.051899    8.777381   -6.464904

--------------------------------
INTERNAL COORDINATES (ANGSTROEM)
--------------------------------
 C      0   0   0     0.000000000000     0.00000000     0.00000000
 N      1   0   0     1.485458231389     0.00000000     0.00000000
 H      2   1   0     1.028200290702   111.82805805     0.00000000
 H      2   1   3     1.026653789405   111.14618581   239.70294721
 H      2   1   3     1.028188488556   108.10044480   123.39480985
 C      1   2   3     1.524012784986   112.17172976   318.66277010
 H      1   2   3     1.091021204698   109.56930099    81.14817234
 H      1   2   3     1.089456943757   105.06294163   197.59677112
 H      6   1   2     1.069997865138   109.47156944    62.60222690
 H      6   1   2     1.070006373953   109.47127242   302.60142640
 H      6   1   2     1.070004992932   109.47125080   182.60200389

---------------------------
INTERNAL COORDINATES (A.U.)
---------------------------
 C      0   0   0     0.000000000000     0.00000000     0.00000000
 N      1   0   0     2.807109240703     0.00000000     0.00000000
 H      2   1   0     1.943016960245   111.82805805     0.00000000
 H      2   1   3     1.940094496328   111.14618581   239.70294721
 H      2   1   3     1.942994657422   108.10044480   123.39480985
 C      1   2   3     2.879966788218   112.17172976   318.66277010
 H      1   2   3     2.061731283179   109.56930099    81.14817234
 H      1   2   3     2.058775258399   105.06294163   197.59677112
 H      6   1   2     2.022002928991   109.47156944    62.60222690
 H      6   1   2     2.022019008321   109.47127242   302.60142640
 H      6   1   2     2.022016398570   109.47125080   182.60200389

---------------------
BASIS SET INFORMATION
---------------------
There are 3 groups of distinct atoms

 Group   1 Type C   : 8s4p2d contracted to 4s2p2d pattern {5111/31/11}
 Group   2 Type N   : 8s4p2d contracted to 4s2p2d pattern {5111/31/11}
 Group   3 Type H   : 4s2p contracted to 2s2p pattern {31/11}

Atom   0C    basis set group =>   1
Atom   1N    basis set group =>   2
Atom   2H    basis set group =>   3
Atom   3H    basis set group =>   3
Atom   4H    basis set group =>   3
Atom   5C    basis set group =>   1
Atom   6H    basis set group =>   3
Atom   7H    basis set group =>   3
Atom   8H    basis set group =>   3
Atom   9H    basis set group =>   3
Atom  10H    basis set group =>   3
---------------------------------
AUXILIARY/J BASIS SET INFORMATION
---------------------------------
There are 3 groups of distinct atoms

 Group   1 Type C   : 12s5p4d2f1g contracted to 6s4p3d1f1g pattern {711111/2111/211/2/1}
 Group   2 Type N   : 12s5p4d2f1g contracted to 6s4p3d1f1g pattern {711111/2111/211/2/1}
 Group   3 Type H   : 5s2p1d contracted to 3s1p1d pattern {311/2/1}

Atom   0C    basis set group =>   1
Atom   1N    basis set group =>   2
Atom   2H    basis set group =>   3
Atom   3H    basis set group =>   3
Atom   4H    basis set group =>   3
Atom   5C    basis set group =>   1
Atom   6H    basis set group =>   3
Atom   7H    basis set group =>   3
Atom   8H    basis set group =>   3
Atom   9H    basis set group =>   3
Atom  10H    basis set group =>   3


           ************************************************************
           *        Program running with 4 parallel MPI-processes     *
           *              working on a common directory               *
           ************************************************************
------------------------------------------------------------------------------
                           ORCA GTO INTEGRAL CALCULATION
                           -- RI-GTO INTEGRALS CHOSEN --
------------------------------------------------------------------------------
------------------------------------------------------------------------------
                   ___                                                        
                  /   \      - P O W E R E D   B Y -                         
                 /     \                                                     
                 |  |  |   _    _      __       _____    __    __             
                 |  |  |  | |  | |    /  \     |  _  \  |  |  /  |          
                  \  \/   | |  | |   /    \    | | | |  |  | /  /          
                 / \  \   | |__| |  /  /\  \   | |_| |  |  |/  /          
                |  |  |   |  __  | /  /__\  \  |    /   |      \           
                |  |  |   | |  | | |   __   |  |    \   |  |\   \          
                \     /   | |  | | |  |  |  |  | |\  \  |  | \   \       
                 \___/    |_|  |_| |__|  |__|  |_| \__\ |__|  \__/        
                                                                              
                      - O R C A' S   B I G   F R I E N D -                    
                                      &                                       
                       - I N T E G R A L  F E E D E R -                       
                                                                              
 v1 FN, 2020, v2 2021                                                         
------------------------------------------------------------------------------


Reading SHARK input file SVPD_LC_BLYP_A_wt_dlpno_pos.SHARKINP.tmp ... ok
----------------------
SHARK INTEGRAL PACKAGE
----------------------

Number of atoms                             ...     11
Number of basis functions                   ...    124
Number of shells                            ...     56
Maximum angular momentum                    ...      2
Integral batch strategy                     ... SHARK/LIBINT Hybrid
RI-J (if used) integral strategy            ... SPLIT-RIJ (Revised 2003 algorithm where possible)
Printlevel                                  ...      1
Contraction scheme used                     ... SEGMENTED contraction
Coulomb Range Separation                    ... NOT USED
Exchange Range Separation                   ... Long Range
   Mu parameter                             ...  0.330000
   Scaling (regular/separated)              ...  0.000000  1.000000
Finite Nucleus Model                        ... NOT USED
Auxiliary Coulomb fitting basis             ... AVAILABLE
   # of basis functions in Aux-J            ...    235
   # of shells in Aux-J                     ...     85
   Maximum angular momentum in Aux-J        ...      4
Auxiliary J/K fitting basis                 ... NOT available
Auxiliary Correlation fitting basis         ... NOT available
Auxiliary 'external' fitting basis          ... NOT available
Integral threshold                          ...     2.500000e-11
Primitive cut-off                           ...     2.500000e-12
Primitive pair pre-selection threshold      ...     2.500000e-12

Calculating pre-screening integrals         ... done (  0.0 sec) Dimension = 56
Organizing shell pair data                  ... done (  0.0 sec)
Shell pair information
Total number of shell pairs                 ...      1596
Shell pairs after pre-screening             ...      1594
Total number of primitive shell pairs       ...      4158
Primitive shell pairs kept                  ...      3740
          la=0 lb=0:    405 shell pairs
          la=1 lb=0:    615 shell pairs
          la=1 lb=1:    253 shell pairs
          la=2 lb=0:    168 shell pairs
          la=2 lb=1:    132 shell pairs
          la=2 lb=2:     21 shell pairs

Calculating one electron integrals          ... done (  0.0 sec)
Calculating RI/J V-Matrix + Cholesky decomp.... done (  0.0 sec)
Calculating Nuclear repulsion               ... done (  0.0 sec) ENN=     90.551939541291 Eh

SHARK setup successfully completed in   0.1 seconds

Maximum memory used throughout the entire GTOINT-calculation: 8.8 MB


           ************************************************************
           *        Program running with 4 parallel MPI-processes     *
           *              working on a common directory               *
           ************************************************************
-------------------------------------------------------------------------------
                                 ORCA SCF
-------------------------------------------------------------------------------

------------
SCF SETTINGS
------------
Hamiltonian:
 Density Functional     Method          .... DFT(GTOs)
 Exchange Functional    Exchange        .... WB88
 Correlation Functional Correlation     .... LYP
 Gradients option       PostSCFGGA      .... off
   Density functional embedding theory  .... OFF
 Long-range corrected/Screened/Range-Separated Hybrid DFT is turned on
   Amount of maximum screened exact exchange              ....  1.000000
   Range separation parameter mu (erf(mu*r12)/r12)        ....  0.330000
 RI-approximation to the Coulomb term is turned on
   Number of AuxJ basis functions       .... 235
   RIJ-COSX (HFX calculated with COS-X)).... on


General Settings:
 Integral files         IntName         .... SVPD_LC_BLYP_A_wt_dlpno_pos
 Hartree-Fock type      HFTyp           .... RHF
 Total Charge           Charge          ....    1
 Multiplicity           Mult            ....    1
 Number of Electrons    NEL             ....   26
 Basis Dimension        Dim             ....  124
 Nuclear Repulsion      ENuc            ....     90.5519395413 Eh

Convergence Acceleration:
 DIIS                   CNVDIIS         .... on
   Start iteration      DIISMaxIt       ....    12
   Startup error        DIISStart       ....  0.200000
   # of expansion vecs  DIISMaxEq       ....     5
   Bias factor          DIISBfac        ....   1.050
   Max. coefficient     DIISMaxC        ....  10.000
 Trust-Rad. Augm. Hess. CNVTRAH         .... auto
   Auto Start mean grad. ratio tolernc. ....  1.125000
   Auto Start start iteration           ....    20
   Auto Start num. interpolation iter.  ....    10
   Max. Number of Micro iterations      ....    16
   Max. Number of Macro iterations      .... Maxiter - #DIIS iter
   Number of Davidson start vectors     ....     2
   Converg. threshold I  (grad. norm)   ....   1.000e-05
   Converg. threshold II (energy diff.) ....   1.000e-08
   Grad. Scal. Fac. for Micro threshold ....   0.100
   Minimum threshold for Micro iter.    ....   0.010
   NR start threshold (gradient norm)   ....   0.001
   Initial trust radius                 ....   0.400
   Minimum AH scaling param. (alpha)    ....   1.000
   Maximum AH scaling param. (alpha)    .... 1000.000
   Orbital update algorithm             .... Taylor
   White noise on init. David. guess    .... on
   Maximum white noise                  ....   0.010
   Quad. conv. algorithm                .... NR
 SOSCF                  CNVSOSCF        .... on
   Start iteration      SOSCFMaxIt      ....   150
   Startup grad/error   SOSCFStart      ....  0.003300
 Level Shifting         CNVShift        .... on
   Level shift para.    LevelShift      ....    0.2500
   Turn off err/grad.   ShiftErr        ....    0.0010
 Zerner damping         CNVZerner       .... off
 Static damping         CNVDamp         .... on
   Fraction old density DampFac         ....    0.7000
   Max. Damping (<1)    DampMax         ....    0.9800
   Min. Damping (>=0)   DampMin         ....    0.0000
   Turn off err/grad.   DampErr         ....    0.1000
 Fernandez-Rico         CNVRico         .... off

SCF Procedure:
 Maximum # iterations   MaxIter         ....   150
 SCF integral mode      SCFMode         .... Direct
   Integral package                     .... SHARK and LIBINT hybrid scheme
 Reset frequency        DirectResetFreq ....    20
 Integral Threshold     Thresh          ....  2.500e-11 Eh
 Primitive CutOff       TCut            ....  2.500e-12 Eh

Convergence Tolerance:
 Convergence Check Mode ConvCheckMode   .... Total+1el-Energy
 Convergence forced     ConvForced      .... 0
 Energy Change          TolE            ....  1.000e-08 Eh
 1-El. energy change                    ....  1.000e-05 Eh
 Orbital Gradient       TolG            ....  1.000e-05
 Orbital Rotation angle TolX            ....  1.000e-05
 DIIS Error             TolErr          ....  5.000e-07


Diagonalization of the overlap matrix:
Smallest eigenvalue                        ... 1.281e-04
Time for diagonalization                   ...    0.004 sec
Threshold for overlap eigenvalues          ... 1.000e-08
Number of eigenvalues below threshold      ... 0
Time for construction of square roots      ...    0.003 sec
Total time needed                          ...    0.008 sec

Time for model grid setup =    0.047 sec

------------------------------
INITIAL GUESS: MODEL POTENTIAL
------------------------------
Loading Hartree-Fock densities                     ... done
Calculating cut-offs                               ... done
Initializing the effective Hamiltonian             ... done
Setting up the integral package (SHARK)            ... done
Starting the Coulomb interaction                   ... done (   0.0 sec)
Reading the grid                                   ... done
Mapping shells                                     ... done
Starting the XC term evaluation                    ... done (   0.0 sec)
  promolecular density results
     # of electrons  =     26.996524977
     EX              =    -19.173296674
     EC              =     -0.866666680
     EX+EC           =    -20.039963355
Transforming the Hamiltonian                       ... done (   0.0 sec)
Diagonalizing the Hamiltonian                      ... done (   0.0 sec)
Back transforming the eigenvectors                 ... done (   0.0 sec)
Now organizing SCF variables                       ... done
                      ------------------
                      INITIAL GUESS DONE (   0.1 sec)
                      ------------------
-------------------
DFT GRID GENERATION
-------------------

General Integration Accuracy     IntAcc      ... 4.388
Radial Grid Type                 RadialGrid  ... OptM3 with GC (2021)
Angular Grid (max. ang.)         AngularGrid ... 4 (Lebedev-302)
Angular grid pruning method      GridPruning ... 4 (adaptive)
Weight generation scheme         WeightScheme... Becke
Basis function cutoff            BFCut       ... 1.0000e-11
Integration weight cutoff        WCut        ... 1.0000e-14
Angular grids for H and He will be reduced by one unit
Partially contracted basis set               ... off
Rotationally invariant grid construction     ... off

Total number of grid points                  ...    45604
Total number of batches                      ...      719
Average number of points per batch           ...       63
Average number of grid points per atom       ...     4146
Time for grid setup =    0.253 sec

--------------------
COSX GRID GENERATION
--------------------

GRIDX 1
-------
General Integration Accuracy     IntAcc      ... 3.816
Radial Grid Type                 RadialGrid  ... OptM3 with GC (2021)
Angular Grid (max. ang.)         AngularGrid ... 1 (Lebedev-50)
Angular grid pruning method      GridPruning ... 4 (adaptive)
Weight generation scheme         WeightScheme... Becke
Basis function cutoff            BFCut       ... 1.0000e-11
Integration weight cutoff        WCut        ... 1.0000e-14
Angular grids for H and He will be reduced by one unit
Partially contracted basis set               ... on
Rotationally invariant grid construction     ... off

Total number of grid points                  ...     5698
Total number of batches                      ...       97
Average number of points per batch           ...       58
Average number of grid points per atom       ...      518
UseSFitting                                  ... on

GRIDX 2
-------
General Integration Accuracy     IntAcc      ... 4.020
Radial Grid Type                 RadialGrid  ... OptM3 with GC (2021)
Angular Grid (max. ang.)         AngularGrid ... 2 (Lebedev-110)
Angular grid pruning method      GridPruning ... 4 (adaptive)
Weight generation scheme         WeightScheme... Becke
Basis function cutoff            BFCut       ... 1.0000e-11
Integration weight cutoff        WCut        ... 1.0000e-14
Angular grids for H and He will be reduced by one unit
Partially contracted basis set               ... on
Rotationally invariant grid construction     ... off

Total number of grid points                  ...    12378
Total number of batches                      ...      199
Average number of points per batch           ...       62
Average number of grid points per atom       ...     1125
UseSFitting                                  ... on

GRIDX 3
-------
General Integration Accuracy     IntAcc      ... 4.338
Radial Grid Type                 RadialGrid  ... OptM3 with GC (2021)
Angular Grid (max. ang.)         AngularGrid ... 3 (Lebedev-194)
Angular grid pruning method      GridPruning ... 4 (adaptive)
Weight generation scheme         WeightScheme... Becke
Basis function cutoff            BFCut       ... 1.0000e-11
Integration weight cutoff        WCut        ... 1.0000e-14
Angular grids for H and He will be reduced by one unit
Partially contracted basis set               ... on
Rotationally invariant grid construction     ... off

Total number of grid points                  ...    28728
Total number of batches                      ...      454
Average number of points per batch           ...       63
Average number of grid points per atom       ...     2612
UseSFitting                                  ... on

Time for X-Grid setup             =    0.216 sec

--------------
SCF ITERATIONS
--------------
ITER       Energy         Delta-E        Max-DP      RMS-DP      [F,P]     Damp
               ***  Starting incremental Fock matrix formation  ***
  0   -134.9671461776   0.000000000000 0.07648769  0.00198511  0.1511449 0.7000
  1   -134.9975547049  -0.030408527314 0.04939178  0.00141299  0.0880194 0.7000
                               ***Turning on DIIS***
  2   -135.0137294716  -0.016174766678 0.08619176  0.00297443  0.0426260 0.0000
  3   -135.0407889003  -0.027059428780 0.05586694  0.00120300  0.0382731 0.0000
                      *** Initiating the SOSCF procedure ***
                           *** Shutting down DIIS ***
                      *** Re-Reading the Fockian *** 
                      *** Removing any level shift *** 
ITER      Energy       Delta-E        Grad      Rot      Max-DP    RMS-DP
  4   -135.04445036  -0.0036614622  0.000993  0.000993  0.003942  0.000187
               *** Restarting incremental Fock matrix formation ***
  5   -135.04449686  -0.0000465020  0.000464  0.000555  0.002566  0.000079
  6   -135.04450178  -0.0000049105  0.000354  0.000220  0.001227  0.000033
  7   -135.04450415  -0.0000023774  0.000032  0.000030  0.000155  0.000007
  8   -135.04450417  -0.0000000170  0.000008  0.000010  0.000086  0.000002
                  ***Gradient check signals convergence***
              ***Rediagonalizing the Fockian in SOSCF/NRSCF***

               *****************************************************
               *                     SUCCESS                       *
               *           SCF CONVERGED AFTER   9 CYCLES          *
               *****************************************************


----------------
TOTAL SCF ENERGY
----------------

Total Energy       :         -135.04450417 Eh           -3674.74778 eV

Components:
Nuclear Repulsion  :           90.55193954 Eh            2464.04354 eV
Electronic Energy  :         -225.59644371 Eh           -6138.79132 eV
One Electron Energy:         -353.69136411 Eh           -9624.43131 eV
Two Electron Energy:          128.09492039 Eh            3485.63999 eV
Max COSX asymmetry :            0.00000314 Eh               0.00009 eV

Virial components:
Potential Energy   :         -268.71961942 Eh           -7312.23259 eV
Kinetic Energy     :          133.67511524 Eh            3637.48481 eV
Virial Ratio       :            2.01024416


DFT components:
N(Alpha)           :       12.999981695791 electrons
N(Beta)            :       12.999981695791 electrons
N(Total)           :       25.999963391581 electrons
E(XC)              :      -15.656122031575 Eh       
DFET-embed. en.    :        0.000000000000 Eh       

---------------
SCF CONVERGENCE
---------------

  Last Energy change         ...   -3.4549e-09  Tolerance :   1.0000e-08
  Last MAX-Density change    ...    2.4431e-05  Tolerance :   1.0000e-07
  Last RMS-Density change    ...    6.9621e-07  Tolerance :   5.0000e-09
  Last Orbital Gradient      ...    2.1390e-06  Tolerance :   1.0000e-05
  Last Orbital Rotation      ...    4.1719e-06  Tolerance :   1.0000e-05

             **** THE GBW FILE WAS UPDATED (SVPD_LC_BLYP_A_wt_dlpno_pos.gbw) ****
             **** DENSITY SVPD_LC_BLYP_A_wt_dlpno_pos.scfp WAS UPDATED ****
             **** ENERGY FILE WAS UPDATED (SVPD_LC_BLYP_A_wt_dlpno_pos.en.tmp) ****
             **** THE GBW FILE WAS UPDATED (SVPD_LC_BLYP_A_wt_dlpno_pos.gbw) ****
             **** DENSITY SVPD_LC_BLYP_A_wt_dlpno_pos.scfp WAS UPDATED ****
----------------
ORBITAL ENERGIES
----------------

  NO   OCC          E(Eh)            E(eV) 
   0   2.0000     -14.522681      -395.1822 
   1   2.0000     -10.339114      -281.3416 
   2   2.0000     -10.260912      -279.2136 
   3   2.0000      -1.311112       -35.6772 
   4   2.0000      -1.069349       -29.0985 
   5   2.0000      -0.950124       -25.8542 
   6   2.0000      -0.910768       -24.7833 
   7   2.0000      -0.891322       -24.2541 
   8   2.0000      -0.800757       -21.7897 
   9   2.0000      -0.747008       -20.3271 
  10   2.0000      -0.684802       -18.6344 
  11   2.0000      -0.668376       -18.1874 
  12   2.0000      -0.649214       -17.6660 
  13   0.0000      -0.133049        -3.6205 
  14   0.0000      -0.072158        -1.9635 
  15   0.0000      -0.070520        -1.9189 
  16   0.0000      -0.063938        -1.7398 
  17   0.0000      -0.032195        -0.8761 
  18   0.0000      -0.021225        -0.5776 
  19   0.0000      -0.005335        -0.1452 
  20   0.0000       0.007700         0.2095 
  21   0.0000       0.022866         0.6222 
  22   0.0000       0.034932         0.9505 
  23   0.0000       0.044208         1.2030 
  24   0.0000       0.053441         1.4542 
  25   0.0000       0.064484         1.7547 
  26   0.0000       0.083578         2.2743 
  27   0.0000       0.090812         2.4711 
  28   0.0000       0.096104         2.6151 
  29   0.0000       0.125799         3.4232 
  30   0.0000       0.145620         3.9625 
  31   0.0000       0.175803         4.7839 
  32   0.0000       0.187898         5.1130 
  33   0.0000       0.195767         5.3271 
  34   0.0000       0.203736         5.5439 
  35   0.0000       0.209999         5.7144 
  36   0.0000       0.216340         5.8869 
  37   0.0000       0.231044         6.2870 
  38   0.0000       0.237958         6.4752 
  39   0.0000       0.255709         6.9582 
  40   0.0000       0.260782         7.0962 
  41   0.0000       0.273059         7.4303 
  42   0.0000       0.279980         7.6186 
  43   0.0000       0.287511         7.8236 
  44   0.0000       0.296336         8.0637 
  45   0.0000       0.305034         8.3004 
  46   0.0000       0.312393         8.5006 
  47   0.0000       0.327744         8.9184 
  48   0.0000       0.344612         9.3774 
  49   0.0000       0.355882         9.6840 
  50   0.0000       0.365657         9.9500 
  51   0.0000       0.373461        10.1624 
  52   0.0000       0.378737        10.3060 
  53   0.0000       0.392429        10.6785 
  54   0.0000       0.404988        11.0203 
  55   0.0000       0.411019        11.1844 
  56   0.0000       0.431242        11.7347 
  57   0.0000       0.438638        11.9359 
  58   0.0000       0.457252        12.4425 
  59   0.0000       0.461374        12.5546 
  60   0.0000       0.479166        13.0388 
  61   0.0000       0.492202        13.3935 
  62   0.0000       0.499820        13.6008 
  63   0.0000       0.575777        15.6677 
  64   0.0000       0.625330        17.0161 
  65   0.0000       0.748564        20.3695 
  66   0.0000       0.786792        21.4097 
  67   0.0000       0.808202        21.9923 
  68   0.0000       0.820770        22.3343 
  69   0.0000       0.841229        22.8910 
  70   0.0000       0.849405        23.1135 
  71   0.0000       0.895735        24.3742 
  72   0.0000       0.902525        24.5589 
  73   0.0000       0.919886        25.0314 
  74   0.0000       0.954654        25.9774 
  75   0.0000       0.967049        26.3147 
  76   0.0000       1.023109        27.8402 
  77   0.0000       1.040103        28.3026 
  78   0.0000       1.111231        30.2381 
  79   0.0000       1.171632        31.8817 
  80   0.0000       1.204745        32.7828 
  81   0.0000       1.215633        33.0791 
  82   0.0000       1.364806        37.1383 
  83   0.0000       1.393590        37.9215 
  84   0.0000       1.433501        39.0075 
  85   0.0000       1.474264        40.1168 
  86   0.0000       1.501472        40.8571 
  87   0.0000       1.540721        41.9252 
  88   0.0000       1.554479        42.2995 
  89   0.0000       1.610136        43.8140 
  90   0.0000       1.628902        44.3247 
  91   0.0000       1.700393        46.2701 
  92   0.0000       1.751391        47.6578 
  93   0.0000       1.760835        47.9148 
  94   0.0000       1.795331        48.8534 
  95   0.0000       1.829296        49.7777 
  96   0.0000       1.851546        50.3831 
  97   0.0000       1.888570        51.3906 
  98   0.0000       1.913376        52.0656 
  99   0.0000       1.951595        53.1056 
 100   0.0000       1.965258        53.4774 
 101   0.0000       1.991116        54.1810 
 102   0.0000       2.067625        56.2629 
 103   0.0000       2.074560        56.4516 
 104   0.0000       2.101126        57.1746 
 105   0.0000       2.155832        58.6632 
 106   0.0000       2.207635        60.0728 
 107   0.0000       2.297628        62.5216 
 108   0.0000       2.373712        64.5920 
 109   0.0000       2.397960        65.2518 
 110   0.0000       2.436785        66.3083 
 111   0.0000       2.483547        67.5807 
 112   0.0000       2.556947        69.5781 
 113   0.0000       2.578420        70.1624 
 114   0.0000       2.706817        73.6562 
 115   0.0000       2.755201        74.9728 
 116   0.0000       2.770963        75.4017 
 117   0.0000       2.927396        79.6585 
 118   0.0000       2.960841        80.5686 
 119   0.0000       3.026355        82.3513 
 120   0.0000       3.075043        83.6762 
 121   0.0000       3.142300        85.5063 
 122   0.0000       3.320818        90.3641 
 123   0.0000       3.346446        91.0614 

                    ********************************
                    * MULLIKEN POPULATION ANALYSIS *
                    ********************************

-----------------------
MULLIKEN ATOMIC CHARGES
-----------------------
   0 C :    0.304549
   1 N :   -0.705319
   2 H :    0.378980
   3 H :    0.336610
   4 H :    0.400313
   5 C :    0.864027
   6 H :   -0.150538
   7 H :   -0.155090
   8 H :   -0.104550
   9 H :   -0.072841
  10 H :   -0.096141
Sum of atomic charges:    1.0000000

--------------------------------
MULLIKEN REDUCED ORBITAL CHARGES
--------------------------------
  0 C s       :     2.673990  s :     2.673990
      pz      :     0.918901  p :     2.627864
      px      :     0.760091
      py      :     0.948873
      dz2     :     0.053203  d :     0.393596
      dxz     :     0.071689
      dyz     :     0.067650
      dx2y2   :     0.181681
      dxy     :     0.019373
  1 N s       :     4.056092  s :     4.056092
      pz      :     1.156533  p :     3.554550
      px      :     1.222726
      py      :     1.175292
      dz2     :    -0.009614  d :     0.094676
      dxz     :     0.033290
      dyz     :     0.013149
      dx2y2   :     0.012544
      dxy     :     0.045307
  2 H s       :     0.630811  s :     0.630811
      pz      :    -0.003621  p :    -0.009790
      px      :    -0.012970
      py      :     0.006801
  3 H s       :     0.657702  s :     0.657702
      pz      :     0.001916  p :     0.005687
      px      :     0.014179
      py      :    -0.010408
  4 H s       :     0.602305  s :     0.602305
      pz      :    -0.000981  p :    -0.002618
      px      :     0.009135
      py      :    -0.010773
  5 C s       :     2.377264  s :     2.377264
      pz      :     0.904576  p :     2.684311
      px      :     0.868831
      py      :     0.910904
      dz2     :     0.007963  d :     0.074398
      dxz     :     0.001427
      dyz     :     0.023870
      dx2y2   :     0.034132
      dxy     :     0.007006
  6 H s       :     1.162061  s :     1.162061
      pz      :     0.032306  p :    -0.011523
      px      :    -0.019139
      py      :    -0.024690
  7 H s       :     1.155718  s :     1.155718
      pz      :    -0.015508  p :    -0.000628
      px      :     0.002490
      py      :     0.012391
  8 H s       :     1.064665  s :     1.064665
      pz      :     0.024364  p :     0.039885
      px      :     0.000696
      py      :     0.014824
  9 H s       :     1.046336  s :     1.046336
      pz      :     0.044096  p :     0.026505
      px      :     0.003666
      py      :    -0.021257
 10 H s       :     1.069002  s :     1.069002
      pz      :    -0.022715  p :     0.027139
      px      :     0.032391
      py      :     0.017463


                     *******************************
                     * LOEWDIN POPULATION ANALYSIS *
                     *******************************

----------------------
LOEWDIN ATOMIC CHARGES
----------------------
   0 C :    0.031288
   1 N :    0.329613
   2 H :    0.110387
   3 H :    0.109960
   4 H :    0.112393
   5 C :    0.161404
   6 H :    0.058590
   7 H :    0.057140
   8 H :    0.004589
   9 H :    0.004890
  10 H :    0.019745

-------------------------------
LOEWDIN REDUCED ORBITAL CHARGES
-------------------------------
  0 C s       :     2.676112  s :     2.676112
      pz      :     0.960402  p :     2.633484
      px      :     0.754245
      py      :     0.918837
      dz2     :     0.100287  d :     0.659116
      dxz     :     0.115644
      dyz     :     0.112536
      dx2y2   :     0.189462
      dxy     :     0.141187
  1 N s       :     2.892060  s :     2.892060
      pz      :     1.125172  p :     3.395804
      px      :     1.143421
      py      :     1.127210
      dz2     :     0.040270  d :     0.382523
      dxz     :     0.112665
      dyz     :     0.037444
      dx2y2   :     0.095398
      dxy     :     0.096747
  2 H s       :     0.604136  s :     0.604136
      pz      :     0.073753  p :     0.285476
      px      :     0.070967
      py      :     0.140756
  3 H s       :     0.606603  s :     0.606603
      pz      :     0.097078  p :     0.283437
      px      :     0.096206
      py      :     0.090154
  4 H s       :     0.602769  s :     0.602769
      pz      :     0.136139  p :     0.284838
      px      :     0.081082
      py      :     0.067618
  5 C s       :     2.701782  s :     2.701782
      pz      :     0.946595  p :     2.782103
      px      :     0.915792
      py      :     0.919716
      dz2     :     0.068548  d :     0.354710
      dxz     :     0.041522
      dyz     :     0.091525
      dx2y2   :     0.077547
      dxy     :     0.075567
  6 H s       :     0.714273  s :     0.714273
      pz      :     0.113954  p :     0.227137
      px      :     0.050016
      py      :     0.063167
  7 H s       :     0.712201  s :     0.712201
      pz      :     0.088810  p :     0.230659
      px      :     0.048196
      py      :     0.093653
  8 H s       :     0.726077  s :     0.726077
      pz      :     0.096101  p :     0.269333
      px      :     0.070421
      py      :     0.102811
  9 H s       :     0.727050  s :     0.727050
      pz      :     0.119896  p :     0.268060
      px      :     0.075327
      py      :     0.072836
 10 H s       :     0.714878  s :     0.714878
      pz      :     0.072108  p :     0.265377
      px      :     0.114434
      py      :     0.078834


                      *****************************
                      * MAYER POPULATION ANALYSIS *
                      *****************************

  NA   - Mulliken gross atomic population
  ZA   - Total nuclear charge
  QA   - Mulliken gross atomic charge
  VA   - Mayer's total valence
  BVA  - Mayer's bonded valence
  FA   - Mayer's free valence

  ATOM       NA         ZA         QA         VA         BVA        FA
  0 C      5.6955     6.0000     0.3045     4.5718     4.5718    -0.0000
  1 N      7.7053     7.0000    -0.7053     3.3424     3.3424     0.0000
  2 H      0.6210     1.0000     0.3790     0.6502     0.6502     0.0000
  3 H      0.6634     1.0000     0.3366     0.7519     0.7519     0.0000
  4 H      0.5997     1.0000     0.4003     0.6591     0.6591     0.0000
  5 C      5.1360     6.0000     0.8640     3.7493     3.7493    -0.0000
  6 H      1.1505     1.0000    -0.1505     0.9545     0.9545    -0.0000
  7 H      1.1551     1.0000    -0.1551     0.9921     0.9921     0.0000
  8 H      1.1045     1.0000    -0.1045     1.0403     1.0403    -0.0000
  9 H      1.0728     1.0000    -0.0728     1.0300     1.0300     0.0000
 10 H      1.0961     1.0000    -0.0961     1.0485     1.0485    -0.0000

  Mayer bond orders larger than 0.100000
B(  0-C ,  1-N ) :   0.8470 B(  0-C ,  5-C ) :   1.3176 B(  0-C ,  6-H ) :   0.9030 
B(  0-C ,  7-H ) :   0.8723 B(  0-C ,  8-H ) :   0.1909 B(  0-C ,  9-H ) :   0.1755 
B(  0-C , 10-H ) :   0.2201 B(  1-N ,  2-H ) :   0.7369 B(  1-N ,  3-H ) :   0.7945 
B(  1-N ,  4-H ) :   0.7221 B(  1-N ,  7-H ) :   0.1375 B(  5-C ,  8-H ) :   0.7826 
B(  5-C ,  9-H ) :   0.7772 B(  5-C , 10-H ) :   0.7658 

-------
TIMINGS
-------

Total SCF time: 0 days 0 hours 0 min 8 sec 

Total time                  ....       8.031 sec
Sum of individual times     ....       7.350 sec  ( 91.5%)

Fock matrix formation       ....       6.712 sec  ( 83.6%)
  Split-RI-J                ....       0.297 sec  (  4.4% of F)
  Chain of spheres X        ....       4.961 sec  ( 73.9% of F)
  XC integration            ....       1.435 sec  ( 21.4% of F)
    Basis function eval.    ....       0.477 sec  ( 33.2% of XC)
    Density eval.           ....       0.287 sec  ( 20.0% of XC)
    XC-Functional eval.     ....       0.197 sec  ( 13.7% of XC)
    XC-Potential eval.      ....       0.405 sec  ( 28.2% of XC)
Diagonalization             ....       0.020 sec  (  0.2%)
Density matrix formation    ....       0.002 sec  (  0.0%)
Population analysis         ....       0.009 sec  (  0.1%)
Initial guess               ....       0.063 sec  (  0.8%)
Orbital Transformation      ....       0.000 sec  (  0.0%)
Orbital Orthonormalization  ....       0.000 sec  (  0.0%)
DIIS solution               ....       0.013 sec  (  0.2%)
SOSCF solution              ....       0.015 sec  (  0.2%)
Grid generation             ....       0.517 sec  (  6.4%)

Maximum memory used throughout the entire SCF-calculation: 15.8 MB

-------------------------   --------------------
FINAL SINGLE POINT ENERGY      -135.044504172821
-------------------------   --------------------


                            ***************************************
                            *     ORCA property calculations      *
                            ***************************************

                                    ---------------------
                                    Active property flags
                                    ---------------------
   (+) Dipole Moment


------------------------------------------------------------------------------
                       ORCA ELECTRIC PROPERTIES CALCULATION
------------------------------------------------------------------------------

Dipole Moment Calculation                       ... on
Quadrupole Moment Calculation                   ... off
Polarizability Calculation                      ... off
GBWName                                         ... SVPD_LC_BLYP_A_wt_dlpno_pos.gbw
Electron density file                           ... SVPD_LC_BLYP_A_wt_dlpno_pos.scfp
The origin for moment calculation is the CENTER OF MASS  = (-0.974970,  8.697294 -7.272279)

-------------
DIPOLE MOMENT
-------------
                                X             Y             Z
Electronic contribution:      1.77373      -0.33201      -0.45696
Nuclear contribution   :     -0.23930       0.27560       0.19485
                        -----------------------------------------
Total Dipole Moment    :      1.53443      -0.05640      -0.26211
                        -----------------------------------------
Magnitude (a.u.)       :      1.55767
Magnitude (Debye)      :      3.95929



--------------------
Rotational spectrum 
--------------------
 
Rotational constants in cm-1:     1.018556     0.279088     0.248454 
Rotational constants in MHz : 30535.536069  8366.847891  7448.451392 

 Dipole components along the rotational axes: 
x,y,z [a.u.] :    -1.537447     0.249755     0.014973 
x,y,z [Debye]:    -3.907879     0.634826     0.038058 

 

Timings for individual modules:

Sum of individual times         ...       11.796 sec (=   0.197 min)
GTO integral calculation        ...        2.011 sec (=   0.034 min)  17.1 %
SCF iterations                  ...        9.785 sec (=   0.163 min)  82.9 %
                             ****ORCA TERMINATED NORMALLY****
TOTAL RUN TIME: 0 days 0 hours 0 minutes 12 seconds 286 msec
