
                                        *****************
                                        * O   R   C   A *
                                        *****************

                                            #,                                       
                                            ###                                      
                                            ####                                     
                                            #####                                    
                                            ######                                   
                                           ########,                                 
                                     ,,################,,,,,                         
                               ,,#################################,,                 
                          ,,##########################################,,             
                       ,#########################################, ''#####,          
                    ,#############################################,,   '####,        
                  ,##################################################,,,,####,       
                ,###########''''           ''''###############################       
              ,#####''   ,,,,##########,,,,          '''####'''          '####       
            ,##' ,,,,###########################,,,                        '##       
           ' ,,###''''                  '''############,,,                           
         ,,##''                                '''############,,,,        ,,,,,,###''
      ,#''                                            '''#######################'''  
     '                                                          ''''####''''         
             ,#######,   #######,   ,#######,      ##                                
            ,#'     '#,  ##    ##  ,#'     '#,    #''#        ######   ,####,        
            ##       ##  ##   ,#'  ##            #'  '#       #        #'  '#        
            ##       ##  #######   ##           ,######,      #####,   #    #        
            '#,     ,#'  ##    ##  '#,     ,#' ,#      #,         ##   #,  ,#        
             '#######'   ##     ##  '#######'  #'      '#     #####' # '####'        



                  #######################################################
                  #                        -***-                        #
                  #          Department of theory and spectroscopy      #
                  #    Directorship and core code : Frank Neese         #
                  #        Max Planck Institute fuer Kohlenforschung    #
                  #                Kaiser Wilhelm Platz 1               #
                  #                 D-45470 Muelheim/Ruhr               #
                  #                      Germany                        #
                  #                                                     #
                  #                  All rights reserved                #
                  #                        -***-                        #
                  #######################################################


                         Program Version 5.0.0 -  RELEASE  -
                                (SVN: $Rev: 19529$)
                ($Date: 2021-06-28 11:36:33 +0200 (Mo, 28 Jun 2021) $)


 With contributions from (in alphabetic order):
   Daniel Aravena         : Magnetic Suceptibility
   Michael Atanasov       : Ab Initio Ligand Field Theory (pilot matlab implementation)
   Alexander A. Auer      : GIAO ZORA, VPT2 properties, NMR spectrum
   Ute Becker             : Parallelization
   Giovanni Bistoni       : ED, misc. LED, open-shell LED, HFLD
   Martin Brehm           : Molecular dynamics
   Dmytro Bykov           : SCF Hessian
   Vijay G. Chilkuri      : MRCI spin determinant printing, contributions to CSF-ICE
   Dipayan Datta          : RHF DLPNO-CCSD density
   Achintya Kumar Dutta   : EOM-CC, STEOM-CC
   Dmitry Ganyushin       : Spin-Orbit,Spin-Spin,Magnetic field MRCI
   Miquel Garcia          : C-PCM Hessian, Gaussian charge scheme
   Yang Guo               : DLPNO-NEVPT2, F12-NEVPT2, CIM, IAO-localization
   Andreas Hansen         : Spin unrestricted coupled pair/coupled cluster methods
   Benjamin Helmich-Paris : MC-RPA, TRAH-SCF, COSX integrals
   Lee Huntington         : MR-EOM, pCC
   Robert Izsak           : Overlap fitted RIJCOSX, COSX-SCS-MP3, EOM
   Marcus Kettner         : VPT2
   Christian Kollmar      : KDIIS, OOCD, Brueckner-CCSD(T), CCSD density, CASPT2, CASPT2-K
   Simone Kossmann        : Meta GGA functionals, TD-DFT gradient, OOMP2, MP2 Hessian
   Martin Krupicka        : Initial AUTO-CI
   Lucas Lang             : DCDCAS
   Marvin Lechner         : AUTO-CI (C++ implementation), FIC-MRCC
   Dagmar Lenk            : GEPOL surface, SMD
   Dimitrios Liakos       : Extrapolation schemes; Compound Job, initial MDCI parallelization
   Dimitrios Manganas     : Further ROCIS development; embedding schemes
   Dimitrios Pantazis     : SARC Basis sets
   Anastasios Papadopoulos: AUTO-CI, single reference methods and gradients
   Taras Petrenko         : DFT Hessian,TD-DFT gradient, ASA, ECA, R-Raman, ABS, FL, XAS/XES, NRVS
   Peter Pinski           : DLPNO-MP2, DLPNO-MP2 Gradient
   Christoph Reimann      : Effective Core Potentials
   Marius Retegan         : Local ZFS, SOC
   Christoph Riplinger    : Optimizer, TS searches, QM/MM, DLPNO-CCSD(T), (RO)-DLPNO pert. Triples
   Tobias Risthaus        : Range-separated hybrids, TD-DFT gradient, RPA, STAB
   Michael Roemelt        : Original ROCIS implementation
   Masaaki Saitow         : Open-shell DLPNO-CCSD energy and density
   Barbara Sandhoefer     : DKH picture change effects
   Avijit Sen             : IP-ROCIS
   Kantharuban Sivalingam : CASSCF convergence, NEVPT2, FIC-MRCI
   Bernardo de Souza      : ESD, SOC TD-DFT
   Georgi Stoychev        : AutoAux, RI-MP2 NMR
   Willem Van den Heuvel  : Paramagnetic NMR
   Boris Wezisla          : Elementary symmetry handling
   Frank Wennmohs         : Technical directorship


 We gratefully acknowledge several colleagues who have allowed us to
 interface, adapt or use parts of their codes:
   Stefan Grimme, W. Hujo, H. Kruse, P. Pracht,  : VdW corrections, initial TS optimization,
                  C. Bannwarth, S. Ehlert          DFT functionals, gCP, sTDA/sTD-DF
   Ed Valeev, F. Pavosevic, A. Kumar             : LibInt (2-el integral package), F12 methods
   Garnet Chan, S. Sharma, J. Yang, R. Olivares  : DMRG
   Ulf Ekstrom                                   : XCFun DFT Library
   Mihaly Kallay                                 : mrcc  (arbitrary order and MRCC methods)
   Jiri Pittner, Ondrej Demel                    : Mk-CCSD
   Frank Weinhold                                : gennbo (NPA and NBO analysis)
   Christopher J. Cramer and Donald G. Truhlar   : smd solvation model
   Lars Goerigk                                  : TD-DFT with DH, B97 family of functionals
   V. Asgeirsson, H. Jonsson                     : NEB implementation
   FAccTs GmbH                                   : IRC, NEB, NEB-TS, DLPNO-Multilevel, CI-OPT
                                                   MM, QMMM, 2- and 3-layer-ONIOM, Crystal-QMMM,
                                                   LR-CPCM, SF, NACMEs, symmetry and pop. for TD-DFT,
                                                   nearIR, NL-DFT gradient (VV10), updates on ESD,
                                                   ML-optimized integration grids
   S Lehtola, MJT Oliveira, MAL Marques          : LibXC Library
   Liviu Ungur et al                             : ANISO software


 Your calculation uses the libint2 library for the computation of 2-el integrals
 For citations please refer to: http://libint.valeyev.net

 Your ORCA version has been built with support for libXC version: 5.1.0
 For citations please refer to: https://tddft.org/programs/libxc/

 This ORCA versions uses:
   CBLAS   interface :  Fast vector & matrix operations
   LAPACKE interface :  Fast linear algebra routines
   SCALAPACK package :  Parallel linear algebra routines
   Shared memory     :  Shared parallel matrices
   BLAS/LAPACK       :  OpenBLAS 0.3.15  USE64BITINT DYNAMIC_ARCH NO_AFFINITY Haswell SINGLE_THREADED
        Core in use  :  Haswell
   Copyright (c) 2011-2014, The OpenBLAS Project




***************************************
The coordinates will be read from file: D1.xyz
***************************************


Your calculation utilizes the atom-pairwise dispersion correction
with the zero-damping scheme (D30)
Cite in your paper:
S.Grimme, J.Antony, S.Ehrlich and H.Krieg, J.Chem.Phys., 132, (2010), 154104 
   

XCFun DFT library Copyright 2009-2010 Ulf Ekstrom and contributors.
See http://admol.org/xcfun for more information.
This is free software; see the source code for copying conditions.
There is ABSOLUTELY NO WARRANTY; not even for MERCHANTABILITY or FITNESS FOR A PARTICULAR PURPOSE.
For details see the documentation.
Scientific users of this library should cite U. Ekstrom, L. Visscher, R. Bast, A. J. Thorvaldsen and K. Ruud;
J.Chem.Theor.Comp. 2010, DOI: 10.1021/ct100117s
XCFun Version 0.99 

================================================================================

----- Orbital basis set information -----
Your calculation utilizes the basis: def2-SVPD
   F. Weigend and R. Ahlrichs, Phys. Chem. Chem. Phys. 7, 3297 (2005).
   D. Rappoport and F. Furche, J. Chem. Phys. 133 134105 (2010).

----- AuxJ basis set information -----
Your calculation utilizes the auxiliary basis: def2/J
   F. Weigend, Phys. Chem. Chem. Phys. 8, 1057 (2006).

================================================================================
                                        WARNINGS
                       Please study these warnings very carefully!
================================================================================


WARNING: Minnesota functionals are quite sensitive to the integration grid.
         see SE Wheeler, KN Houk, JCTC 2010, 6, 395,
             N Mardirossian, M Head-Gordon, JCTC 2016, 12, 4303.
         DEFGRID3 seems to be a minimum grid for reliable results with these functionals!
  ===> : Please increase the integration grid!


INFO   : the flag for use of the SHARK integral package has been found!

================================================================================
                                       INPUT FILE
================================================================================
NAME = 28Oct_SVPD_M062X_D1_wb97.com
|  1> !M062X D3Zero RIJCOSX def2-SVPD def2/J TightSCF xyzfile                                                                                         
|  2> 
|  3> *xyzfile 0 1 D1.xyz
|  4> 
|  5> %MaxCore 64000
|  6> 
|  7> %pal nprocs 4                                                                                                                                                  
|  8> end  
|  9> 
| 10> %scf
| 11>   MaxIter 150
| 12> end
| 13> 
| 14> 
| 15>                          ****END OF INPUT****
================================================================================

                       ****************************
                       * Single Point Calculation *
                       ****************************

---------------------------------
CARTESIAN COORDINATES (ANGSTROEM)
---------------------------------
  C      2.916324   -1.242589   -1.543125
  C      0.704661    1.443129   -4.503630
  C      1.728539    1.424320   -5.639443
  H      2.646718    1.953794   -5.381054
  H      1.299916    1.930613   -6.503614
  S      2.252625   -0.188115   -6.271840
  C      3.466585   -1.590971   -2.889082
  C      4.652275   -1.143164   -3.259692
  N      2.752264   -2.292043   -3.728029
  H      1.778364   -2.489604   -3.512738
  H      2.948612   -2.208544   -4.716813
  H      5.146723   -0.512508   -2.633852
  H      4.783030   -1.007203   -4.253498
  F      3.562607   -0.444464   -5.631552
  O      2.344944   -0.033742   -7.696501
  C      2.804084    0.290698   -1.359243
  C      1.052550    0.695659   -3.214915
  H     -0.232483    1.032925   -4.884449
  H      0.511700    2.495794   -4.267966
  C      2.388380    1.093669   -2.597108
  H      3.763425    0.674718   -0.999889
  H      2.094788    0.461222   -0.545756
  O      1.266058   -1.159177   -5.805365
  H      3.167316    1.013242   -3.359430
  H      2.357690    2.149375   -2.310997
  H      1.039284   -0.368429   -3.449329
  H      0.250787    0.865605   -2.488283
  H      1.940472   -1.716529   -1.441161
  H      3.558569   -1.663433   -0.766371

----------------------------
CARTESIAN COORDINATES (A.U.)
----------------------------
  NO LB      ZA    FRAG     MASS         X           Y           Z
   0 C     6.0000    0    12.011    5.511054   -2.348154   -2.916084
   1 C     6.0000    0    12.011    1.331617    2.727119   -8.510627
   2 C     6.0000    0    12.011    3.266466    2.691575  -10.657002
   3 H     1.0000    0     1.008    5.001573    3.692135  -10.168719
   4 H     1.0000    0     1.008    2.456486    3.648330  -12.290050
   5 S    16.0000    0    32.060    4.256845   -0.355485  -11.852059
   6 C     6.0000    0    12.011    6.550897   -3.006500   -5.459573
   7 C     6.0000    0    12.011    8.791525   -2.160266   -6.159925
   8 N     7.0000    0    14.007    5.201026   -4.331334   -7.044953
   9 H     1.0000    0     1.008    3.360621   -4.704669   -6.638113
  10 H     1.0000    0     1.008    5.572070   -4.173543   -8.913484
  11 H     1.0000    0     1.008    9.725897   -0.968501   -4.977259
  12 H     1.0000    0     1.008    9.038617   -1.903337   -8.037945
  13 F     9.0000    0    18.998    6.732352   -0.839915  -10.642091
  14 O     8.0000    0    15.999    4.431301   -0.063764  -14.544279
  15 C     6.0000    0    12.011    5.298951    0.549339   -2.568597
  16 C     6.0000    0    12.011    1.989032    1.314604   -6.075308
  17 H     1.0000    0     1.008   -0.439329    1.951946   -9.230272
  18 H     1.0000    0     1.008    0.966972    4.716368   -8.065286
  19 C     6.0000    0    12.011    4.513384    2.066735   -4.907822
  20 H     1.0000    0     1.008    7.111842    1.275032   -1.889516
  21 H     1.0000    0     1.008    3.958575    0.871583   -1.031329
  22 O     8.0000    0    15.999    2.392504   -2.190526  -10.970549
  23 H     1.0000    0     1.008    5.985361    1.914750   -6.348402
  24 H     1.0000    0     1.008    4.455389    4.061730   -4.367151
  25 H     1.0000    0     1.008    1.963961   -0.696229   -6.518287
  26 H     1.0000    0     1.008    0.473919    1.635756   -4.702174
  27 H     1.0000    0     1.008    3.666960   -3.243770   -2.723400
  28 H     1.0000    0     1.008    6.724720   -3.143433   -1.448231

--------------------------------
INTERNAL COORDINATES (ANGSTROEM)
--------------------------------
 C      0   0   0     0.000000000000     0.00000000     0.00000000
 C      1   0   0     4.568273793968     0.00000000     0.00000000
 C      2   1   0     1.529297825534    98.62404527     0.00000000
 H      3   2   1     1.090944370706   112.43319093   291.35935600
 H      3   2   1     1.089423309889   108.66365748   173.02891256
 S      3   2   1     1.809568454434   117.67249747    54.59879179
 C      1   2   3     1.495244269354    74.44217903   337.12806402
 C      7   1   2     1.320508752421   120.26891390   103.10495601
 N      7   1   2     1.305981940434   120.13503729   286.08645689
 H      9   7   1     1.016790325068   119.48364563     8.33019225
 H      9   7   1     1.011542432359   118.51921329   155.66854205
 H      8   7   1     1.016799188787   118.30856157   356.12171918
 H      8   7   1     1.011549184661   115.93680355   208.86906715
 F      6   3   2     1.480451351977   105.03550261   259.70514125
 O      6   3   2     1.435971529587   105.63739582   140.00826415
 C      1   2   3     1.548347683709    57.29458071   106.04454887
 C      2   1   3     1.529877614442    19.39834396   186.99389249
 H      2   1   3     1.091572130247   114.88526166   114.65620169
 H      2   1   3     1.095844940799   120.70540048   244.49829987
 C     17   2   1     1.524643581099   114.39523607    61.63043835
 H     16   1   2     1.094048234703   108.84673673   220.49718341
 H     16   1   2     1.092676175276   106.85886165   106.82959772
 O      6   3   2     1.460778685441   106.56716191    16.57397008
 H     20  17   2     1.092861154855   108.82111327   307.33588892
 H     20  17   2     1.094219453583   109.46571263    62.60087563
 H     17   2   1     1.089682404302   107.04520605   298.66165453
 H     17   2   1     1.095307766624   108.45540496   184.02122912
 H      1   2   3     1.089634927768    83.26793994   226.06030881
 H      1   2   3     1.092215339711   166.43145148    86.04509137

---------------------------
INTERNAL COORDINATES (A.U.)
---------------------------
 C      0   0   0     0.000000000000     0.00000000     0.00000000
 C      1   0   0     8.632786375368     0.00000000     0.00000000
 C      2   1   0     2.889954067461    98.62404527     0.00000000
 H      3   2   1     2.061586087978   112.43319093   291.35935600
 H      3   2   1     2.058711699600   108.66365748   173.02891256
 S      3   2   1     3.419588799463   117.67249747    54.59879179
 C      1   2   3     2.825602172394    74.44217903   337.12806402
 C      7   1   2     2.495399899522   120.26891390   103.10495601
 N      7   1   2     2.467948203268   120.13503729   286.08645689
 H      9   7   1     1.921455250000   119.48364563     8.33019225
 H      9   7   1     1.911538170000   118.51921329   155.66854205
 H      8   7   1     1.921472000000   118.30856157   356.12171918
 H      8   7   1     1.911550930000   115.93680355   208.86906715
 F      6   3   2     2.797647609830   105.03550261   259.70514125
 O      6   3   2     2.713592927028   105.63739582   140.00826415
 C      1   2   3     2.925953082301    57.29458071   106.04454887
 C      2   1   3     2.891049709713    19.39834396   186.99389249
 H      2   1   3     2.062772381588   114.88526166   114.65620169
 H      2   1   3     2.070846823354   120.70540048   244.49829987
 C     17   2   1     2.881158820119   114.39523607    61.63043835
 H     16   1   2     2.067451540889   108.84673673   220.49718341
 H     16   1   2     2.064858724332   106.85886165   106.82959772
 O      6   3   2     2.760471657752   106.56716191    16.57397008
 H     20  17   2     2.065208285076   108.82111327   307.33588892
 H     20  17   2     2.067775097680   109.46571263    62.60087563
 H     17   2   1     2.059201317083   107.04520605   298.66165453
 H     17   2   1     2.069831711276   108.45540496   184.02122912
 H      1   2   3     2.059111599436    83.26793994   226.06030881
 H      1   2   3     2.063987871322   166.43145148    86.04509137

---------------------
BASIS SET INFORMATION
---------------------
There are 6 groups of distinct atoms

 Group   1 Type C   : 8s4p2d contracted to 4s2p2d pattern {5111/31/11}
 Group   2 Type H   : 4s2p contracted to 2s2p pattern {31/11}
 Group   3 Type S   : 11s8p2d contracted to 5s4p2d pattern {53111/5111/11}
 Group   4 Type N   : 8s4p2d contracted to 4s2p2d pattern {5111/31/11}
 Group   5 Type F   : 8s5p2d contracted to 4s3p2d pattern {5111/311/11}
 Group   6 Type O   : 8s5p2d contracted to 4s3p2d pattern {5111/311/11}

Atom   0C    basis set group =>   1
Atom   1C    basis set group =>   1
Atom   2C    basis set group =>   1
Atom   3H    basis set group =>   2
Atom   4H    basis set group =>   2
Atom   5S    basis set group =>   3
Atom   6C    basis set group =>   1
Atom   7C    basis set group =>   1
Atom   8N    basis set group =>   4
Atom   9H    basis set group =>   2
Atom  10H    basis set group =>   2
Atom  11H    basis set group =>   2
Atom  12H    basis set group =>   2
Atom  13F    basis set group =>   5
Atom  14O    basis set group =>   6
Atom  15C    basis set group =>   1
Atom  16C    basis set group =>   1
Atom  17H    basis set group =>   2
Atom  18H    basis set group =>   2
Atom  19C    basis set group =>   1
Atom  20H    basis set group =>   2
Atom  21H    basis set group =>   2
Atom  22O    basis set group =>   6
Atom  23H    basis set group =>   2
Atom  24H    basis set group =>   2
Atom  25H    basis set group =>   2
Atom  26H    basis set group =>   2
Atom  27H    basis set group =>   2
Atom  28H    basis set group =>   2
---------------------------------
AUXILIARY/J BASIS SET INFORMATION
---------------------------------
There are 6 groups of distinct atoms

 Group   1 Type C   : 12s5p4d2f1g contracted to 6s4p3d1f1g pattern {711111/2111/211/2/1}
 Group   2 Type H   : 5s2p1d contracted to 3s1p1d pattern {311/2/1}
 Group   3 Type S   : 14s5p5d2f1g contracted to 8s4p3d1f1g pattern {71111111/2111/311/2/1}
 Group   4 Type N   : 12s5p4d2f1g contracted to 6s4p3d1f1g pattern {711111/2111/211/2/1}
 Group   5 Type F   : 12s5p4d2f1g contracted to 6s4p3d1f1g pattern {711111/2111/211/2/1}
 Group   6 Type O   : 12s5p4d2f1g contracted to 6s4p3d1f1g pattern {711111/2111/211/2/1}

Atom   0C    basis set group =>   1
Atom   1C    basis set group =>   1
Atom   2C    basis set group =>   1
Atom   3H    basis set group =>   2
Atom   4H    basis set group =>   2
Atom   5S    basis set group =>   3
Atom   6C    basis set group =>   1
Atom   7C    basis set group =>   1
Atom   8N    basis set group =>   4
Atom   9H    basis set group =>   2
Atom  10H    basis set group =>   2
Atom  11H    basis set group =>   2
Atom  12H    basis set group =>   2
Atom  13F    basis set group =>   5
Atom  14O    basis set group =>   6
Atom  15C    basis set group =>   1
Atom  16C    basis set group =>   1
Atom  17H    basis set group =>   2
Atom  18H    basis set group =>   2
Atom  19C    basis set group =>   1
Atom  20H    basis set group =>   2
Atom  21H    basis set group =>   2
Atom  22O    basis set group =>   6
Atom  23H    basis set group =>   2
Atom  24H    basis set group =>   2
Atom  25H    basis set group =>   2
Atom  26H    basis set group =>   2
Atom  27H    basis set group =>   2
Atom  28H    basis set group =>   2


           ************************************************************
           *        Program running with 4 parallel MPI-processes     *
           *              working on a common directory               *
           ************************************************************
------------------------------------------------------------------------------
                           ORCA GTO INTEGRAL CALCULATION
                           -- RI-GTO INTEGRALS CHOSEN --
------------------------------------------------------------------------------
------------------------------------------------------------------------------
                   ___                                                        
                  /   \      - P O W E R E D   B Y -                         
                 /     \                                                     
                 |  |  |   _    _      __       _____    __    __             
                 |  |  |  | |  | |    /  \     |  _  \  |  |  /  |          
                  \  \/   | |  | |   /    \    | | | |  |  | /  /          
                 / \  \   | |__| |  /  /\  \   | |_| |  |  |/  /          
                |  |  |   |  __  | /  /__\  \  |    /   |      \           
                |  |  |   | |  | | |   __   |  |    \   |  |\   \          
                \     /   | |  | | |  |  |  |  | |\  \  |  | \   \       
                 \___/    |_|  |_| |__|  |__|  |_| \__\ |__|  \__/        
                                                                              
                      - O R C A' S   B I G   F R I E N D -                    
                                      &                                       
                       - I N T E G R A L  F E E D E R -                       
                                                                              
 v1 FN, 2020, v2 2021                                                         
------------------------------------------------------------------------------


Reading SHARK input file 28Oct_SVPD_M062X_D1_wb97.SHARKINP.tmp ... ok
----------------------
SHARK INTEGRAL PACKAGE
----------------------

Number of atoms                             ...     29
Number of basis functions                   ...    404
Number of shells                            ...    174
Maximum angular momentum                    ...      2
Integral batch strategy                     ... SHARK/LIBINT Hybrid
RI-J (if used) integral strategy            ... SPLIT-RIJ (Revised 2003 algorithm where possible)
Printlevel                                  ...      1
Contraction scheme used                     ... SEGMENTED contraction
Coulomb Range Separation                    ... NOT USED
Exchange Range Separation                   ... NOT USED
Finite Nucleus Model                        ... NOT USED
Auxiliary Coulomb fitting basis             ... AVAILABLE
   # of basis functions in Aux-J            ...    815
   # of shells in Aux-J                     ...    277
   Maximum angular momentum in Aux-J        ...      4
Auxiliary J/K fitting basis                 ... NOT available
Auxiliary Correlation fitting basis         ... NOT available
Auxiliary 'external' fitting basis          ... NOT available
Integral threshold                          ...     2.500000e-11
Primitive cut-off                           ...     2.500000e-12
Primitive pair pre-selection threshold      ...     2.500000e-12

Calculating pre-screening integrals         ... done (  0.1 sec) Dimension = 174
Organizing shell pair data                  ... done (  0.1 sec)
Shell pair information
Total number of shell pairs                 ...     15225
Shell pairs after pre-screening             ...     14368
Total number of primitive shell pairs       ...     41843
Primitive shell pairs kept                  ...     30382
          la=0 lb=0:   3422 shell pairs
          la=1 lb=0:   5040 shell pairs
          la=1 lb=1:   1912 shell pairs
          la=2 lb=0:   2092 shell pairs
          la=2 lb=1:   1563 shell pairs
          la=2 lb=2:    339 shell pairs

Calculating one electron integrals          ... done (  0.0 sec)
Calculating RI/J V-Matrix + Cholesky decomp.... done (  0.1 sec)
Calculating Nuclear repulsion               ... done (  0.0 sec) ENN=   1088.370982158220 Eh

SHARK setup successfully completed in   0.4 seconds

Maximum memory used throughout the entire GTOINT-calculation: 22.7 MB


           ************************************************************
           *        Program running with 4 parallel MPI-processes     *
           *              working on a common directory               *
           ************************************************************
-------------------------------------------------------------------------------
                                 ORCA SCF
-------------------------------------------------------------------------------

------------
SCF SETTINGS
------------
Hamiltonian:
 Density Functional     Method          .... DFT(GTOs)
 Exchange Functional    Exchange        .... M062X
 Correlation Functional Correlation     .... M062X
 Gradients option       PostSCFGGA      .... off
 Hybrid DFT is turned on
   Fraction HF Exchange ScalHFX         ....  0.540000
   Scaling of DF-GGA-X  ScalDFX         ....  0.460000
   Scaling of DF-GGA-C  ScalDFC         ....  1.000000
   Scaling of DF-LDA-C  ScalLDAC        ....  1.000000
   Perturbative correction              ....  0.000000
   Density functional embedding theory  .... OFF
 RI-approximation to the Coulomb term is turned on
   Number of AuxJ basis functions       .... 815
   RIJ-COSX (HFX calculated with COS-X)).... on


General Settings:
 Integral files         IntName         .... 28Oct_SVPD_M062X_D1_wb97
 Hartree-Fock type      HFTyp           .... RHF
 Total Charge           Charge          ....    0
 Multiplicity           Mult            ....    1
 Number of Electrons    NEL             ....  112
 Basis Dimension        Dim             ....  404
 Nuclear Repulsion      ENuc            ....   1088.3709821582 Eh

Convergence Acceleration:
 DIIS                   CNVDIIS         .... on
   Start iteration      DIISMaxIt       ....    12
   Startup error        DIISStart       ....  0.200000
   # of expansion vecs  DIISMaxEq       ....     5
   Bias factor          DIISBfac        ....   1.050
   Max. coefficient     DIISMaxC        ....  10.000
 Trust-Rad. Augm. Hess. CNVTRAH         .... auto
   Auto Start mean grad. ratio tolernc. ....  1.125000
   Auto Start start iteration           ....    20
   Auto Start num. interpolation iter.  ....    10
   Max. Number of Micro iterations      ....    16
   Max. Number of Macro iterations      .... Maxiter - #DIIS iter
   Number of Davidson start vectors     ....     2
   Converg. threshold I  (grad. norm)   ....   1.000e-05
   Converg. threshold II (energy diff.) ....   1.000e-08
   Grad. Scal. Fac. for Micro threshold ....   0.100
   Minimum threshold for Micro iter.    ....   0.010
   NR start threshold (gradient norm)   ....   0.001
   Initial trust radius                 ....   0.400
   Minimum AH scaling param. (alpha)    ....   1.000
   Maximum AH scaling param. (alpha)    .... 1000.000
   Orbital update algorithm             .... Taylor
   White noise on init. David. guess    .... on
   Maximum white noise                  ....   0.010
   Quad. conv. algorithm                .... NR
 SOSCF                  CNVSOSCF        .... on
   Start iteration      SOSCFMaxIt      ....   150
   Startup grad/error   SOSCFStart      ....  0.003300
 Level Shifting         CNVShift        .... on
   Level shift para.    LevelShift      ....    0.2500
   Turn off err/grad.   ShiftErr        ....    0.0010
 Zerner damping         CNVZerner       .... off
 Static damping         CNVDamp         .... on
   Fraction old density DampFac         ....    0.7000
   Max. Damping (<1)    DampMax         ....    0.9800
   Min. Damping (>=0)   DampMin         ....    0.0000
   Turn off err/grad.   DampErr         ....    0.1000
 Fernandez-Rico         CNVRico         .... off

SCF Procedure:
 Maximum # iterations   MaxIter         ....   150
 SCF integral mode      SCFMode         .... Direct
   Integral package                     .... SHARK and LIBINT hybrid scheme
 Reset frequency        DirectResetFreq ....    20
 Integral Threshold     Thresh          ....  2.500e-11 Eh
 Primitive CutOff       TCut            ....  2.500e-12 Eh

Convergence Tolerance:
 Convergence Check Mode ConvCheckMode   .... Total+1el-Energy
 Convergence forced     ConvForced      .... 0
 Energy Change          TolE            ....  1.000e-08 Eh
 1-El. energy change                    ....  1.000e-05 Eh
 Orbital Gradient       TolG            ....  1.000e-05
 Orbital Rotation angle TolX            ....  1.000e-05
 DIIS Error             TolErr          ....  5.000e-07


Diagonalization of the overlap matrix:
Smallest eigenvalue                        ... 2.939e-05
Time for diagonalization                   ...    0.035 sec
Threshold for overlap eigenvalues          ... 1.000e-08
Number of eigenvalues below threshold      ... 0
Time for construction of square roots      ...    0.026 sec
Total time needed                          ...    0.062 sec

Time for model grid setup =    0.327 sec

------------------------------
INITIAL GUESS: MODEL POTENTIAL
------------------------------
Loading Hartree-Fock densities                     ... done
Calculating cut-offs                               ... done
Initializing the effective Hamiltonian             ... done
Setting up the integral package (SHARK)            ... done
Starting the Coulomb interaction                   ... done (   0.3 sec)
Reading the grid                                   ... done
Mapping shells                                     ... done
Starting the XC term evaluation                    ... done (   0.4 sec)
  promolecular density results
     # of electrons  =    111.992975409
     EX              =   -103.631875293
     EC              =     -3.881200163
     EX+EC           =   -107.513075457
Transforming the Hamiltonian                       ... done (   0.0 sec)
Diagonalizing the Hamiltonian                      ... done (   0.0 sec)
Back transforming the eigenvectors                 ... done (   0.0 sec)
Now organizing SCF variables                       ... done
                      ------------------
                      INITIAL GUESS DONE (   1.1 sec)
                      ------------------
-------------------
DFT GRID GENERATION
-------------------

General Integration Accuracy     IntAcc      ... 4.388
Radial Grid Type                 RadialGrid  ... OptM3 with GC (2021)
Angular Grid (max. ang.)         AngularGrid ... 4 (Lebedev-302)
Angular grid pruning method      GridPruning ... 4 (adaptive)
Weight generation scheme         WeightScheme... Becke
Basis function cutoff            BFCut       ... 1.0000e-11
Integration weight cutoff        WCut        ... 1.0000e-14
Angular grids for H and He will be reduced by one unit
Partially contracted basis set               ... off
Rotationally invariant grid construction     ... off

Total number of grid points                  ...   133181
Total number of batches                      ...     2096
Average number of points per batch           ...       63
Average number of grid points per atom       ...     4592
Time for grid setup =    1.177 sec

--------------------
COSX GRID GENERATION
--------------------

GRIDX 1
-------
General Integration Accuracy     IntAcc      ... 3.816
Radial Grid Type                 RadialGrid  ... OptM3 with GC (2021)
Angular Grid (max. ang.)         AngularGrid ... 1 (Lebedev-50)
Angular grid pruning method      GridPruning ... 4 (adaptive)
Weight generation scheme         WeightScheme... Becke
Basis function cutoff            BFCut       ... 1.0000e-11
Integration weight cutoff        WCut        ... 1.0000e-14
Angular grids for H and He will be reduced by one unit
Partially contracted basis set               ... on
Rotationally invariant grid construction     ... off

Total number of grid points                  ...    16553
Total number of batches                      ...      276
Average number of points per batch           ...       59
Average number of grid points per atom       ...      571
UseSFitting                                  ... on

GRIDX 2
-------
General Integration Accuracy     IntAcc      ... 4.020
Radial Grid Type                 RadialGrid  ... OptM3 with GC (2021)
Angular Grid (max. ang.)         AngularGrid ... 2 (Lebedev-110)
Angular grid pruning method      GridPruning ... 4 (adaptive)
Weight generation scheme         WeightScheme... Becke
Basis function cutoff            BFCut       ... 1.0000e-11
Integration weight cutoff        WCut        ... 1.0000e-14
Angular grids for H and He will be reduced by one unit
Partially contracted basis set               ... on
Rotationally invariant grid construction     ... off

Total number of grid points                  ...    36920
Total number of batches                      ...      590
Average number of points per batch           ...       62
Average number of grid points per atom       ...     1273
UseSFitting                                  ... on

GRIDX 3
-------
General Integration Accuracy     IntAcc      ... 4.338
Radial Grid Type                 RadialGrid  ... OptM3 with GC (2021)
Angular Grid (max. ang.)         AngularGrid ... 3 (Lebedev-194)
Angular grid pruning method      GridPruning ... 4 (adaptive)
Weight generation scheme         WeightScheme... Becke
Basis function cutoff            BFCut       ... 1.0000e-11
Integration weight cutoff        WCut        ... 1.0000e-14
Angular grids for H and He will be reduced by one unit
Partially contracted basis set               ... on
Rotationally invariant grid construction     ... off

Total number of grid points                  ...    83209
Total number of batches                      ...     1314
Average number of points per batch           ...       63
Average number of grid points per atom       ...     2869
UseSFitting                                  ... on

Time for X-Grid setup             =    1.557 sec

--------------
SCF ITERATIONS
--------------
ITER       Energy         Delta-E        Max-DP      RMS-DP      [F,P]     Damp
               ***  Starting incremental Fock matrix formation  ***
  0  -1016.1809472282   0.000000000000 0.42886189  0.00341701  0.2714259 0.7000
  1  -1016.4391478191  -0.258200590899 0.42737054  0.00260859  0.1220182 0.7000
                               ***Turning on DIIS***
  2  -1016.5489034224  -0.109755603291 0.83643671  0.00509327  0.0563461 0.0000
  3  -1016.7228251415  -0.173921719111 0.32901326  0.00184998  0.0615862 0.0000
  4  -1016.7572826095  -0.034457468026 0.10179579  0.00055986  0.0122821 0.0000
  5  -1016.7584323644  -0.001149754810 0.02817636  0.00019353  0.0073248 0.0000
                      *** Initiating the SOSCF procedure ***
                           *** Shutting down DIIS ***
                      *** Re-Reading the Fockian *** 
                      *** Removing any level shift *** 
ITER      Energy       Delta-E        Grad      Rot      Max-DP    RMS-DP
  6  -1016.75862621  -0.0001938503  0.000447  0.000447  0.019569  0.000150
               *** Restarting incremental Fock matrix formation ***
  7  -1016.75901301  -0.0003867908  0.000087  0.000238  0.010753  0.000160
  8  -1016.75901498  -0.0000019759  0.000142  0.000287  0.003028  0.000042
  9  -1016.75901648  -0.0000015005  0.000017  0.000033  0.001145  0.000024
 10  -1016.75901655  -0.0000000668  0.000013  0.000024  0.000292  0.000003
 11  -1016.75901659  -0.0000000370  0.000003  0.000004  0.000205  0.000004
                  ***Gradient check signals convergence***
              ***Rediagonalizing the Fockian in SOSCF/NRSCF***

               *****************************************************
               *                     SUCCESS                       *
               *           SCF CONVERGED AFTER  12 CYCLES          *
               *****************************************************

Old exchange energy                            =    -56.933868764 Eh
New exchange energy                            =    -56.933973929 Eh
Exchange energy change after final integration =     -0.000105165 Eh
Total energy after final integration           =  -1016.759121751 Eh
Final COS-X integration done in                =    19.908 sec

----------------
TOTAL SCF ENERGY
----------------

Total Energy       :        -1016.75912175 Eh          -27667.42229 eV

Components:
Nuclear Repulsion  :         1088.37098216 Eh           29616.08008 eV
Electronic Energy  :        -2105.13010391 Eh          -57283.50236 eV
One Electron Energy:        -3553.73684887 Eh          -96702.09590 eV
Two Electron Energy:         1448.60674496 Eh           39418.59353 eV
Max COSX asymmetry :            0.00003417 Eh               0.00093 eV

Virial components:
Potential Energy   :        -2027.17569997 Eh          -55162.25519 eV
Kinetic Energy     :         1010.41657822 Eh           27494.83290 eV
Virial Ratio       :            2.00627716


DFT components:
N(Alpha)           :       56.000145984751 electrons
N(Beta)            :       56.000145984751 electrons
N(Total)           :      112.000291969501 electrons
E(XC)              :      -52.631278629728 Eh       
DFET-embed. en.    :        0.000000000000 Eh       

---------------
SCF CONVERGENCE
---------------

  Last Energy change         ...   -8.0377e-11  Tolerance :   1.0000e-08
  Last MAX-Density change    ...    4.4409e-15  Tolerance :   1.0000e-07
  Last RMS-Density change    ...    3.5155e-17  Tolerance :   5.0000e-09
  Last Orbital Gradient      ...    1.5835e-06  Tolerance :   1.0000e-05
  Last Orbital Rotation      ...    1.6023e-06  Tolerance :   1.0000e-05

             **** THE GBW FILE WAS UPDATED (28Oct_SVPD_M062X_D1_wb97.gbw) ****
             **** DENSITY 28Oct_SVPD_M062X_D1_wb97.scfp WAS UPDATED ****
             **** ENERGY FILE WAS UPDATED (28Oct_SVPD_M062X_D1_wb97.en.tmp) ****
             **** THE GBW FILE WAS UPDATED (28Oct_SVPD_M062X_D1_wb97.gbw) ****
             **** DENSITY 28Oct_SVPD_M062X_D1_wb97.scfp WAS UPDATED ****
----------------
ORBITAL ENERGIES
----------------

  NO   OCC          E(Eh)            E(eV) 
   0   2.0000     -90.206715     -2454.6495 
   1   2.0000     -25.370148      -690.3568 
   2   2.0000     -19.663461      -535.0700 
   3   2.0000     -19.659621      -534.9655 
   4   2.0000     -14.758200      -401.5910 
   5   2.0000     -10.618728      -288.9503 
   6   2.0000     -10.583357      -287.9878 
   7   2.0000     -10.572079      -287.6809 
   8   2.0000     -10.560151      -287.3563 
   9   2.0000     -10.557349      -287.2801 
  10   2.0000     -10.555333      -287.2252 
  11   2.0000     -10.555007      -287.2163 
  12   2.0000     -10.478681      -285.1394 
  13   2.0000      -8.529711      -232.1052 
  14   2.0000      -6.458139      -175.7349 
  15   2.0000      -6.453053      -175.5965 
  16   2.0000      -6.451951      -175.5665 
  17   2.0000      -1.496826       -40.7307 
  18   2.0000      -1.244584       -33.8668 
  19   2.0000      -1.144435       -31.1417 
  20   2.0000      -1.033162       -28.1138 
  21   2.0000      -0.936881       -25.4938 
  22   2.0000      -0.897461       -24.4211 
  23   2.0000      -0.856594       -23.3091 
  24   2.0000      -0.828008       -22.5312 
  25   2.0000      -0.791072       -21.5262 
  26   2.0000      -0.774802       -21.0834 
  27   2.0000      -0.721937       -19.6449 
  28   2.0000      -0.686606       -18.6835 
  29   2.0000      -0.677137       -18.4258 
  30   2.0000      -0.663197       -18.0465 
  31   2.0000      -0.647229       -17.6120 
  32   2.0000      -0.627923       -17.0867 
  33   2.0000      -0.591740       -16.1021 
  34   2.0000      -0.579860       -15.7788 
  35   2.0000      -0.568123       -15.4594 
  36   2.0000      -0.553729       -15.0677 
  37   2.0000      -0.550308       -14.9747 
  38   2.0000      -0.543066       -14.7776 
  39   2.0000      -0.517581       -14.0841 
  40   2.0000      -0.504474       -13.7274 
  41   2.0000      -0.493913       -13.4400 
  42   2.0000      -0.477136       -12.9835 
  43   2.0000      -0.460918       -12.5422 
  44   2.0000      -0.453861       -12.3502 
  45   2.0000      -0.450318       -12.2538 
  46   2.0000      -0.441899       -12.0247 
  47   2.0000      -0.427175       -11.6240 
  48   2.0000      -0.420964       -11.4550 
  49   2.0000      -0.412203       -11.2166 
  50   2.0000      -0.404935       -11.0189 
  51   2.0000      -0.398915       -10.8550 
  52   2.0000      -0.387757       -10.5514 
  53   2.0000      -0.384430       -10.4609 
  54   2.0000      -0.379271       -10.3205 
  55   2.0000      -0.240848        -6.5538 
  56   0.0000       0.015306         0.4165 
  57   0.0000       0.029012         0.7895 
  58   0.0000       0.033591         0.9141 
  59   0.0000       0.037730         1.0267 
  60   0.0000       0.051261         1.3949 
  61   0.0000       0.056527         1.5382 
  62   0.0000       0.064573         1.7571 
  63   0.0000       0.067601         1.8395 
  64   0.0000       0.070015         1.9052 
  65   0.0000       0.078302         2.1307 
  66   0.0000       0.086736         2.3602 
  67   0.0000       0.094205         2.5635 
  68   0.0000       0.100091         2.7236 
  69   0.0000       0.103458         2.8152 
  70   0.0000       0.109462         2.9786 
  71   0.0000       0.114776         3.1232 
  72   0.0000       0.116472         3.1694 
  73   0.0000       0.125673         3.4197 
  74   0.0000       0.126436         3.4405 
  75   0.0000       0.137884         3.7520 
  76   0.0000       0.144192         3.9237 
  77   0.0000       0.145766         3.9665 
  78   0.0000       0.158771         4.3204 
  79   0.0000       0.161354         4.3907 
  80   0.0000       0.164014         4.4630 
  81   0.0000       0.173725         4.7273 
  82   0.0000       0.178393         4.8543 
  83   0.0000       0.182388         4.9630 
  84   0.0000       0.191610         5.2140 
  85   0.0000       0.193672         5.2701 
  86   0.0000       0.199322         5.4238 
  87   0.0000       0.204058         5.5527 
  88   0.0000       0.209800         5.7090 
  89   0.0000       0.211994         5.7687 
  90   0.0000       0.216814         5.8998 
  91   0.0000       0.225678         6.1410 
  92   0.0000       0.234101         6.3702 
  93   0.0000       0.236988         6.4488 
  94   0.0000       0.241258         6.5650 
  95   0.0000       0.244386         6.6501 
  96   0.0000       0.248982         6.7751 
  97   0.0000       0.252587         6.8732 
  98   0.0000       0.258996         7.0476 
  99   0.0000       0.259549         7.0627 
 100   0.0000       0.268662         7.3107 
 101   0.0000       0.273059         7.4303 
 102   0.0000       0.276370         7.5204 
 103   0.0000       0.281372         7.6565 
 104   0.0000       0.286331         7.7915 
 105   0.0000       0.294099         8.0029 
 106   0.0000       0.300130         8.1670 
 107   0.0000       0.301489         8.2039 
 108   0.0000       0.312628         8.5070 
 109   0.0000       0.316521         8.6130 
 110   0.0000       0.320037         8.7087 
 111   0.0000       0.324665         8.8346 
 112   0.0000       0.328760         8.9460 
 113   0.0000       0.330693         8.9986 
 114   0.0000       0.339839         9.2475 
 115   0.0000       0.342257         9.3133 
 116   0.0000       0.350436         9.5358 
 117   0.0000       0.352652         9.5961 
 118   0.0000       0.356945         9.7130 
 119   0.0000       0.363075         9.8798 
 120   0.0000       0.365160         9.9365 
 121   0.0000       0.369513        10.0550 
 122   0.0000       0.372615        10.1394 
 123   0.0000       0.378913        10.3107 
 124   0.0000       0.383657        10.4398 
 125   0.0000       0.385483        10.4895 
 126   0.0000       0.391338        10.6488 
 127   0.0000       0.392833        10.6895 
 128   0.0000       0.397896        10.8273 
 129   0.0000       0.402188        10.9441 
 130   0.0000       0.406064        11.0496 
 131   0.0000       0.411195        11.1892 
 132   0.0000       0.412884        11.2351 
 133   0.0000       0.418660        11.3923 
 134   0.0000       0.427575        11.6349 
 135   0.0000       0.428419        11.6579 
 136   0.0000       0.436372        11.8743 
 137   0.0000       0.438621        11.9355 
 138   0.0000       0.445177        12.1139 
 139   0.0000       0.447967        12.1898 
 140   0.0000       0.453457        12.3392 
 141   0.0000       0.455988        12.4081 
 142   0.0000       0.456563        12.4237 
 143   0.0000       0.462577        12.5874 
 144   0.0000       0.470331        12.7984 
 145   0.0000       0.474730        12.9181 
 146   0.0000       0.478469        13.0198 
 147   0.0000       0.481174        13.0934 
 148   0.0000       0.488647        13.2968 
 149   0.0000       0.490912        13.3584 
 150   0.0000       0.497433        13.5358 
 151   0.0000       0.502674        13.6785 
 152   0.0000       0.509740        13.8707 
 153   0.0000       0.513072        13.9614 
 154   0.0000       0.515288        14.0217 
 155   0.0000       0.517889        14.0925 
 156   0.0000       0.522626        14.2214 
 157   0.0000       0.527556        14.3555 
 158   0.0000       0.530260        14.4291 
 159   0.0000       0.539187        14.6720 
 160   0.0000       0.545320        14.8389 
 161   0.0000       0.549245        14.9457 
 162   0.0000       0.551867        15.0171 
 163   0.0000       0.556610        15.1461 
 164   0.0000       0.562161        15.2972 
 165   0.0000       0.567168        15.4334 
 166   0.0000       0.569308        15.4917 
 167   0.0000       0.575325        15.6554 
 168   0.0000       0.584264        15.8986 
 169   0.0000       0.586962        15.9720 
 170   0.0000       0.588600        16.0166 
 171   0.0000       0.593497        16.1499 
 172   0.0000       0.600846        16.3499 
 173   0.0000       0.605956        16.4889 
 174   0.0000       0.606983        16.5169 
 175   0.0000       0.615030        16.7358 
 176   0.0000       0.617198        16.7948 
 177   0.0000       0.622415        16.9368 
 178   0.0000       0.630506        17.1569 
 179   0.0000       0.636126        17.3099 
 180   0.0000       0.641225        17.4486 
 181   0.0000       0.645874        17.5751 
 182   0.0000       0.653919        17.7941 
 183   0.0000       0.659341        17.9416 
 184   0.0000       0.667723        18.1697 
 185   0.0000       0.671312        18.2673 
 186   0.0000       0.675503        18.3814 
 187   0.0000       0.677804        18.4440 
 188   0.0000       0.682595        18.5743 
 189   0.0000       0.688899        18.7459 
 190   0.0000       0.696310        18.9475 
 191   0.0000       0.698819        19.0158 
 192   0.0000       0.712616        19.3913 
 193   0.0000       0.713416        19.4130 
 194   0.0000       0.716962        19.5095 
 195   0.0000       0.722875        19.6704 
 196   0.0000       0.731186        19.8966 
 197   0.0000       0.738888        20.1062 
 198   0.0000       0.742015        20.1913 
 199   0.0000       0.751047        20.4370 
 200   0.0000       0.759562        20.6687 
 201   0.0000       0.760397        20.6914 
 202   0.0000       0.774205        21.0672 
 203   0.0000       0.782251        21.2861 
 204   0.0000       0.786694        21.4070 
 205   0.0000       0.794792        21.6274 
 206   0.0000       0.801980        21.8230 
 207   0.0000       0.813082        22.1251 
 208   0.0000       0.823196        22.4003 
 209   0.0000       0.829014        22.5586 
 210   0.0000       0.843726        22.9590 
 211   0.0000       0.849344        23.1118 
 212   0.0000       0.852378        23.1944 
 213   0.0000       0.865650        23.5555 
 214   0.0000       0.871028        23.7019 
 215   0.0000       0.879358        23.9285 
 216   0.0000       0.906624        24.6705 
 217   0.0000       0.912324        24.8256 
 218   0.0000       0.917912        24.9777 
 219   0.0000       0.934720        25.4350 
 220   0.0000       0.939464        25.5641 
 221   0.0000       0.963383        26.2150 
 222   0.0000       0.974422        26.5154 
 223   0.0000       0.990130        26.9428 
 224   0.0000       0.996408        27.1136 
 225   0.0000       1.003938        27.3185 
 226   0.0000       1.028154        27.9775 
 227   0.0000       1.038431        28.2571 
 228   0.0000       1.042688        28.3730 
 229   0.0000       1.049749        28.5651 
 230   0.0000       1.054106        28.6837 
 231   0.0000       1.062577        28.9142 
 232   0.0000       1.066739        29.0274 
 233   0.0000       1.078651        29.3516 
 234   0.0000       1.086204        29.5571 
 235   0.0000       1.088953        29.6319 
 236   0.0000       1.094938        29.7948 
 237   0.0000       1.105194        30.0738 
 238   0.0000       1.112671        30.2773 
 239   0.0000       1.121028        30.5047 
 240   0.0000       1.125667        30.6309 
 241   0.0000       1.146426        31.1958 
 242   0.0000       1.153170        31.3793 
 243   0.0000       1.159160        31.5423 
 244   0.0000       1.161680        31.6109 
 245   0.0000       1.167724        31.7754 
 246   0.0000       1.180369        32.1195 
 247   0.0000       1.183038        32.1921 
 248   0.0000       1.198477        32.6122 
 249   0.0000       1.207989        32.8711 
 250   0.0000       1.222675        33.2707 
 251   0.0000       1.224722        33.3264 
 252   0.0000       1.227384        33.3988 
 253   0.0000       1.242455        33.8089 
 254   0.0000       1.246709        33.9247 
 255   0.0000       1.255529        34.1647 
 256   0.0000       1.266093        34.4522 
 257   0.0000       1.284107        34.9423 
 258   0.0000       1.292160        35.1614 
 259   0.0000       1.295030        35.2396 
 260   0.0000       1.309293        35.6277 
 261   0.0000       1.332642        36.2630 
 262   0.0000       1.340566        36.4787 
 263   0.0000       1.347481        36.6668 
 264   0.0000       1.363431        37.1008 
 265   0.0000       1.373121        37.3645 
 266   0.0000       1.384131        37.6641 
 267   0.0000       1.397261        38.0214 
 268   0.0000       1.420923        38.6653 
 269   0.0000       1.431450        38.9517 
 270   0.0000       1.450398        39.4673 
 271   0.0000       1.472027        40.0559 
 272   0.0000       1.480290        40.2807 
 273   0.0000       1.501770        40.8652 
 274   0.0000       1.514840        41.2209 
 275   0.0000       1.530337        41.6426 
 276   0.0000       1.543477        42.0001 
 277   0.0000       1.578640        42.9570 
 278   0.0000       1.590197        43.2715 
 279   0.0000       1.593894        43.3721 
 280   0.0000       1.614230        43.9254 
 281   0.0000       1.624858        44.2146 
 282   0.0000       1.643419        44.7197 
 283   0.0000       1.658417        45.1278 
 284   0.0000       1.684343        45.8333 
 285   0.0000       1.690323        45.9960 
 286   0.0000       1.711957        46.5847 
 287   0.0000       1.730446        47.0878 
 288   0.0000       1.747123        47.5416 
 289   0.0000       1.758422        47.8491 
 290   0.0000       1.764953        48.0268 
 291   0.0000       1.768115        48.1129 
 292   0.0000       1.779778        48.4302 
 293   0.0000       1.798205        48.9317 
 294   0.0000       1.810633        49.2698 
 295   0.0000       1.831133        49.8277 
 296   0.0000       1.845573        50.2206 
 297   0.0000       1.852902        50.4200 
 298   0.0000       1.855831        50.4997 
 299   0.0000       1.872775        50.9608 
 300   0.0000       1.886692        51.3395 
 301   0.0000       1.891464        51.4694 
 302   0.0000       1.911410        52.0121 
 303   0.0000       1.922236        52.3067 
 304   0.0000       1.931466        52.5579 
 305   0.0000       1.940455        52.8025 
 306   0.0000       1.955002        53.1983 
 307   0.0000       1.960781        53.3556 
 308   0.0000       1.970261        53.6135 
 309   0.0000       1.977355        53.8066 
 310   0.0000       1.997082        54.3434 
 311   0.0000       2.009412        54.6789 
 312   0.0000       2.015935        54.8564 
 313   0.0000       2.027212        55.1633 
 314   0.0000       2.046433        55.6863 
 315   0.0000       2.048799        55.7507 
 316   0.0000       2.054442        55.9042 
 317   0.0000       2.066221        56.2247 
 318   0.0000       2.077768        56.5389 
 319   0.0000       2.079262        56.5796 
 320   0.0000       2.104271        57.2601 
 321   0.0000       2.116109        57.5822 
 322   0.0000       2.120294        57.6961 
 323   0.0000       2.131916        58.0124 
 324   0.0000       2.138425        58.1895 
 325   0.0000       2.142316        58.2954 
 326   0.0000       2.158225        58.7283 
 327   0.0000       2.177877        59.2630 
 328   0.0000       2.185606        59.4734 
 329   0.0000       2.196455        59.7686 
 330   0.0000       2.202010        59.9197 
 331   0.0000       2.225674        60.5637 
 332   0.0000       2.245492        61.1029 
 333   0.0000       2.257322        61.4249 
 334   0.0000       2.272127        61.8277 
 335   0.0000       2.286637        62.2225 
 336   0.0000       2.300834        62.6089 
 337   0.0000       2.304212        62.7008 
 338   0.0000       2.332162        63.4614 
 339   0.0000       2.334473        63.5242 
 340   0.0000       2.363822        64.3229 
 341   0.0000       2.374022        64.6004 
 342   0.0000       2.385397        64.9100 
 343   0.0000       2.400590        65.3234 
 344   0.0000       2.419580        65.8401 
 345   0.0000       2.446790        66.5805 
 346   0.0000       2.451969        66.7215 
 347   0.0000       2.465422        67.0876 
 348   0.0000       2.496010        67.9199 
 349   0.0000       2.509526        68.2877 
 350   0.0000       2.510353        68.3102 
 351   0.0000       2.518182        68.5232 
 352   0.0000       2.526623        68.7529 
 353   0.0000       2.539028        69.0905 
 354   0.0000       2.556549        69.5672 
 355   0.0000       2.582462        70.2724 
 356   0.0000       2.605112        70.8887 
 357   0.0000       2.638922        71.8087 
 358   0.0000       2.656454        72.2858 
 359   0.0000       2.669664        72.6452 
 360   0.0000       2.685311        73.0710 
 361   0.0000       2.702225        73.5313 
 362   0.0000       2.709638        73.7330 
 363   0.0000       2.743945        74.6665 
 364   0.0000       2.766574        75.2823 
 365   0.0000       2.775434        75.5234 
 366   0.0000       2.795225        76.0619 
 367   0.0000       2.812002        76.5185 
 368   0.0000       2.858014        77.7705 
 369   0.0000       2.914165        79.2985 
 370   0.0000       2.925716        79.6128 
 371   0.0000       2.937956        79.9458 
 372   0.0000       2.942186        80.0610 
 373   0.0000       2.945998        80.1647 
 374   0.0000       2.972942        80.8979 
 375   0.0000       2.997298        81.5606 
 376   0.0000       3.023970        82.2864 
 377   0.0000       3.032222        82.5110 
 378   0.0000       3.047345        82.9225 
 379   0.0000       3.058565        83.2278 
 380   0.0000       3.070399        83.5498 
 381   0.0000       3.099070        84.3300 
 382   0.0000       3.125970        85.0620 
 383   0.0000       3.130566        85.1870 
 384   0.0000       3.151895        85.7674 
 385   0.0000       3.164882        86.1208 
 386   0.0000       3.181976        86.5860 
 387   0.0000       3.197017        86.9953 
 388   0.0000       3.207223        87.2730 
 389   0.0000       3.221207        87.6535 
 390   0.0000       3.261589        88.7524 
 391   0.0000       3.284076        89.3643 
 392   0.0000       3.313731        90.1712 
 393   0.0000       3.343797        90.9893 
 394   0.0000       3.358891        91.4001 
 395   0.0000       3.407192        92.7144 
 396   0.0000       3.430788        93.3565 
 397   0.0000       3.466001        94.3147 
 398   0.0000       3.515338        95.6572 
 399   0.0000       3.568344        97.0996 
 400   0.0000       3.607719        98.1710 
 401   0.0000       3.641208        99.0823 
 402   0.0000       3.797026       103.3223 
 403   0.0000       3.847534       104.6967 

                    ********************************
                    * MULLIKEN POPULATION ANALYSIS *
                    ********************************

-----------------------
MULLIKEN ATOMIC CHARGES
-----------------------
   0 C :    0.631824
   1 C :    0.515027
   2 C :    0.140680
   3 H :    0.159494
   4 H :   -0.231062
   5 S :    1.625824
   6 C :   -0.567957
   7 C :    0.664668
   8 N :    0.326795
   9 H :    0.001117
  10 H :   -0.185774
  11 H :    0.035836
  12 H :   -0.651999
  13 F :   -0.587397
  14 O :   -0.707132
  15 C :    0.398635
  16 C :    0.337735
  17 H :    0.018911
  18 H :   -0.049862
  19 C :   -0.010936
  20 H :   -0.012619
  21 H :   -0.146276
  22 O :   -0.809807
  23 H :   -0.053986
  24 H :   -0.206412
  25 H :   -0.411537
  26 H :   -0.100347
  27 H :    0.109162
  28 H :   -0.232605
Sum of atomic charges:   -0.0000000

--------------------------------
MULLIKEN REDUCED ORBITAL CHARGES
--------------------------------
  0 C s       :     2.511543  s :     2.511543
      pz      :     0.965983  p :     2.650748
      px      :     0.719096
      py      :     0.965669
      dz2     :     0.020854  d :     0.205885
      dxz     :    -0.004135
      dyz     :     0.116560
      dx2y2   :    -0.012502
      dxy     :     0.085109
  1 C s       :     2.565531  s :     2.565531
      pz      :     0.892390  p :     2.611934
      px      :     0.902452
      py      :     0.817093
      dz2     :     0.207434  d :     0.307508
      dxz     :     0.019659
      dyz     :     0.014950
      dx2y2   :     0.071859
      dxy     :    -0.006395
  2 C s       :     2.805156  s :     2.805156
      pz      :     0.955328  p :     2.795012
      px      :     0.994977
      py      :     0.844706
      dz2     :     0.056488  d :     0.259152
      dxz     :     0.074458
      dyz     :     0.033588
      dx2y2   :     0.056016
      dxy     :     0.038602
  3 H s       :     0.859324  s :     0.859324
      pz      :    -0.030962  p :    -0.018817
      px      :    -0.010400
      py      :     0.022546
  4 H s       :     1.219774  s :     1.219774
      pz      :     0.012061  p :     0.011288
      px      :    -0.007783
      py      :     0.007009
  5 S s       :     4.950069  s :     4.950069
      pz      :     2.925509  p :     8.708814
      px      :     2.726321
      py      :     3.056984
      dz2     :     0.066802  d :     0.715293
      dxz     :     0.189876
      dyz     :     0.191388
      dx2y2   :     0.148845
      dxy     :     0.118381
  6 C s       :     3.082313  s :     3.082313
      pz      :     0.842504  p :     2.631978
      px      :     0.921422
      py      :     0.868051
      dz2     :     0.138904  d :     0.853666
      dxz     :     0.434369
      dyz     :     0.039576
      dx2y2   :     0.183752
      dxy     :     0.057065
  7 C s       :     2.595897  s :     2.595897
      pz      :     0.549001  p :     2.587208
      px      :     1.116396
      py      :     0.921811
      dz2     :    -0.018944  d :     0.152227
      dxz     :     0.102657
      dyz     :    -0.008720
      dx2y2   :     0.022909
      dxy     :     0.054326
  8 N s       :     2.992769  s :     2.992769
      pz      :     1.048922  p :     3.656268
      px      :     1.104319
      py      :     1.503027
      dz2     :    -0.017642  d :     0.024168
      dxz     :     0.009362
      dyz     :     0.012737
      dx2y2   :    -0.002240
      dxy     :     0.021952
  9 H s       :     0.993599  s :     0.993599
      pz      :    -0.038557  p :     0.005284
      px      :    -0.017013
      py      :     0.060854
 10 H s       :     1.164454  s :     1.164454
      pz      :     0.048367  p :     0.021319
      px      :    -0.063630
      py      :     0.036582
 11 H s       :     1.019472  s :     1.019472
      pz      :    -0.056573  p :    -0.055309
      px      :    -0.013205
      py      :     0.014469
 12 H s       :     1.608750  s :     1.608750
      pz      :     0.091865  p :     0.043249
      px      :    -0.032180
      py      :    -0.016436
 13 F s       :     3.965006  s :     3.965006
      pz      :     1.991271  p :     5.588935
      px      :     1.663204
      py      :     1.934460
      dz2     :     0.000826  d :     0.033456
      dxz     :     0.018538
      dyz     :     0.004826
      dx2y2   :     0.007978
      dxy     :     0.001288
 14 O s       :     3.922405  s :     3.922405
      pz      :     1.213975  p :     4.755937
      px      :     1.760508
      py      :     1.781453
      dz2     :     0.003686  d :     0.028790
      dxz     :     0.013827
      dyz     :     0.008709
      dx2y2   :     0.002132
      dxy     :     0.000436
 15 C s       :     2.661494  s :     2.661494
      pz      :     0.934766  p :     2.555061
      px      :     0.706081
      py      :     0.914215
      dz2     :     0.105019  d :     0.384810
      dxz     :     0.066641
      dyz     :     0.092648
      dx2y2   :     0.060220
      dxy     :     0.060282
 16 C s       :     2.514646  s :     2.514646
      pz      :     0.767170  p :     2.640092
      px      :     0.954605
      py      :     0.918317
      dz2     :     0.065384  d :     0.507527
      dxz     :     0.230042
      dyz     :     0.036769
      dx2y2   :     0.081078
      dxy     :     0.094253
 17 H s       :     1.013523  s :     1.013523
      pz      :    -0.017745  p :    -0.032434
      px      :     0.040796
      py      :    -0.055485
 18 H s       :     1.092570  s :     1.092570
      pz      :    -0.019929  p :    -0.042707
      px      :    -0.045766
      py      :     0.022988
 19 C s       :     2.840163  s :     2.840163
      pz      :     0.927932  p :     2.639373
      px      :     0.938388
      py      :     0.773053
      dz2     :     0.140006  d :     0.531399
      dxz     :     0.245401
      dyz     :     0.010712
      dx2y2   :     0.120715
      dxy     :     0.014566
 20 H s       :     1.072932  s :     1.072932
      pz      :    -0.027688  p :    -0.060313
      px      :    -0.017576
      py      :    -0.015048
 21 H s       :     1.164175  s :     1.164175
      pz      :     0.023440  p :    -0.017899
      px      :    -0.019784
      py      :    -0.021555
 22 O s       :     3.996445  s :     3.996445
      pz      :     1.754335  p :     4.785164
      px      :     1.473928
      py      :     1.556900
      dz2     :    -0.001421  d :     0.028198
      dxz     :     0.006374
      dyz     :     0.008423
      dx2y2   :     0.006460
      dxy     :     0.008362
 23 H s       :     0.996137  s :     0.996137
      pz      :     0.045627  p :     0.057849
      px      :     0.054891
      py      :    -0.042669
 24 H s       :     1.214591  s :     1.214591
      pz      :    -0.034423  p :    -0.008179
      px      :    -0.025748
      py      :     0.051992
 25 H s       :     1.274510  s :     1.274510
      pz      :     0.012180  p :     0.137028
      px      :    -0.023585
      py      :     0.148433
 26 H s       :     1.126689  s :     1.126689
      pz      :     0.000015  p :    -0.026343
      px      :     0.021264
      py      :    -0.047621
 27 H s       :     0.895639  s :     0.895639
      pz      :    -0.000960  p :    -0.004801
      px      :     0.007636
      py      :    -0.011477
 28 H s       :     1.239059  s :     1.239059
      pz      :     0.008866  p :    -0.006455
      px      :     0.001758
      py      :    -0.017079


                     *******************************
                     * LOEWDIN POPULATION ANALYSIS *
                     *******************************

----------------------
LOEWDIN ATOMIC CHARGES
----------------------
   0 C :    0.029941
   1 C :   -0.023543
   2 C :   -0.024441
   3 H :    0.018442
   4 H :    0.024356
   5 S :    1.175005
   6 C :   -0.252130
   7 C :    0.177846
   8 N :    0.186378
   9 H :    0.010209
  10 H :   -0.037668
  11 H :   -0.072796
  12 H :   -0.118286
  13 F :   -0.297820
  14 O :   -0.460360
  15 C :   -0.007062
  16 C :   -0.016127
  17 H :    0.033211
  18 H :    0.036443
  19 C :   -0.024606
  20 H :    0.020813
  21 H :    0.019121
  22 O :   -0.477675
  23 H :   -0.008019
  24 H :    0.027785
  25 H :   -0.016216
  26 H :    0.034719
  27 H :    0.013181
  28 H :    0.029298

-------------------------------
LOEWDIN REDUCED ORBITAL CHARGES
-------------------------------
  0 C s       :     2.677880  s :     2.677880
      pz      :     0.891862  p :     2.678000
      px      :     0.898354
      py      :     0.887785
      dz2     :     0.113204  d :     0.614178
      dxz     :     0.104169
      dyz     :     0.154021
      dx2y2   :     0.101567
      dxy     :     0.141218
  1 C s       :     2.672560  s :     2.672560
      pz      :     0.884026  p :     2.688814
      px      :     0.892680
      py      :     0.912107
      dz2     :     0.186021  d :     0.662169
      dxz     :     0.158617
      dyz     :     0.120175
      dx2y2   :     0.129420
      dxy     :     0.067937
  2 C s       :     2.708862  s :     2.708862
      pz      :     0.940073  p :     2.718519
      px      :     0.945470
      py      :     0.832976
      dz2     :     0.129738  d :     0.597060
      dxz     :     0.110696
      dyz     :     0.122296
      dx2y2   :     0.111115
      dxy     :     0.123215
  3 H s       :     0.712374  s :     0.712374
      pz      :     0.079007  p :     0.269184
      px      :     0.108291
      py      :     0.081887
  4 H s       :     0.709419  s :     0.709419
      pz      :     0.107972  p :     0.266224
      px      :     0.079358
      py      :     0.078894
  5 S s       :     4.648377  s :     4.648377
      pz      :     2.814122  p :     8.365728
      px      :     2.717633
      py      :     2.833973
      dz2     :     0.408364  d :     1.810889
      dxz     :     0.384293
      dyz     :     0.365181
      dx2y2   :     0.351791
      dxy     :     0.301261
  6 C s       :     2.652327  s :     2.652327
      pz      :     0.869685  p :     2.547278
      px      :     0.914664
      py      :     0.762929
      dz2     :     0.223742  d :     1.052524
      dxz     :     0.251013
      dyz     :     0.152246
      dx2y2   :     0.234419
      dxy     :     0.191105
  7 C s       :     2.717602  s :     2.717602
      pz      :     0.912156  p :     2.743400
      px      :     0.931016
      py      :     0.900228
      dz2     :     0.074345  d :     0.361152
      dxz     :     0.104515
      dyz     :     0.042150
      dx2y2   :     0.061718
      dxy     :     0.078423
  8 N s       :     2.912607  s :     2.912607
      pz      :     1.072243  p :     3.492839
      px      :     1.104787
      py      :     1.315809
      dz2     :     0.123046  d :     0.408175
      dxz     :     0.068969
      dyz     :     0.063256
      dx2y2   :     0.085925
      dxy     :     0.066979
  9 H s       :     0.642082  s :     0.642082
      pz      :     0.086113  p :     0.347709
      px      :     0.146756
      py      :     0.114840
 10 H s       :     0.624749  s :     0.624749
      pz      :     0.173153  p :     0.412919
      px      :     0.105756
      py      :     0.134010
 11 H s       :     0.756574  s :     0.756574
      pz      :     0.102417  p :     0.316222
      px      :     0.093159
      py      :     0.120645
 12 H s       :     0.738052  s :     0.738052
      pz      :     0.168849  p :     0.380234
      px      :     0.105836
      py      :     0.105549
 13 F s       :     3.673180  s :     3.673180
      pz      :     1.817760  p :     5.337336
      px      :     1.668748
      py      :     1.850828
      dz2     :     0.051506  d :     0.287305
      dxz     :     0.083087
      dyz     :     0.024686
      dx2y2   :     0.061747
      dxy     :     0.066278
 14 O s       :     3.556915  s :     3.556915
      pz      :     1.409058  p :     4.662488
      px      :     1.616534
      py      :     1.636896
      dz2     :     0.090389  d :     0.240957
      dxz     :     0.062361
      dyz     :     0.070525
      dx2y2   :     0.006786
      dxy     :     0.010896
 15 C s       :     2.682411  s :     2.682411
      pz      :     0.894537  p :     2.673281
      px      :     0.905723
      py      :     0.873020
      dz2     :     0.119235  d :     0.651371
      dxz     :     0.121601
      dyz     :     0.147595
      dx2y2   :     0.136216
      dxy     :     0.126724
 16 C s       :     2.668438  s :     2.668438
      pz      :     0.873553  p :     2.678397
      px      :     0.897791
      py      :     0.907053
      dz2     :     0.130526  d :     0.669292
      dxz     :     0.187476
      dyz     :     0.105857
      dx2y2   :     0.156208
      dxy     :     0.089224
 17 H s       :     0.713323  s :     0.713323
      pz      :     0.068207  p :     0.253466
      px      :     0.104850
      py      :     0.080409
 18 H s       :     0.717933  s :     0.717933
      pz      :     0.063708  p :     0.245624
      px      :     0.064713
      py      :     0.117203
 19 C s       :     2.673571  s :     2.673571
      pz      :     0.885228  p :     2.671827
      px      :     0.895357
      py      :     0.891242
      dz2     :     0.144197  d :     0.679207
      dxz     :     0.189774
      dyz     :     0.096014
      dx2y2   :     0.159895
      dxy     :     0.089328
 20 H s       :     0.724450  s :     0.724450
      pz      :     0.069890  p :     0.254737
      px      :     0.116649
      py      :     0.068198
 21 H s       :     0.729951  s :     0.729951
      pz      :     0.091056  p :     0.250928
      px      :     0.096178
      py      :     0.063693
 22 O s       :     3.547848  s :     3.547848
      pz      :     1.634673  p :     4.665180
      px      :     1.477661
      py      :     1.552847
      dz2     :     0.044876  d :     0.264647
      dxz     :     0.045635
      dyz     :     0.043634
      dx2y2   :     0.061927
      dxy     :     0.068575
 23 H s       :     0.702439  s :     0.702439
      pz      :     0.111357  p :     0.305579
      px      :     0.103024
      py      :     0.091198
 24 H s       :     0.727627  s :     0.727627
      pz      :     0.065703  p :     0.244588
      px      :     0.061768
      py      :     0.117117
 25 H s       :     0.698854  s :     0.698854
      pz      :     0.095329  p :     0.317362
      px      :     0.075784
      py      :     0.146249
 26 H s       :     0.724671  s :     0.724671
      pz      :     0.086307  p :     0.240610
      px      :     0.089547
      py      :     0.064756
 27 H s       :     0.726177  s :     0.726177
      pz      :     0.070847  p :     0.260642
      px      :     0.116445
      py      :     0.073350
 28 H s       :     0.722792  s :     0.722792
      pz      :     0.090303  p :     0.247911
      px      :     0.089140
      py      :     0.068467


                      *****************************
                      * MAYER POPULATION ANALYSIS *
                      *****************************

  NA   - Mulliken gross atomic population
  ZA   - Total nuclear charge
  QA   - Mulliken gross atomic charge
  VA   - Mayer's total valence
  BVA  - Mayer's bonded valence
  FA   - Mayer's free valence

  ATOM       NA         ZA         QA         VA         BVA        FA
  0 C      5.3682     6.0000     0.6318     4.0281     4.0281    -0.0000
  1 C      5.4850     6.0000     0.5150     4.2230     4.2230     0.0000
  2 C      5.8593     6.0000     0.1407     4.4574     4.4574    -0.0000
  3 H      0.8405     1.0000     0.1595     0.9236     0.9236    -0.0000
  4 H      1.2311     1.0000    -0.2311     1.0716     1.0716    -0.0000
  5 S     14.3742    16.0000     1.6258     4.5948     4.5948    -0.0000
  6 C      6.5680     6.0000    -0.5680     5.5611     5.5611     0.0000
  7 C      5.3353     6.0000     0.6647     3.6081     3.6081     0.0000
  8 N      6.6732     7.0000     0.3268     3.5190     3.5190     0.0000
  9 H      0.9989     1.0000     0.0011     0.8334     0.8334     0.0000
 10 H      1.1858     1.0000    -0.1858     0.8843     0.8843     0.0000
 11 H      0.9642     1.0000     0.0358     0.8201     0.8201     0.0000
 12 H      1.6520     1.0000    -0.6520     0.7916     0.7916     0.0000
 13 F      9.5874     9.0000    -0.5874     1.1858     1.1858    -0.0000
 14 O      8.7071     8.0000    -0.7071     1.5866     1.5866    -0.0000
 15 C      5.6014     6.0000     0.3986     4.4125     4.4125    -0.0000
 16 C      5.6623     6.0000     0.3377     4.7461     4.7461     0.0000
 17 H      0.9811     1.0000     0.0189     0.9172     0.9172    -0.0000
 18 H      1.0499     1.0000    -0.0499     0.9026     0.9026     0.0000
 19 C      6.0109     6.0000    -0.0109     5.0720     5.0720    -0.0000
 20 H      1.0126     1.0000    -0.0126     0.8168     0.8168    -0.0000
 21 H      1.1463     1.0000    -0.1463     0.9366     0.9366    -0.0000
 22 O      8.8098     8.0000    -0.8098     1.7262     1.7262    -0.0000
 23 H      1.0540     1.0000    -0.0540     1.1807     1.1807     0.0000
 24 H      1.2064     1.0000    -0.2064     1.0285     1.0285     0.0000
 25 H      1.4115     1.0000    -0.4115     1.2177     1.2177     0.0000
 26 H      1.1003     1.0000    -0.1003     0.9418     0.9418     0.0000
 27 H      0.8908     1.0000     0.1092     0.9181     0.9181     0.0000
 28 H      1.2326     1.0000    -0.2326     0.9742     0.9742    -0.0000

  Mayer bond orders larger than 0.100000
B(  0-C ,  6-C ) :   1.2673 B(  0-C , 15-C ) :   1.1082 B(  0-C , 21-H ) :   0.1860 
B(  0-C , 27-H ) :   0.5553 B(  0-C , 28-H ) :   0.7334 B(  1-C ,  2-C ) :   1.2280 
B(  1-C ,  4-H ) :   0.1978 B(  1-C , 16-C ) :   1.2560 B(  1-C , 17-H ) :   0.6660 
B(  1-C , 18-H ) :   0.7502 B(  2-C ,  3-H ) :   0.8556 B(  2-C ,  4-H ) :   0.9252 
B(  2-C ,  5-S ) :   0.9355 B(  2-C , 17-H ) :   0.1090 B(  2-C , 18-H ) :   0.1479 
B(  5-S , 13-F ) :   0.5805 B(  5-S , 14-O ) :   1.5270 B(  5-S , 22-O ) :   1.4415 
B(  6-C ,  7-C ) :   2.2744 B(  6-C ,  8-N ) :   0.9413 B(  6-C , 11-H ) :   0.1026 
B(  6-C , 12-H ) :   0.3594 B(  6-C , 27-H ) :   0.2993 B(  6-C , 28-H ) :   0.2595 
B(  7-C ,  8-N ) :   0.3457 B(  7-C , 11-H ) :   0.5926 B(  7-C , 12-H ) :   0.3531 
B(  8-N ,  9-H ) :   0.9109 B(  8-N , 10-H ) :   0.9760 B(  8-N , 11-H ) :   0.2127 
B(  8-N , 12-H ) :  -0.1193 B(  9-H , 10-H ) :  -0.1608 B( 10-H , 12-H ) :   0.1094 
B( 11-H , 12-H ) :  -0.1025 B( 12-H , 13-F ) :   0.3086 B( 15-C , 19-C ) :   1.2215 
B( 15-C , 20-H ) :   0.6867 B( 15-C , 21-H ) :   0.8356 B( 15-C , 23-H ) :   0.1470 
B( 15-C , 27-H ) :   0.1408 B( 16-C , 17-H ) :   0.2836 B( 16-C , 19-C ) :   1.2115 
B( 16-C , 23-H ) :   0.1308 B( 16-C , 24-H ) :   0.1651 B( 16-C , 25-H ) :   0.8732 
B( 16-C , 26-H ) :   0.7166 B( 17-H , 18-H ) :  -0.1433 B( 19-C , 20-H ) :   0.2719 
B( 19-C , 21-H ) :   0.1830 B( 19-C , 23-H ) :   0.8730 B( 19-C , 24-H ) :   0.8710 
B( 19-C , 25-H ) :   0.1640 B( 19-C , 26-H ) :   0.2326 B( 20-H , 21-H ) :  -0.1767 


-------
TIMINGS
-------

Total SCF time: 0 days 0 hours 2 min 32 sec 

Total time                  ....     152.541 sec
Sum of individual times     ....     152.048 sec  ( 99.7%)

Fock matrix formation       ....     147.408 sec  ( 96.6%)
  Split-RI-J                ....       8.804 sec  (  6.0% of F)
  Chain of spheres X        ....      98.762 sec  ( 67.0% of F)
  XC integration            ....      39.689 sec  ( 26.9% of F)
    Basis function eval.    ....       4.844 sec  ( 12.2% of XC)
    Density eval.           ....      15.420 sec  ( 38.9% of XC)
    XC-Functional eval.     ....       0.993 sec  (  2.5% of XC)
    XC-Potential eval.      ....      17.759 sec  ( 44.7% of XC)
Diagonalization             ....       0.340 sec  (  0.2%)
Density matrix formation    ....       0.024 sec  (  0.0%)
Population analysis         ....       0.039 sec  (  0.0%)
Initial guess               ....       0.796 sec  (  0.5%)
Orbital Transformation      ....       0.000 sec  (  0.0%)
Orbital Orthonormalization  ....       0.000 sec  (  0.0%)
DIIS solution               ....       0.169 sec  (  0.1%)
SOSCF solution              ....       0.210 sec  (  0.1%)
Grid generation             ....       3.061 sec  (  2.0%)

Maximum memory used throughout the entire SCF-calculation: 85.0 MB


-------------------------------------------------------------------------------
                          DFT DISPERSION CORRECTION                            
                                                                               
                              DFTD3 V3.1  Rev 1                                
                              USING zero damping                               
-------------------------------------------------------------------------------
The M062X functional is recognized
Active option DFTDOPT                   ...         3   

molecular C6(AA) [au] = 7805.709484 


            DFT-D V3
 parameters
 s6 scaling factor         :     1.0000 
 rs6 scaling factor        :     1.6190 
 s8 scaling factor         :     0.0000 
 rs8 scaling factor        :     1.0000 
 Damping factor alpha6     :    14.0000 
 Damping factor alpha8     :    16.0000 
 ad hoc parameters k1-k3   :    16.0000     1.3333    -4.0000 

 Edisp/kcal,au: -1.044677863146  -0.001664799967 
 E6   /kcal   :  -1.044677863 
 E8   /kcal   :  -0.000000000 
 % E8         :   0.000000000 

-------------------------   ----------------
Dispersion correction           -0.001664800
-------------------------   ----------------


-------------------------   --------------------
FINAL SINGLE POINT ENERGY     -1016.760786550498
-------------------------   --------------------


                            ***************************************
                            *     ORCA property calculations      *
                            ***************************************

                                    ---------------------
                                    Active property flags
                                    ---------------------
   (+) Dipole Moment


------------------------------------------------------------------------------
                       ORCA ELECTRIC PROPERTIES CALCULATION
------------------------------------------------------------------------------

Dipole Moment Calculation                       ... on
Quadrupole Moment Calculation                   ... off
Polarizability Calculation                      ... off
GBWName                                         ... 28Oct_SVPD_M062X_D1_wb97.gbw
Electron density file                           ... 28Oct_SVPD_M062X_D1_wb97.scfp
The origin for moment calculation is the CENTER OF MASS  = ( 4.608342, -0.463887 -8.384756)

-------------
DIPOLE MOMENT
-------------
                                X             Y             Z
Electronic contribution:      2.13552      -4.88091     -18.51433
Nuclear contribution   :     -2.89481       6.29550      19.36835
                        -----------------------------------------
Total Dipole Moment    :     -0.75930       1.41459       0.85403
                        -----------------------------------------
Magnitude (a.u.)       :      1.81851
Magnitude (Debye)      :      4.62228



--------------------
Rotational spectrum 
--------------------
 
Rotational constants in cm-1:     0.036515     0.018832     0.015081 
Rotational constants in MHz :  1094.679513   564.567051   452.109105 

 Dipole components along the rotational axes: 
x,y,z [a.u.] :     0.473499     1.739660    -0.237381 
x,y,z [Debye]:     1.203538     4.421865    -0.603375 

 

Timings for individual modules:

Sum of individual times         ...      153.629 sec (=   2.560 min)
GTO integral calculation        ...        0.714 sec (=   0.012 min)   0.5 %
SCF iterations                  ...      152.915 sec (=   2.549 min)  99.5 %
                             ****ORCA TERMINATED NORMALLY****
TOTAL RUN TIME: 0 days 0 hours 2 minutes 34 seconds 233 msec
