
                                        *****************
                                        * O   R   C   A *
                                        *****************

                                            #,                                       
                                            ###                                      
                                            ####                                     
                                            #####                                    
                                            ######                                   
                                           ########,                                 
                                     ,,################,,,,,                         
                               ,,#################################,,                 
                          ,,##########################################,,             
                       ,#########################################, ''#####,          
                    ,#############################################,,   '####,        
                  ,##################################################,,,,####,       
                ,###########''''           ''''###############################       
              ,#####''   ,,,,##########,,,,          '''####'''          '####       
            ,##' ,,,,###########################,,,                        '##       
           ' ,,###''''                  '''############,,,                           
         ,,##''                                '''############,,,,        ,,,,,,###''
      ,#''                                            '''#######################'''  
     '                                                          ''''####''''         
             ,#######,   #######,   ,#######,      ##                                
            ,#'     '#,  ##    ##  ,#'     '#,    #''#        ######   ,####,        
            ##       ##  ##   ,#'  ##            #'  '#       #        #'  '#        
            ##       ##  #######   ##           ,######,      #####,   #    #        
            '#,     ,#'  ##    ##  '#,     ,#' ,#      #,         ##   #,  ,#        
             '#######'   ##     ##  '#######'  #'      '#     #####' # '####'        



                  #######################################################
                  #                        -***-                        #
                  #          Department of theory and spectroscopy      #
                  #    Directorship and core code : Frank Neese         #
                  #        Max Planck Institute fuer Kohlenforschung    #
                  #                Kaiser Wilhelm Platz 1               #
                  #                 D-45470 Muelheim/Ruhr               #
                  #                      Germany                        #
                  #                                                     #
                  #                  All rights reserved                #
                  #                        -***-                        #
                  #######################################################


                         Program Version 5.0.0 -  RELEASE  -
                                (SVN: $Rev: 19529$)
                ($Date: 2021-06-28 11:36:33 +0200 (Mo, 28 Jun 2021) $)


 With contributions from (in alphabetic order):
   Daniel Aravena         : Magnetic Suceptibility
   Michael Atanasov       : Ab Initio Ligand Field Theory (pilot matlab implementation)
   Alexander A. Auer      : GIAO ZORA, VPT2 properties, NMR spectrum
   Ute Becker             : Parallelization
   Giovanni Bistoni       : ED, misc. LED, open-shell LED, HFLD
   Martin Brehm           : Molecular dynamics
   Dmytro Bykov           : SCF Hessian
   Vijay G. Chilkuri      : MRCI spin determinant printing, contributions to CSF-ICE
   Dipayan Datta          : RHF DLPNO-CCSD density
   Achintya Kumar Dutta   : EOM-CC, STEOM-CC
   Dmitry Ganyushin       : Spin-Orbit,Spin-Spin,Magnetic field MRCI
   Miquel Garcia          : C-PCM Hessian, Gaussian charge scheme
   Yang Guo               : DLPNO-NEVPT2, F12-NEVPT2, CIM, IAO-localization
   Andreas Hansen         : Spin unrestricted coupled pair/coupled cluster methods
   Benjamin Helmich-Paris : MC-RPA, TRAH-SCF, COSX integrals
   Lee Huntington         : MR-EOM, pCC
   Robert Izsak           : Overlap fitted RIJCOSX, COSX-SCS-MP3, EOM
   Marcus Kettner         : VPT2
   Christian Kollmar      : KDIIS, OOCD, Brueckner-CCSD(T), CCSD density, CASPT2, CASPT2-K
   Simone Kossmann        : Meta GGA functionals, TD-DFT gradient, OOMP2, MP2 Hessian
   Martin Krupicka        : Initial AUTO-CI
   Lucas Lang             : DCDCAS
   Marvin Lechner         : AUTO-CI (C++ implementation), FIC-MRCC
   Dagmar Lenk            : GEPOL surface, SMD
   Dimitrios Liakos       : Extrapolation schemes; Compound Job, initial MDCI parallelization
   Dimitrios Manganas     : Further ROCIS development; embedding schemes
   Dimitrios Pantazis     : SARC Basis sets
   Anastasios Papadopoulos: AUTO-CI, single reference methods and gradients
   Taras Petrenko         : DFT Hessian,TD-DFT gradient, ASA, ECA, R-Raman, ABS, FL, XAS/XES, NRVS
   Peter Pinski           : DLPNO-MP2, DLPNO-MP2 Gradient
   Christoph Reimann      : Effective Core Potentials
   Marius Retegan         : Local ZFS, SOC
   Christoph Riplinger    : Optimizer, TS searches, QM/MM, DLPNO-CCSD(T), (RO)-DLPNO pert. Triples
   Tobias Risthaus        : Range-separated hybrids, TD-DFT gradient, RPA, STAB
   Michael Roemelt        : Original ROCIS implementation
   Masaaki Saitow         : Open-shell DLPNO-CCSD energy and density
   Barbara Sandhoefer     : DKH picture change effects
   Avijit Sen             : IP-ROCIS
   Kantharuban Sivalingam : CASSCF convergence, NEVPT2, FIC-MRCI
   Bernardo de Souza      : ESD, SOC TD-DFT
   Georgi Stoychev        : AutoAux, RI-MP2 NMR
   Willem Van den Heuvel  : Paramagnetic NMR
   Boris Wezisla          : Elementary symmetry handling
   Frank Wennmohs         : Technical directorship


 We gratefully acknowledge several colleagues who have allowed us to
 interface, adapt or use parts of their codes:
   Stefan Grimme, W. Hujo, H. Kruse, P. Pracht,  : VdW corrections, initial TS optimization,
                  C. Bannwarth, S. Ehlert          DFT functionals, gCP, sTDA/sTD-DF
   Ed Valeev, F. Pavosevic, A. Kumar             : LibInt (2-el integral package), F12 methods
   Garnet Chan, S. Sharma, J. Yang, R. Olivares  : DMRG
   Ulf Ekstrom                                   : XCFun DFT Library
   Mihaly Kallay                                 : mrcc  (arbitrary order and MRCC methods)
   Jiri Pittner, Ondrej Demel                    : Mk-CCSD
   Frank Weinhold                                : gennbo (NPA and NBO analysis)
   Christopher J. Cramer and Donald G. Truhlar   : smd solvation model
   Lars Goerigk                                  : TD-DFT with DH, B97 family of functionals
   V. Asgeirsson, H. Jonsson                     : NEB implementation
   FAccTs GmbH                                   : IRC, NEB, NEB-TS, DLPNO-Multilevel, CI-OPT
                                                   MM, QMMM, 2- and 3-layer-ONIOM, Crystal-QMMM,
                                                   LR-CPCM, SF, NACMEs, symmetry and pop. for TD-DFT,
                                                   nearIR, NL-DFT gradient (VV10), updates on ESD,
                                                   ML-optimized integration grids
   S Lehtola, MJT Oliveira, MAL Marques          : LibXC Library
   Liviu Ungur et al                             : ANISO software


 Your calculation uses the libint2 library for the computation of 2-el integrals
 For citations please refer to: http://libint.valeyev.net

 Your ORCA version has been built with support for libXC version: 5.1.0
 For citations please refer to: https://tddft.org/programs/libxc/

 This ORCA versions uses:
   CBLAS   interface :  Fast vector & matrix operations
   LAPACKE interface :  Fast linear algebra routines
   SCALAPACK package :  Parallel linear algebra routines
   Shared memory     :  Shared parallel matrices
   BLAS/LAPACK       :  OpenBLAS 0.3.15  USE64BITINT DYNAMIC_ARCH NO_AFFINITY Haswell SINGLE_THREADED
        Core in use  :  Haswell
   Copyright (c) 2011-2014, The OpenBLAS Project




***************************************
The coordinates will be read from file: D.xyz
***************************************


Your calculation utilizes the atom-pairwise dispersion correction
with the zero-damping scheme (D30)
Cite in your paper:
S.Grimme, J.Antony, S.Ehrlich and H.Krieg, J.Chem.Phys., 132, (2010), 154104 
   

XCFun DFT library Copyright 2009-2010 Ulf Ekstrom and contributors.
See http://admol.org/xcfun for more information.
This is free software; see the source code for copying conditions.
There is ABSOLUTELY NO WARRANTY; not even for MERCHANTABILITY or FITNESS FOR A PARTICULAR PURPOSE.
For details see the documentation.
Scientific users of this library should cite U. Ekstrom, L. Visscher, R. Bast, A. J. Thorvaldsen and K. Ruud;
J.Chem.Theor.Comp. 2010, DOI: 10.1021/ct100117s
XCFun Version 0.99 

================================================================================

----- Orbital basis set information -----
Your calculation utilizes the basis: def2-SVPD
   F. Weigend and R. Ahlrichs, Phys. Chem. Chem. Phys. 7, 3297 (2005).
   D. Rappoport and F. Furche, J. Chem. Phys. 133 134105 (2010).

----- AuxJ basis set information -----
Your calculation utilizes the auxiliary basis: def2/J
   F. Weigend, Phys. Chem. Chem. Phys. 8, 1057 (2006).

================================================================================
                                        WARNINGS
                       Please study these warnings very carefully!
================================================================================


INFO   : the flag for use of the SHARK integral package has been found!

================================================================================
                                       INPUT FILE
================================================================================
NAME = D_wt_wb97.com
|  1> !wB97X-D3 RIJCOSX def2-SVPD def2/J TightSCF CPCM(Water) xyzfile        
|  2> 
|  3> *xyzfile 0 1 D.xyz
|  4> 
|  5> %MaxCore 64000
|  6> 
|  7> %pal nprocs 18                                                                                                                                                  
|  8> end  
|  9> 
| 10> %scf
| 11>   MaxIter 150
| 12> end
| 13> 
| 14> 
| 15>                          ****END OF INPUT****
================================================================================

                       ****************************
                       * Single Point Calculation *
                       ****************************

---------------------------------
CARTESIAN COORDINATES (ANGSTROEM)
---------------------------------
  C      3.956426    0.501466   -0.379100
  H      3.168398    0.029201    0.207383
  C      3.803893    1.961572   -0.156747
  C      3.842322    0.148490   -1.854058
  H      4.923231    0.177982    0.009371
  H      4.620021    0.694502   -2.402150
  H      4.096015   -0.910930   -1.955103
  C      2.475619    0.412708   -2.485377
  H      2.174689    1.445076   -2.287971
  C      1.383931   -0.532740   -1.995203
  H      2.575613    0.318574   -3.571460
  H      1.264698   -0.412309   -0.915491
  H      1.705223   -1.566885   -2.164984
  C      0.031398   -0.317260   -2.677791
  C     -0.587292    1.060853   -2.436460
  H     -0.662815   -1.089530   -2.329985
  H      0.149465   -0.478040   -3.755648
  H      0.104376    1.828590   -2.793130
  C     -0.951213    1.334978   -0.972500
  H     -1.478832    1.161355   -3.062484
  H     -0.317007    0.741648   -0.311389
  H     -1.980916    1.012842   -0.788958
  C     -0.774550    2.788332   -0.543943
  H     -1.352609    3.459372   -1.192585
  H     -1.171014    2.902331    0.469968
  C      0.697208    3.227911   -0.525126
  F      1.489294    2.374703    0.199189
  H      0.715998    4.264030   -0.130774
  H      1.036148    3.330920   -1.583669
  H      4.206425    2.244406    0.745359
  H      2.808269    2.211323   -0.096097
  H      4.280757    2.501552   -0.891037

----------------------------
CARTESIAN COORDINATES (A.U.)
----------------------------
  NO LB      ZA    FRAG     MASS         X           Y           Z
   0 C     6.0000    0    12.011    7.476561    0.947633   -0.716396
   1 H     1.0000    0     1.008    5.987405    0.055183    0.391897
   2 C     6.0000    0    12.011    7.188316    3.706835   -0.296209
   3 C     6.0000    0    12.011    7.260937    0.280606   -3.503662
   4 H     1.0000    0     1.008    9.303558    0.336336    0.017709
   5 H     1.0000    0     1.008    8.730574    1.312418   -4.539406
   6 H     1.0000    0     1.008    7.740346   -1.721408   -3.694610
   7 C     6.0000    0    12.011    4.678241    0.779904   -4.696682
   8 H     1.0000    0     1.008    4.109567    2.730798   -4.323639
   9 C     6.0000    0    12.011    2.615251   -1.006733   -3.770387
  10 H     1.0000    0     1.008    4.867203    0.602019   -6.749081
  11 H     1.0000    0     1.008    2.389933   -0.779151   -1.730028
  12 H     1.0000    0     1.008    3.222404   -2.960983   -4.091227
  13 C     6.0000    0    12.011    0.059334   -0.599535   -5.060291
  14 C     6.0000    0    12.011   -1.109820    2.004721   -4.604242
  15 H     1.0000    0     1.008   -1.252539   -2.058914   -4.403033
  16 H     1.0000    0     1.008    0.282447   -0.903365   -7.097147
  17 H     1.0000    0     1.008    0.197242    3.455535   -5.278251
  18 C     6.0000    0    12.011   -1.797531    2.522743   -1.837758
  19 H     1.0000    0     1.008   -2.794587    2.194642   -5.787255
  20 H     1.0000    0     1.008   -0.599056    1.401512   -0.588441
  21 H     1.0000    0     1.008   -3.743390    1.913994   -1.490915
  22 C     6.0000    0    12.011   -1.463687    5.269184   -1.027904
  23 H     1.0000    0     1.008   -2.556060    6.537265   -2.253660
  24 H     1.0000    0     1.008   -2.212896    5.484610    0.888111
  25 C     6.0000    0    12.011    1.317533    6.099868   -0.992345
  26 F     9.0000    0    18.998    2.814358    4.487537    0.376413
  27 H     1.0000    0     1.008    1.353041    8.057849   -0.247127
  28 H     1.0000    0     1.008    1.958035    6.294527   -2.992701
  29 H     1.0000    0     1.008    7.948992    4.241312    1.408525
  30 H     1.0000    0     1.008    5.306860    4.178795   -0.181597
  31 H     1.0000    0     1.008    8.089457    4.727247   -1.683816

--------------------------------
INTERNAL COORDINATES (ANGSTROEM)
--------------------------------
 C      0   0   0     0.000000000000     0.00000000     0.00000000
 H      1   0   0     1.089946386736     0.00000000     0.00000000
 C      1   2   0     1.484795980114   105.73767240     0.00000000
 C      1   2   3     1.520891583052   111.53263764   238.68845697
 H      1   2   3     1.090992469467   108.70094992   117.16590861
 H      4   1   2     1.096972067914   108.41177860   176.73616583
 H      4   1   2     1.094048394116   107.27220002   290.50889358
 C      4   1   2     1.528481039223   115.31071539    52.98571734
 H      8   4   1     1.093303169447   109.55828632    52.65607182
 C      8   4   1     1.525097781162   113.58676240   290.13497629
 H      8   4   1     1.094731013971   108.25438280   168.51656259
 H     10   8   4     1.092930262592   109.10494017    60.80495737
 H     10   8   4     1.096133958118   108.98194218   304.53969952
 C     10   8   4     1.530262426597   113.70443570   182.94708839
 C     14  10   8     1.529775752203   114.45280313   297.48522040
 H     14  10   8     1.095126888907   108.62193335   175.18333491
 H     14  10   8     1.096160153195   108.82984409    60.10288901
 H     15  14  10     1.093178033006   108.98449960    58.52341285
 C     15  14  10     1.533219883795   114.05976958   295.64188075
 H     15  14  10     1.094006222607   108.78813739   172.87791078
 H     19  15  14     1.091478036038   110.07394216    26.26766594
 H     19  15  14     1.094417261501   109.31898935   269.53880143
 C     19  15  14     1.525486001193   114.27328780   145.76196442
 H     23  19  15     1.097808523453   110.81692127    56.04004437
 H     23  19  15     1.094621343925   108.51134162   173.28296627
 C     23  19  15     1.536116985972   112.76973073   292.64697585
 F     26  23  19     1.371130131829   112.45056163   308.05816608
 H     26  23  19     1.108786897830   106.73832820   184.14541170
 H     26  23  19     1.116245400496   107.80097515    72.66078514
 H      3   1   2     1.027532611813   111.21736672    79.20415484
 H      3   1   2     1.028260830531   110.31307706   322.98023061
 H      3   1   2     1.028668136143   111.20347886   198.97165888

---------------------------
INTERNAL COORDINATES (A.U.)
---------------------------
 C      0   0   0     0.000000000000     0.00000000     0.00000000
 H      1   0   0     2.059700171588     0.00000000     0.00000000
 C      1   2   0     2.805857767163   105.73767240     0.00000000
 C      1   2   3     2.874068571354   111.53263764   238.68845697
 H      1   2   3     2.061676981462   108.70094992   117.16590861
 H      4   1   2     2.072976784918   108.41177860   176.73616583
 H      4   1   2     2.067451842136   107.27220002   290.50889358
 C      4   1   2     2.888410565023   115.31071539    52.98571734
 H      8   4   1     2.066043571603   109.55828632    52.65607182
 C      8   4   1     2.882017133847   113.58676240   290.13497629
 H      8   4   1     2.068741806714   108.25438280   168.51656259
 H     10   8   4     2.065338879773   109.10494017    60.80495737
 H     10   8   4     2.071392986934   108.98194218   304.53969952
 C     10   8   4     2.891776899298   113.70443570   182.94708839
 C     14  10   8     2.890857217978   114.45280313   297.48522040
 H     14  10   8     2.069489901927   108.62193335   175.18333491
 H     14  10   8     2.071442488456   108.82984409    60.10288901
 H     15  14  10     2.065807098001   108.98449960    58.52341285
 C     15  14  10     2.897365683455   114.05976958   295.64188075
 H     15  14  10     2.067372149532   108.78813739   172.87791078
 H     19  15  14     2.062594569302   110.07394216    26.26766594
 H     19  15  14     2.068148900472   109.31898935   269.53880143
 C     19  15  14     2.882750763385   114.27328780   145.76196442
 H     23  19  15     2.074557456810   110.81692127    56.04004437
 H     23  19  15     2.068534560363   108.51134162   173.28296627
 C     23  19  15     2.902840413152   112.76973073   292.64697585
 F     26  23  19     2.591060443124   112.45056163   308.05816608
 H     26  23  19     2.095303577779   106.73832820   184.14541170
 H     26  23  19     2.109398105186   107.80097515    72.66078514
 H      3   1   2     1.941755229999   111.21736672    79.20415484
 H      3   1   2     1.943131363941   110.31307706   322.98023061
 H      3   1   2     1.943901060001   111.20347886   198.97165888

---------------------
BASIS SET INFORMATION
---------------------
There are 3 groups of distinct atoms

 Group   1 Type C   : 8s4p2d contracted to 4s2p2d pattern {5111/31/11}
 Group   2 Type H   : 4s2p contracted to 2s2p pattern {31/11}
 Group   3 Type F   : 8s5p2d contracted to 4s3p2d pattern {5111/311/11}

Atom   0C    basis set group =>   1
Atom   1H    basis set group =>   2
Atom   2C    basis set group =>   1
Atom   3C    basis set group =>   1
Atom   4H    basis set group =>   2
Atom   5H    basis set group =>   2
Atom   6H    basis set group =>   2
Atom   7C    basis set group =>   1
Atom   8H    basis set group =>   2
Atom   9C    basis set group =>   1
Atom  10H    basis set group =>   2
Atom  11H    basis set group =>   2
Atom  12H    basis set group =>   2
Atom  13C    basis set group =>   1
Atom  14C    basis set group =>   1
Atom  15H    basis set group =>   2
Atom  16H    basis set group =>   2
Atom  17H    basis set group =>   2
Atom  18C    basis set group =>   1
Atom  19H    basis set group =>   2
Atom  20H    basis set group =>   2
Atom  21H    basis set group =>   2
Atom  22C    basis set group =>   1
Atom  23H    basis set group =>   2
Atom  24H    basis set group =>   2
Atom  25C    basis set group =>   1
Atom  26F    basis set group =>   3
Atom  27H    basis set group =>   2
Atom  28H    basis set group =>   2
Atom  29H    basis set group =>   2
Atom  30H    basis set group =>   2
Atom  31H    basis set group =>   2
---------------------------------
AUXILIARY/J BASIS SET INFORMATION
---------------------------------
There are 3 groups of distinct atoms

 Group   1 Type C   : 12s5p4d2f1g contracted to 6s4p3d1f1g pattern {711111/2111/211/2/1}
 Group   2 Type H   : 5s2p1d contracted to 3s1p1d pattern {311/2/1}
 Group   3 Type F   : 12s5p4d2f1g contracted to 6s4p3d1f1g pattern {711111/2111/211/2/1}

Atom   0C    basis set group =>   1
Atom   1H    basis set group =>   2
Atom   2C    basis set group =>   1
Atom   3C    basis set group =>   1
Atom   4H    basis set group =>   2
Atom   5H    basis set group =>   2
Atom   6H    basis set group =>   2
Atom   7C    basis set group =>   1
Atom   8H    basis set group =>   2
Atom   9C    basis set group =>   1
Atom  10H    basis set group =>   2
Atom  11H    basis set group =>   2
Atom  12H    basis set group =>   2
Atom  13C    basis set group =>   1
Atom  14C    basis set group =>   1
Atom  15H    basis set group =>   2
Atom  16H    basis set group =>   2
Atom  17H    basis set group =>   2
Atom  18C    basis set group =>   1
Atom  19H    basis set group =>   2
Atom  20H    basis set group =>   2
Atom  21H    basis set group =>   2
Atom  22C    basis set group =>   1
Atom  23H    basis set group =>   2
Atom  24H    basis set group =>   2
Atom  25C    basis set group =>   1
Atom  26F    basis set group =>   3
Atom  27H    basis set group =>   2
Atom  28H    basis set group =>   2
Atom  29H    basis set group =>   2
Atom  30H    basis set group =>   2
Atom  31H    basis set group =>   2


           ************************************************************
           *        Program running with 18 parallel MPI-processes    *
           *              working on a common directory               *
           ************************************************************
------------------------------------------------------------------------------
                           ORCA GTO INTEGRAL CALCULATION
                           -- RI-GTO INTEGRALS CHOSEN --
------------------------------------------------------------------------------
------------------------------------------------------------------------------
                   ___                                                        
                  /   \      - P O W E R E D   B Y -                         
                 /     \                                                     
                 |  |  |   _    _      __       _____    __    __             
                 |  |  |  | |  | |    /  \     |  _  \  |  |  /  |          
                  \  \/   | |  | |   /    \    | | | |  |  | /  /          
                 / \  \   | |__| |  /  /\  \   | |_| |  |  |/  /          
                |  |  |   |  __  | /  /__\  \  |    /   |      \           
                |  |  |   | |  | | |   __   |  |    \   |  |\   \          
                \     /   | |  | | |  |  |  |  | |\  \  |  | \   \       
                 \___/    |_|  |_| |__|  |__|  |_| \__\ |__|  \__/        
                                                                              
                      - O R C A' S   B I G   F R I E N D -                    
                                      &                                       
                       - I N T E G R A L  F E E D E R -                       
                                                                              
 v1 FN, 2020, v2 2021                                                         
------------------------------------------------------------------------------


Reading SHARK input file D_wt_wb97.SHARKINP.tmp ... ok
----------------------
SHARK INTEGRAL PACKAGE
----------------------

Number of atoms                             ...     32
Number of basis functions                   ...    391
Number of shells                            ...    173
Maximum angular momentum                    ...      2
Integral batch strategy                     ... SHARK/LIBINT Hybrid
RI-J (if used) integral strategy            ... SPLIT-RIJ (Revised 2003 algorithm where possible)
Printlevel                                  ...      1
Contraction scheme used                     ... SEGMENTED contraction
Coulomb Range Separation                    ... NOT USED
Exchange Range Separation                   ... Long Range
   Mu parameter                             ...  0.250000
   Scaling (regular/separated)              ...  0.195728  0.804272
Finite Nucleus Model                        ... NOT USED
Auxiliary Coulomb fitting basis             ... AVAILABLE
   # of basis functions in Aux-J            ...    770
   # of shells in Aux-J                     ...    270
   Maximum angular momentum in Aux-J        ...      4
Auxiliary J/K fitting basis                 ... NOT available
Auxiliary Correlation fitting basis         ... NOT available
Auxiliary 'external' fitting basis          ... NOT available
Integral threshold                          ...     2.500000e-11
Primitive cut-off                           ...     2.500000e-12
Primitive pair pre-selection threshold      ...     2.500000e-12

Calculating pre-screening integrals         ... done (  0.1 sec) Dimension = 173
Organizing shell pair data                  ... done (  0.1 sec)
Shell pair information
Total number of shell pairs                 ...     15051
Shell pairs after pre-screening             ...     14231
Total number of primitive shell pairs       ...     39827
Primitive shell pairs kept                  ...     29496
          la=0 lb=0:   3531 shell pairs
          la=1 lb=0:   5264 shell pairs
          la=1 lb=1:   2020 shell pairs
          la=2 lb=0:   1808 shell pairs
          la=2 lb=1:   1363 shell pairs
          la=2 lb=2:    245 shell pairs

Calculating one electron integrals          ... done (  0.0 sec)
Calculating RI/J V-Matrix + Cholesky decomp.... done (  0.1 sec)
Calculating Nuclear repulsion               ... done (  0.0 sec) ENN=    705.104980922561 Eh

SHARK setup successfully completed in   0.4 seconds

Maximum memory used throughout the entire GTOINT-calculation: 22.1 MB


           ************************************************************
           *        Program running with 18 parallel MPI-processes    *
           *              working on a common directory               *
           ************************************************************
-------------------------------------------------------------------------------
                                 ORCA SCF
-------------------------------------------------------------------------------

------------
SCF SETTINGS
------------
Hamiltonian:
 Density Functional     Method          .... DFT(GTOs)
 Exchange Functional    Exchange        .... WB97X-D3
 Correlation Functional Correlation     .... WB97X-D3
 Gradients option       PostSCFGGA      .... off
 Hybrid DFT is turned on
   Fraction HF Exchange ScalHFX         ....  0.195728
   Scaling of DF-GGA-X  ScalDFX         ....  0.000000
   Scaling of DF-GGA-C  ScalDFC         ....  1.000000
   Scaling of DF-LDA-C  ScalLDAC        ....  1.000000
   Perturbative correction              ....  0.000000
   Density functional embedding theory  .... OFF
 Long-range corrected/Screened/Range-Separated Hybrid DFT is turned on
   Amount of maximum screened exact exchange              ....  0.804272
   Range separation parameter mu (erf(mu*r12)/r12)        ....  0.250000
 RI-approximation to the Coulomb term is turned on
   Number of AuxJ basis functions       .... 770
   RIJ-COSX (HFX calculated with COS-X)).... on


General Settings:
 Integral files         IntName         .... D_wt_wb97
 Hartree-Fock type      HFTyp           .... RHF
 Total Charge           Charge          ....    0
 Multiplicity           Mult            ....    1
 Number of Electrons    NEL             ....   90
 Basis Dimension        Dim             ....  391
 Nuclear Repulsion      ENuc            ....    705.1049809226 Eh

Convergence Acceleration:
 DIIS                   CNVDIIS         .... on
   Start iteration      DIISMaxIt       ....    12
   Startup error        DIISStart       ....  0.200000
   # of expansion vecs  DIISMaxEq       ....     5
   Bias factor          DIISBfac        ....   1.050
   Max. coefficient     DIISMaxC        ....  10.000
 Trust-Rad. Augm. Hess. CNVTRAH         .... auto
   Auto Start mean grad. ratio tolernc. ....  1.125000
   Auto Start start iteration           ....    20
   Auto Start num. interpolation iter.  ....    10
   Max. Number of Micro iterations      ....    16
   Max. Number of Macro iterations      .... Maxiter - #DIIS iter
   Number of Davidson start vectors     ....     2
   Converg. threshold I  (grad. norm)   ....   1.000e-05
   Converg. threshold II (energy diff.) ....   1.000e-08
   Grad. Scal. Fac. for Micro threshold ....   0.100
   Minimum threshold for Micro iter.    ....   0.010
   NR start threshold (gradient norm)   ....   0.001
   Initial trust radius                 ....   0.400
   Minimum AH scaling param. (alpha)    ....   1.000
   Maximum AH scaling param. (alpha)    .... 1000.000
   Orbital update algorithm             .... Taylor
   White noise on init. David. guess    .... on
   Maximum white noise                  ....   0.010
   Quad. conv. algorithm                .... NR
 SOSCF                  CNVSOSCF        .... on
   Start iteration      SOSCFMaxIt      ....   150
   Startup grad/error   SOSCFStart      ....  0.003300
 Level Shifting         CNVShift        .... on
   Level shift para.    LevelShift      ....    0.2500
   Turn off err/grad.   ShiftErr        ....    0.0010
 Zerner damping         CNVZerner       .... off
 Static damping         CNVDamp         .... on
   Fraction old density DampFac         ....    0.7000
   Max. Damping (<1)    DampMax         ....    0.9800
   Min. Damping (>=0)   DampMin         ....    0.0000
   Turn off err/grad.   DampErr         ....    0.1000
 Fernandez-Rico         CNVRico         .... off

SCF Procedure:
 Maximum # iterations   MaxIter         ....   150
 SCF integral mode      SCFMode         .... Direct
   Integral package                     .... SHARK and LIBINT hybrid scheme
 Reset frequency        DirectResetFreq ....    20
 Integral Threshold     Thresh          ....  2.500e-11 Eh
 Primitive CutOff       TCut            ....  2.500e-12 Eh

Convergence Tolerance:
 Convergence Check Mode ConvCheckMode   .... Total+1el-Energy
 Convergence forced     ConvForced      .... 0
 Energy Change          TolE            ....  1.000e-08 Eh
 1-El. energy change                    ....  1.000e-05 Eh
 Orbital Gradient       TolG            ....  1.000e-05
 Orbital Rotation angle TolX            ....  1.000e-05
 DIIS Error             TolErr          ....  5.000e-07


Diagonalization of the overlap matrix:
Smallest eigenvalue                        ... 1.888e-05
Time for diagonalization                   ...    0.034 sec
Threshold for overlap eigenvalues          ... 1.000e-08
Number of eigenvalues below threshold      ... 0
Time for construction of square roots      ...    0.062 sec
Total time needed                          ...    0.098 sec

Time for model grid setup =    0.151 sec

------------------------------
INITIAL GUESS: MODEL POTENTIAL
------------------------------
Loading Hartree-Fock densities                     ... done
Calculating cut-offs                               ... done
Initializing the effective Hamiltonian             ... done
Setting up the integral package (SHARK)            ... done
Starting the Coulomb interaction                   ... done (   0.1 sec)
Reading the grid                                   ... done
Mapping shells                                     ... done
Starting the XC term evaluation                    ... done (   0.1 sec)
  promolecular density results
     # of electrons  =     89.974688977
     EX              =    -67.450809825
     EC              =     -2.982249296
     EX+EC           =    -70.433059121
Transforming the Hamiltonian                       ... done (   0.0 sec)
Diagonalizing the Hamiltonian                      ... done (   0.0 sec)
Back transforming the eigenvectors                 ... done (   0.0 sec)
Now organizing SCF variables                       ... done
                      ------------------
                      INITIAL GUESS DONE (   0.4 sec)
                      ------------------
-------------------
DFT GRID GENERATION
-------------------

General Integration Accuracy     IntAcc      ... 4.388
Radial Grid Type                 RadialGrid  ... OptM3 with GC (2021)
Angular Grid (max. ang.)         AngularGrid ... 4 (Lebedev-302)
Angular grid pruning method      GridPruning ... 4 (adaptive)
Weight generation scheme         WeightScheme... Becke
Basis function cutoff            BFCut       ... 1.0000e-11
Integration weight cutoff        WCut        ... 1.0000e-14
Angular grids for H and He will be reduced by one unit
Partially contracted basis set               ... off
Rotationally invariant grid construction     ... off

Total number of grid points                  ...   135447
Total number of batches                      ...     2133
Average number of points per batch           ...       63
Average number of grid points per atom       ...     4233
Time for grid setup =    0.706 sec

--------------------
COSX GRID GENERATION
--------------------

GRIDX 1
-------
General Integration Accuracy     IntAcc      ... 3.816
Radial Grid Type                 RadialGrid  ... OptM3 with GC (2021)
Angular Grid (max. ang.)         AngularGrid ... 1 (Lebedev-50)
Angular grid pruning method      GridPruning ... 4 (adaptive)
Weight generation scheme         WeightScheme... Becke
Basis function cutoff            BFCut       ... 1.0000e-11
Integration weight cutoff        WCut        ... 1.0000e-14
Angular grids for H and He will be reduced by one unit
Partially contracted basis set               ... on
Rotationally invariant grid construction     ... off

Total number of grid points                  ...    16899
Total number of batches                      ...      285
Average number of points per batch           ...       59
Average number of grid points per atom       ...      528
UseSFitting                                  ... on

GRIDX 2
-------
General Integration Accuracy     IntAcc      ... 4.020
Radial Grid Type                 RadialGrid  ... OptM3 with GC (2021)
Angular Grid (max. ang.)         AngularGrid ... 2 (Lebedev-110)
Angular grid pruning method      GridPruning ... 4 (adaptive)
Weight generation scheme         WeightScheme... Becke
Basis function cutoff            BFCut       ... 1.0000e-11
Integration weight cutoff        WCut        ... 1.0000e-14
Angular grids for H and He will be reduced by one unit
Partially contracted basis set               ... on
Rotationally invariant grid construction     ... off

Total number of grid points                  ...    36310
Total number of batches                      ...      585
Average number of points per batch           ...       62
Average number of grid points per atom       ...     1135
UseSFitting                                  ... on

GRIDX 3
-------
General Integration Accuracy     IntAcc      ... 4.338
Radial Grid Type                 RadialGrid  ... OptM3 with GC (2021)
Angular Grid (max. ang.)         AngularGrid ... 3 (Lebedev-194)
Angular grid pruning method      GridPruning ... 4 (adaptive)
Weight generation scheme         WeightScheme... Becke
Basis function cutoff            BFCut       ... 1.0000e-11
Integration weight cutoff        WCut        ... 1.0000e-14
Angular grids for H and He will be reduced by one unit
Partially contracted basis set               ... on
Rotationally invariant grid construction     ... off

Total number of grid points                  ...    81903
Total number of batches                      ...     1296
Average number of points per batch           ...       63
Average number of grid points per atom       ...     2559
UseSFitting                                  ... on

Time for X-Grid setup             =    0.684 sec


--------------------
CPCM SOLVATION MODEL
--------------------
CPCM parameters:
  Epsilon                                         ...      80.4000
  Refrac                                          ...       1.3300
  Rsolv                                           ...       1.3000
  Surface type                                    ... GAUSSIAN VDW
  Epsilon function type                           ...         CPCM
Radii:
 Radius for C  used is    3.8550 Bohr (=   2.0400 Ang.)
 Radius for H  used is    2.4944 Bohr (=   1.3200 Ang.)
 Radius for F  used is    3.3335 Bohr (=   1.7640 Ang.)
Calculating surface                               ...        done! (  0.0s)
GEPOL surface points                              ...         1641
GEPOL Volume                                      ...    1508.4220
GEPOL Surface-area                                ...     785.2599
Calculating surface distance matrix               ...        done! (  0.0s)
Performing Cholesky decomposition & store         ...        done! (  0.3s)
Overall time for CPCM initialization              ...                 0.3s
--------------
SCF ITERATIONS
--------------
ITER       Energy         Delta-E        Max-DP      RMS-DP      [F,P]     Damp
               ***  Starting incremental Fock matrix formation  ***
  0   -492.7033134439   0.000000000000 1.31155359  0.00624178  0.2119731 0.7000
                      *** Initiating the SOSCF procedure ***
                      *** Re-Reading the Fockian *** 
                      *** Removing any level shift *** 
ITER      Energy       Delta-E        Grad      Rot      Max-DP    RMS-DP
  1   -492.83982713  -0.1365136882  0.003290  0.003290  2.747552  0.013292
               *** Restarting incremental Fock matrix formation ***
  2   -492.99629644  -0.1564693102  0.012262  0.015420  1.630609  0.007960
  3   -493.01656313  -0.0202666857  0.009207  0.007656  0.521748  0.002675
  4   -493.04575682  -0.0291936927  0.000587  0.000837  0.010586  0.000191
  5   -493.04580577  -0.0000489510  0.000628  0.000273  0.025611  0.000117
  6   -493.04583249  -0.0000267178  0.000090  0.000054  0.005443  0.000031
  7   -493.04583314  -0.0000006528  0.000046  0.000022  0.002823  0.000014
  8   -493.04583361  -0.0000004702  0.000004  0.000008  0.000306  0.000003
                  ***Gradient check signals convergence***
              ***Rediagonalizing the Fockian in SOSCF/NRSCF***

               *****************************************************
               *                     SUCCESS                       *
               *           SCF CONVERGED AFTER   9 CYCLES          *
               *****************************************************

Old exchange energy                            =    -23.218212251 Eh
New exchange energy                            =    -23.218263186 Eh
Exchange energy change after final integration =     -0.000050935 Eh
Total energy after final integration           =   -493.045884555 Eh
Final COS-X integration done in                =     8.680 sec

----------------
TOTAL SCF ENERGY
----------------

Total Energy       :         -493.04588456 Eh          -13416.46060 eV

Components:
Nuclear Repulsion  :          705.10498092 Eh           19186.88197 eV
Electronic Energy  :        -1198.15086548 Eh          -32603.34257 eV
One Electron Energy:        -2067.44457886 Eh          -56258.02709 eV
Two Electron Energy:          869.29371338 Eh           23654.68452 eV
Max COSX asymmetry :            0.00001141 Eh               0.00031 eV
CPCM Dielectric    :           -0.00463450 Eh              -0.12611 eV

Virial components:
Potential Energy   :         -980.93768934 Eh          -26692.67156 eV
Kinetic Energy     :          487.89180478 Eh           13276.21096 eV
Virial Ratio       :            2.01056398


DFT components:
N(Alpha)           :       45.000078553532 electrons
N(Beta)            :       45.000078553532 electrons
N(Total)           :       90.000157107063 electrons
E(XC)              :      -49.374861897349 Eh       
DFET-embed. en.    :        0.000000000000 Eh       
CPCM Solvation Model Properties:
Surface-charge          :           -0.03520401
Charge-correction       :            0.00015899 Eh               0.00433 eV
Free-energy (cav+disp)  :  This term is not implemented in the current solvation scheme

---------------
SCF CONVERGENCE
---------------

  Last Energy change         ...   -7.6918e-09  Tolerance :   1.0000e-08
  Last MAX-Density change    ...    6.2172e-15  Tolerance :   1.0000e-07
  Last RMS-Density change    ...    4.3798e-17  Tolerance :   5.0000e-09
  Last Orbital Gradient      ...    1.9420e-06  Tolerance :   1.0000e-05
  Last Orbital Rotation      ...    1.2748e-06  Tolerance :   1.0000e-05

             **** THE GBW FILE WAS UPDATED (D_wt_wb97.gbw) ****
             **** DENSITY D_wt_wb97.scfp WAS UPDATED ****
             **** ENERGY FILE WAS UPDATED (D_wt_wb97.en.tmp) ****
             **** THE GBW FILE WAS UPDATED (D_wt_wb97.gbw) ****
             **** DENSITY D_wt_wb97.scfp WAS UPDATED ****
----------------
ORBITAL ENERGIES
----------------

  NO   OCC          E(Eh)            E(eV) 
   0   2.0000     -24.806585      -675.0215 
   1   2.0000     -10.366817      -282.0954 
   2   2.0000     -10.287509      -279.9374 
   3   2.0000     -10.277376      -279.6616 
   4   2.0000     -10.275319      -279.6057 
   5   2.0000     -10.274943      -279.5954 
   6   2.0000     -10.272421      -279.5268 
   7   2.0000     -10.271708      -279.5074 
   8   2.0000     -10.269677      -279.4521 
   9   2.0000     -10.261735      -279.2360 
  10   2.0000     -10.208605      -277.7903 
  11   2.0000      -1.329173       -36.1686 
  12   2.0000      -0.925696       -25.1895 
  13   2.0000      -0.910430       -24.7741 
  14   2.0000      -0.875397       -23.8208 
  15   2.0000      -0.843978       -22.9658 
  16   2.0000      -0.793837       -21.6014 
  17   2.0000      -0.768910       -20.9231 
  18   2.0000      -0.728192       -19.8151 
  19   2.0000      -0.700027       -19.0487 
  20   2.0000      -0.666881       -18.1468 
  21   2.0000      -0.653966       -17.7953 
  22   2.0000      -0.631066       -17.1722 
  23   2.0000      -0.613210       -16.6863 
  24   2.0000      -0.592385       -16.1196 
  25   2.0000      -0.570080       -15.5127 
  26   2.0000      -0.558402       -15.1949 
  27   2.0000      -0.546459       -14.8699 
  28   2.0000      -0.527572       -14.3560 
  29   2.0000      -0.522052       -14.2058 
  30   2.0000      -0.506954       -13.7949 
  31   2.0000      -0.487600       -13.2683 
  32   2.0000      -0.483849       -13.1662 
  33   2.0000      -0.466508       -12.6943 
  34   2.0000      -0.457677       -12.4540 
  35   2.0000      -0.445734       -12.1290 
  36   2.0000      -0.439937       -11.9713 
  37   2.0000      -0.430084       -11.7032 
  38   2.0000      -0.415021       -11.2933 
  39   2.0000      -0.408027       -11.1030 
  40   2.0000      -0.404016       -10.9938 
  41   2.0000      -0.399748       -10.8777 
  42   2.0000      -0.388960       -10.5841 
  43   2.0000      -0.387624       -10.5478 
  44   2.0000      -0.369068       -10.0429 
  45   0.0000       0.098931         2.6921 
  46   0.0000       0.105115         2.8603 
  47   0.0000       0.110329         3.0022 
  48   0.0000       0.112309         3.0561 
  49   0.0000       0.127802         3.4777 
  50   0.0000       0.135656         3.6914 
  51   0.0000       0.136885         3.7248 
  52   0.0000       0.143739         3.9113 
  53   0.0000       0.152799         4.1579 
  54   0.0000       0.162242         4.4148 
  55   0.0000       0.168631         4.5887 
  56   0.0000       0.176966         4.8155 
  57   0.0000       0.181923         4.9504 
  58   0.0000       0.186119         5.0646 
  59   0.0000       0.194041         5.2801 
  60   0.0000       0.197255         5.3676 
  61   0.0000       0.202283         5.5044 
  62   0.0000       0.209152         5.6913 
  63   0.0000       0.214529         5.8376 
  64   0.0000       0.227345         6.1864 
  65   0.0000       0.232558         6.3282 
  66   0.0000       0.234524         6.3817 
  67   0.0000       0.238773         6.4973 
  68   0.0000       0.248793         6.7700 
  69   0.0000       0.253642         6.9019 
  70   0.0000       0.257264         7.0005 
  71   0.0000       0.261868         7.1258 
  72   0.0000       0.267981         7.2921 
  73   0.0000       0.278120         7.5680 
  74   0.0000       0.280446         7.6313 
  75   0.0000       0.284572         7.7436 
  76   0.0000       0.288474         7.8498 
  77   0.0000       0.291667         7.9367 
  78   0.0000       0.298110         8.1120 
  79   0.0000       0.300940         8.1890 
  80   0.0000       0.309044         8.4095 
  81   0.0000       0.319042         8.6816 
  82   0.0000       0.321610         8.7514 
  83   0.0000       0.334494         9.1021 
  84   0.0000       0.335952         9.1417 
  85   0.0000       0.344571         9.3762 
  86   0.0000       0.353808         9.6276 
  87   0.0000       0.357087         9.7168 
  88   0.0000       0.363624         9.8947 
  89   0.0000       0.365473         9.9450 
  90   0.0000       0.370591        10.0843 
  91   0.0000       0.376595        10.2477 
  92   0.0000       0.378685        10.3045 
  93   0.0000       0.379869        10.3368 
  94   0.0000       0.383838        10.4448 
  95   0.0000       0.392711        10.6862 
  96   0.0000       0.395472        10.7613 
  97   0.0000       0.399211        10.8631 
  98   0.0000       0.401943        10.9374 
  99   0.0000       0.403122        10.9695 
 100   0.0000       0.410121        11.1599 
 101   0.0000       0.416102        11.3227 
 102   0.0000       0.424991        11.5646 
 103   0.0000       0.427568        11.6347 
 104   0.0000       0.430811        11.7230 
 105   0.0000       0.431622        11.7450 
 106   0.0000       0.440277        11.9806 
 107   0.0000       0.442477        12.0404 
 108   0.0000       0.443229        12.0609 
 109   0.0000       0.447942        12.1891 
 110   0.0000       0.453925        12.3519 
 111   0.0000       0.457211        12.4413 
 112   0.0000       0.461416        12.5558 
 113   0.0000       0.464366        12.6360 
 114   0.0000       0.468222        12.7410 
 115   0.0000       0.471616        12.8333 
 116   0.0000       0.477355        12.9895 
 117   0.0000       0.479132        13.0378 
 118   0.0000       0.483272        13.1505 
 119   0.0000       0.486233        13.2311 
 120   0.0000       0.493395        13.4260 
 121   0.0000       0.493767        13.4361 
 122   0.0000       0.499453        13.5908 
 123   0.0000       0.508450        13.8356 
 124   0.0000       0.510969        13.9042 
 125   0.0000       0.514205        13.9922 
 126   0.0000       0.520690        14.1687 
 127   0.0000       0.524194        14.2641 
 128   0.0000       0.529134        14.3985 
 129   0.0000       0.536893        14.6096 
 130   0.0000       0.539649        14.6846 
 131   0.0000       0.541796        14.7430 
 132   0.0000       0.546812        14.8795 
 133   0.0000       0.552578        15.0364 
 134   0.0000       0.555148        15.1063 
 135   0.0000       0.559322        15.2199 
 136   0.0000       0.562945        15.3185 
 137   0.0000       0.567233        15.4352 
 138   0.0000       0.570754        15.5310 
 139   0.0000       0.574140        15.6232 
 140   0.0000       0.577414        15.7122 
 141   0.0000       0.581876        15.8337 
 142   0.0000       0.591582        16.0978 
 143   0.0000       0.593784        16.1577 
 144   0.0000       0.597063        16.2469 
 145   0.0000       0.598090        16.2748 
 146   0.0000       0.610070        16.6008 
 147   0.0000       0.616069        16.7641 
 148   0.0000       0.621546        16.9131 
 149   0.0000       0.626516        17.0484 
 150   0.0000       0.628374        17.0989 
 151   0.0000       0.632876        17.2214 
 152   0.0000       0.636258        17.3134 
 153   0.0000       0.637480        17.3467 
 154   0.0000       0.645232        17.5576 
 155   0.0000       0.646876        17.6024 
 156   0.0000       0.654323        17.8050 
 157   0.0000       0.656641        17.8681 
 158   0.0000       0.660461        17.9721 
 159   0.0000       0.663734        18.0611 
 160   0.0000       0.670299        18.2398 
 161   0.0000       0.671813        18.2810 
 162   0.0000       0.678645        18.4669 
 163   0.0000       0.685230        18.6461 
 164   0.0000       0.694363        18.8946 
 165   0.0000       0.699817        19.0430 
 166   0.0000       0.702378        19.1127 
 167   0.0000       0.708349        19.2751 
 168   0.0000       0.711490        19.3606 
 169   0.0000       0.717464        19.5232 
 170   0.0000       0.721781        19.6406 
 171   0.0000       0.729859        19.8605 
 172   0.0000       0.733853        19.9691 
 173   0.0000       0.739675        20.1276 
 174   0.0000       0.741329        20.1726 
 175   0.0000       0.751631        20.4529 
 176   0.0000       0.757466        20.6117 
 177   0.0000       0.760683        20.6992 
 178   0.0000       0.766906        20.8686 
 179   0.0000       0.782655        21.2971 
 180   0.0000       0.786172        21.3928 
 181   0.0000       0.792630        21.5686 
 182   0.0000       0.799078        21.7440 
 183   0.0000       0.803850        21.8739 
 184   0.0000       0.809274        22.0215 
 185   0.0000       0.823171        22.3996 
 186   0.0000       0.829640        22.5756 
 187   0.0000       0.832579        22.6556 
 188   0.0000       0.842741        22.9321 
 189   0.0000       0.857805        23.3421 
 190   0.0000       0.861971        23.4554 
 191   0.0000       0.871690        23.7199 
 192   0.0000       0.873516        23.7696 
 193   0.0000       0.889333        24.2000 
 194   0.0000       0.893143        24.3037 
 195   0.0000       0.901600        24.5338 
 196   0.0000       0.910080        24.7645 
 197   0.0000       0.912075        24.8188 
 198   0.0000       0.924312        25.1518 
 199   0.0000       0.935098        25.4453 
 200   0.0000       0.943077        25.6624 
 201   0.0000       0.954805        25.9816 
 202   0.0000       0.974153        26.5081 
 203   0.0000       0.980366        26.6771 
 204   0.0000       0.992414        27.0050 
 205   0.0000       1.022498        27.8236 
 206   0.0000       1.034618        28.1534 
 207   0.0000       1.048538        28.5322 
 208   0.0000       1.055382        28.7184 
 209   0.0000       1.064779        28.9741 
 210   0.0000       1.071303        29.1516 
 211   0.0000       1.081137        29.4192 
 212   0.0000       1.084384        29.5076 
 213   0.0000       1.103243        30.0208 
 214   0.0000       1.113446        30.2984 
 215   0.0000       1.119250        30.4564 
 216   0.0000       1.129097        30.7243 
 217   0.0000       1.133413        30.8417 
 218   0.0000       1.142027        31.0761 
 219   0.0000       1.152958        31.3736 
 220   0.0000       1.155179        31.4340 
 221   0.0000       1.168129        31.7864 
 222   0.0000       1.171397        31.8753 
 223   0.0000       1.177336        32.0369 
 224   0.0000       1.183192        32.1963 
 225   0.0000       1.191915        32.4336 
 226   0.0000       1.199661        32.6444 
 227   0.0000       1.204830        32.7851 
 228   0.0000       1.207275        32.8516 
 229   0.0000       1.217095        33.1188 
 230   0.0000       1.218712        33.1629 
 231   0.0000       1.230953        33.4959 
 232   0.0000       1.240823        33.7645 
 233   0.0000       1.244395        33.8617 
 234   0.0000       1.251802        34.0633 
 235   0.0000       1.264400        34.4061 
 236   0.0000       1.267725        34.4965 
 237   0.0000       1.283021        34.9128 
 238   0.0000       1.295641        35.2562 
 239   0.0000       1.311301        35.6823 
 240   0.0000       1.328777        36.1579 
 241   0.0000       1.334193        36.3052 
 242   0.0000       1.348978        36.7076 
 243   0.0000       1.363716        37.1086 
 244   0.0000       1.378993        37.5243 
 245   0.0000       1.388368        37.7794 
 246   0.0000       1.398933        38.0669 
 247   0.0000       1.422615        38.7113 
 248   0.0000       1.426711        38.8228 
 249   0.0000       1.446078        39.3498 
 250   0.0000       1.453156        39.5424 
 251   0.0000       1.460203        39.7342 
 252   0.0000       1.486432        40.4479 
 253   0.0000       1.499504        40.8036 
 254   0.0000       1.517573        41.2953 
 255   0.0000       1.537908        41.8486 
 256   0.0000       1.539067        41.8801 
 257   0.0000       1.575707        42.8772 
 258   0.0000       1.580266        43.0012 
 259   0.0000       1.589843        43.2618 
 260   0.0000       1.595039        43.4032 
 261   0.0000       1.616047        43.9749 
 262   0.0000       1.637319        44.5537 
 263   0.0000       1.644572        44.7511 
 264   0.0000       1.673183        45.5296 
 265   0.0000       1.687548        45.9205 
 266   0.0000       1.705035        46.3964 
 267   0.0000       1.734470        47.1973 
 268   0.0000       1.748907        47.5902 
 269   0.0000       1.782166        48.4952 
 270   0.0000       1.790150        48.7125 
 271   0.0000       1.799879        48.9772 
 272   0.0000       1.815269        49.3960 
 273   0.0000       1.829472        49.7825 
 274   0.0000       1.847572        50.2750 
 275   0.0000       1.861364        50.6503 
 276   0.0000       1.869609        50.8746 
 277   0.0000       1.893200        51.5166 
 278   0.0000       1.902349        51.7655 
 279   0.0000       1.913764        52.0762 
 280   0.0000       1.932935        52.5978 
 281   0.0000       1.936130        52.6848 
 282   0.0000       1.965770        53.4913 
 283   0.0000       1.977744        53.8171 
 284   0.0000       1.992007        54.2053 
 285   0.0000       2.009143        54.6716 
 286   0.0000       2.013360        54.7863 
 287   0.0000       2.028483        55.1978 
 288   0.0000       2.038441        55.4688 
 289   0.0000       2.045869        55.6709 
 290   0.0000       2.051878        55.8344 
 291   0.0000       2.058420        56.0124 
 292   0.0000       2.066091        56.2212 
 293   0.0000       2.071102        56.3576 
 294   0.0000       2.082557        56.6693 
 295   0.0000       2.090854        56.8950 
 296   0.0000       2.092409        56.9373 
 297   0.0000       2.107697        57.3534 
 298   0.0000       2.116746        57.5996 
 299   0.0000       2.126074        57.8534 
 300   0.0000       2.136662        58.1415 
 301   0.0000       2.144793        58.3628 
 302   0.0000       2.151557        58.5469 
 303   0.0000       2.158221        58.7282 
 304   0.0000       2.168045        58.9955 
 305   0.0000       2.169944        59.0472 
 306   0.0000       2.183727        59.4222 
 307   0.0000       2.192111        59.6504 
 308   0.0000       2.202794        59.9411 
 309   0.0000       2.208540        60.0974 
 310   0.0000       2.224846        60.5411 
 311   0.0000       2.228985        60.6538 
 312   0.0000       2.232611        60.7524 
 313   0.0000       2.243700        61.0542 
 314   0.0000       2.259558        61.4857 
 315   0.0000       2.276211        61.9389 
 316   0.0000       2.279976        62.0413 
 317   0.0000       2.289565        62.3022 
 318   0.0000       2.301459        62.6259 
 319   0.0000       2.311899        62.9100 
 320   0.0000       2.327681        63.3394 
 321   0.0000       2.353802        64.0502 
 322   0.0000       2.361597        64.2623 
 323   0.0000       2.383665        64.8628 
 324   0.0000       2.383993        64.8717 
 325   0.0000       2.402007        65.3619 
 326   0.0000       2.420061        65.8532 
 327   0.0000       2.434164        66.2370 
 328   0.0000       2.454284        66.7844 
 329   0.0000       2.491060        67.7852 
 330   0.0000       2.499093        68.0038 
 331   0.0000       2.505309        68.1729 
 332   0.0000       2.527117        68.7664 
 333   0.0000       2.548584        69.3505 
 334   0.0000       2.564430        69.7817 
 335   0.0000       2.587647        70.4135 
 336   0.0000       2.588217        70.4290 
 337   0.0000       2.597572        70.6835 
 338   0.0000       2.623409        71.3866 
 339   0.0000       2.628606        71.5280 
 340   0.0000       2.652415        72.1759 
 341   0.0000       2.668884        72.6240 
 342   0.0000       2.684371        73.0455 
 343   0.0000       2.693308        73.2886 
 344   0.0000       2.700863        73.4942 
 345   0.0000       2.725272        74.1584 
 346   0.0000       2.734701        74.4150 
 347   0.0000       2.745774        74.7163 
 348   0.0000       2.767597        75.3101 
 349   0.0000       2.769755        75.3689 
 350   0.0000       2.779051        75.6218 
 351   0.0000       2.798485        76.1507 
 352   0.0000       2.804953        76.3267 
 353   0.0000       2.808797        76.4313 
 354   0.0000       2.837610        77.2153 
 355   0.0000       2.844044        77.3904 
 356   0.0000       2.846253        77.4505 
 357   0.0000       2.872767        78.1720 
 358   0.0000       2.882695        78.4421 
 359   0.0000       2.924192        79.5713 
 360   0.0000       2.934190        79.8434 
 361   0.0000       2.948678        80.2376 
 362   0.0000       2.982551        81.1593 
 363   0.0000       3.000235        81.6405 
 364   0.0000       3.017457        82.1092 
 365   0.0000       3.078147        83.7606 
 366   0.0000       3.128655        85.1350 
 367   0.0000       3.135684        85.3263 
 368   0.0000       3.158509        85.9474 
 369   0.0000       3.195330        86.9494 
 370   0.0000       3.208310        87.3025 
 371   0.0000       3.224661        87.7475 
 372   0.0000       3.250944        88.4627 
 373   0.0000       3.253843        88.5416 
 374   0.0000       3.271391        89.0191 
 375   0.0000       3.287450        89.4561 
 376   0.0000       3.291031        89.5535 
 377   0.0000       3.306565        89.9762 
 378   0.0000       3.321623        90.3859 
 379   0.0000       3.353023        91.2404 
 380   0.0000       3.360019        91.4308 
 381   0.0000       3.375721        91.8580 
 382   0.0000       3.394833        92.3781 
 383   0.0000       3.422508        93.1312 
 384   0.0000       3.462050        94.2072 
 385   0.0000       3.471482        94.4638 
 386   0.0000       3.612610        98.3041 
 387   0.0000       3.655617        99.4744 
 388   0.0000       3.734910       101.6321 
 389   0.0000       4.089857       111.2907 
 390   0.0000       4.275525       116.3429 

                    ********************************
                    * MULLIKEN POPULATION ANALYSIS *
                    ********************************

-----------------------
MULLIKEN ATOMIC CHARGES
-----------------------
   0 C :   -0.128529
   1 H :    0.049087
   2 C :    2.758713
   3 C :    0.299885
   4 H :   -0.316140
   5 H :    0.004960
   6 H :   -0.048610
   7 C :    0.316450
   8 H :   -0.532778
   9 C :   -0.046491
  10 H :   -0.033726
  11 H :   -0.091970
  12 H :   -0.143143
  13 C :    0.512277
  14 C :    0.133580
  15 H :   -0.181930
  16 H :    0.065589
  17 H :   -0.125123
  18 C :    0.075388
  19 H :   -0.187308
  20 H :   -0.060947
  21 H :   -0.100121
  22 C :    0.104544
  23 H :   -0.055315
  24 H :    0.058291
  25 C :    0.575425
  26 F :   -0.591687
  27 H :   -0.158100
  28 H :    0.176566
  29 H :    0.107195
  30 H :   -2.314110
  31 H :   -0.121923
Sum of atomic charges:   -0.0000000

--------------------------------
MULLIKEN REDUCED ORBITAL CHARGES
--------------------------------
  0 C s       :     2.838643  s :     2.838643
      pz      :     0.985247  p :     2.821485
      px      :     0.753430
      py      :     1.082808
      dz2     :    -0.028895  d :     0.468401
      dxz     :     0.064468
      dyz     :     0.207571
      dx2y2   :     0.092803
      dxy     :     0.132453
  1 H s       :     0.974239  s :     0.974239
      pz      :     0.031640  p :    -0.023326
      px      :    -0.049779
      py      :    -0.005187
  2 C s       :     0.502971  s :     0.502971
      pz      :     0.693868  p :     2.546229
      px      :     0.880905
      py      :     0.971455
      dz2     :     0.027758  d :     0.192087
      dxz     :    -0.022858
      dyz     :     0.037504
      dx2y2   :     0.010847
      dxy     :     0.138835
  3 C s       :     2.693027  s :     2.693027
      pz      :     0.944351  p :     2.665931
      px      :     0.948797
      py      :     0.772783
      dz2     :     0.087302  d :     0.341157
      dxz     :     0.194751
      dyz     :    -0.000891
      dx2y2   :     0.020236
      dxy     :     0.039759
  4 H s       :     1.326895  s :     1.326895
      pz      :    -0.009218  p :    -0.010755
      px      :     0.017754
      py      :    -0.019291
  5 H s       :     1.022033  s :     1.022033
      pz      :     0.016289  p :    -0.026994
      px      :     0.014876
      py      :    -0.058159
  6 H s       :     1.059508  s :     1.059508
      pz      :    -0.026458  p :    -0.010897
      px      :    -0.012313
      py      :     0.027874
  7 C s       :     2.379907  s :     2.379907
      pz      :     0.845341  p :     2.783256
      px      :     0.957342
      py      :     0.980573
      dz2     :     0.161588  d :     0.520387
      dxz     :     0.003936
      dyz     :     0.025093
      dx2y2   :     0.248718
      dxy     :     0.081052
  8 H s       :     1.236564  s :     1.236564
      pz      :     0.059122  p :     0.296214
      px      :    -0.006871
      py      :     0.243963
  9 C s       :     2.826775  s :     2.826775
      pz      :     0.971058  p :     2.769696
      px      :     0.903370
      py      :     0.895268
      dz2     :     0.168153  d :     0.450021
      dxz     :     0.075013
      dyz     :     0.028884
      dx2y2   :     0.112407
      dxy     :     0.065563
 10 H s       :     1.031088  s :     1.031088
      pz      :     0.047413  p :     0.002638
      px      :    -0.021561
      py      :    -0.023214
 11 H s       :     1.032277  s :     1.032277
      pz      :     0.067940  p :     0.059692
      px      :     0.014950
      py      :    -0.023197
 12 H s       :     1.121520  s :     1.121520
      pz      :    -0.023205  p :     0.021622
      px      :    -0.014332
      py      :     0.059160
 13 C s       :     2.540790  s :     2.540790
      pz      :     0.830274  p :     2.648559
      px      :     0.870972
      py      :     0.947312
      dz2     :     0.089543  d :     0.298374
      dxz     :    -0.001658
      dyz     :     0.036663
      dx2y2   :     0.003488
      dxy     :     0.170338
 14 C s       :     2.697138  s :     2.697138
      pz      :     0.982134  p :     2.755551
      px      :     0.813615
      py      :     0.959803
      dz2     :     0.026433  d :     0.413731
      dxz     :     0.053139
      dyz     :     0.179502
      dx2y2   :     0.135105
      dxy     :     0.019552
 15 H s       :     1.186269  s :     1.186269
      pz      :    -0.042772  p :    -0.004339
      px      :     0.006474
      py      :     0.031959
 16 H s       :     0.960422  s :     0.960422
      pz      :     0.029695  p :    -0.026011
      px      :    -0.025296
      py      :    -0.030410
 17 H s       :     1.073296  s :     1.073296
      pz      :     0.034279  p :     0.051827
      px      :    -0.015140
      py      :     0.032688
 18 C s       :     2.746999  s :     2.746999
      pz      :     1.005157  p :     2.798971
      px      :     0.858647
      py      :     0.935168
      dz2     :     0.104685  d :     0.378642
      dxz     :     0.052845
      dyz     :     0.181267
      dx2y2   :    -0.020503
      dxy     :     0.060348
 19 H s       :     1.172104  s :     1.172104
      pz      :     0.007087  p :     0.015204
      px      :     0.017872
      py      :    -0.009756
 20 H s       :     0.995079  s :     0.995079
      pz      :     0.021079  p :     0.065868
      px      :     0.030728
      py      :     0.014061
 21 H s       :     1.080612  s :     1.080612
      pz      :    -0.011125  p :     0.019509
      px      :     0.028022
      py      :     0.002613
 22 C s       :     2.665306  s :     2.665306
      pz      :     0.859392  p :     2.850651
      px      :     1.002072
      py      :     0.989188
      dz2     :     0.033123  d :     0.379499
      dxz     :     0.087199
      dyz     :     0.044417
      dx2y2   :     0.020427
      dxy     :     0.194333
 23 H s       :     1.041893  s :     1.041893
      pz      :    -0.011522  p :     0.013421
      px      :     0.003573
      py      :     0.021371
 24 H s       :     0.959107  s :     0.959107
      pz      :     0.019770  p :    -0.017398
      px      :    -0.010770
      py      :    -0.026398
 25 C s       :     2.774029  s :     2.774029
      pz      :     0.837870  p :     2.394623
      px      :     0.884959
      py      :     0.671795
      dz2     :     0.038897  d :     0.255923
      dxz     :     0.072800
      dyz     :    -0.014772
      dx2y2   :     0.102754
      dxy     :     0.056244
 26 F s       :     4.087640  s :     4.087640
      pz      :     1.846509  p :     5.466994
      px      :     1.825745
      py      :     1.794741
      dz2     :     0.010335  d :     0.037053
      dxz     :     0.000098
      dyz     :     0.007599
      dx2y2   :     0.012532
      dxy     :     0.006489
 27 H s       :     1.144357  s :     1.144357
      pz      :    -0.003005  p :     0.013743
      px      :    -0.014174
      py      :     0.030922
 28 H s       :     0.771279  s :     0.771279
      pz      :     0.041536  p :     0.052155
      px      :    -0.006859
      py      :     0.017477
 29 H s       :     0.990241  s :     0.990241
      pz      :    -0.045993  p :    -0.097436
      px      :    -0.034347
      py      :    -0.017095
 30 H s       :     2.418090  s :     2.418090
      pz      :     0.126883  p :     0.896020
      px      :     0.739080
      py      :     0.030057
 31 H s       :     1.142034  s :     1.142034
      pz      :    -0.023208  p :    -0.020111
      px      :    -0.032498
      py      :     0.035595


                     *******************************
                     * LOEWDIN POPULATION ANALYSIS *
                     *******************************

----------------------
LOEWDIN ATOMIC CHARGES
----------------------
   0 C :   -0.058500
   1 H :    0.014050
   2 C :    0.130608
   3 C :   -0.039643
   4 H :    0.017794
   5 H :    0.023799
   6 H :    0.016620
   7 C :   -0.023191
   8 H :   -0.006438
   9 C :   -0.031918
  10 H :    0.028054
  11 H :   -0.000584
  12 H :    0.027199
  13 C :   -0.034045
  14 C :   -0.021824
  15 H :    0.023735
  16 H :    0.023660
  17 H :   -0.002330
  18 C :   -0.023348
  19 H :    0.023725
  20 H :   -0.000061
  21 H :    0.027427
  22 C :   -0.012011
  23 H :    0.041528
  24 H :    0.029299
  25 C :    0.162681
  26 F :   -0.194465
  27 H :    0.047390
  28 H :    0.037852
  29 H :   -0.026217
  30 H :   -0.175993
  31 H :   -0.024852

-------------------------------
LOEWDIN REDUCED ORBITAL CHARGES
-------------------------------
  0 C s       :     2.673251  s :     2.673251
      pz      :     0.894429  p :     2.704033
      px      :     0.895804
      py      :     0.913800
      dz2     :     0.129899  d :     0.681216
      dxz     :     0.121950
      dyz     :     0.190312
      dx2y2   :     0.110764
      dxy     :     0.128291
  1 H s       :     0.721449  s :     0.721449
      pz      :     0.075842  p :     0.264502
      px      :     0.113579
      py      :     0.075080
  2 C s       :     2.647087  s :     2.647087
      pz      :     0.910378  p :     2.756188
      px      :     0.950578
      py      :     0.895233
      dz2     :     0.072170  d :     0.466117
      dxz     :     0.048130
      dyz     :     0.116518
      dx2y2   :     0.105349
      dxy     :     0.123951
  3 C s       :     2.681424  s :     2.681424
      pz      :     0.897285  p :     2.687488
      px      :     0.891398
      py      :     0.898804
      dz2     :     0.165966  d :     0.670731
      dxz     :     0.189294
      dyz     :     0.095648
      dx2y2   :     0.110385
      dxy     :     0.109439
  4 H s       :     0.737316  s :     0.737316
      pz      :     0.067167  p :     0.244890
      px      :     0.110122
      py      :     0.067601
  5 H s       :     0.727144  s :     0.727144
      pz      :     0.073392  p :     0.249057
      px      :     0.087301
      py      :     0.088365
  6 H s       :     0.730542  s :     0.730542
      pz      :     0.062693  p :     0.252838
      px      :     0.068000
      py      :     0.122145
  7 C s       :     2.673483  s :     2.673483
      pz      :     0.895668  p :     2.677044
      px      :     0.878611
      py      :     0.902765
      dz2     :     0.166342  d :     0.672665
      dxz     :     0.119111
      dyz     :     0.050522
      dx2y2   :     0.181066
      dxy     :     0.155624
  8 H s       :     0.705868  s :     0.705868
      pz      :     0.085784  p :     0.300570
      px      :     0.085884
      py      :     0.128902
  9 C s       :     2.677710  s :     2.677710
      pz      :     0.904815  p :     2.678817
      px      :     0.877273
      py      :     0.896729
      dz2     :     0.170518  d :     0.675391
      dxz     :     0.136497
      dyz     :     0.049992
      dx2y2   :     0.172786
      dxy     :     0.145598
 10 H s       :     0.727585  s :     0.727585
      pz      :     0.119030  p :     0.244361
      px      :     0.061742
      py      :     0.063589
 11 H s       :     0.710490  s :     0.710490
      pz      :     0.127639  p :     0.290094
      px      :     0.083512
      py      :     0.078944
 12 H s       :     0.727615  s :     0.727615
      pz      :     0.065424  p :     0.245186
      px      :     0.068650
      py      :     0.111112
 13 C s       :     2.683113  s :     2.683113
      pz      :     0.902845  p :     2.690146
      px      :     0.890688
      py      :     0.896613
      dz2     :     0.152882  d :     0.660786
      dxz     :     0.097143
      dyz     :     0.083354
      dx2y2   :     0.131659
      dxy     :     0.195748
 14 C s       :     2.677579  s :     2.677579
      pz      :     0.892148  p :     2.683258
      px      :     0.898739
      py      :     0.892371
      dz2     :     0.132981  d :     0.660987
      dxz     :     0.147011
      dyz     :     0.151526
      dx2y2   :     0.117103
      dxy     :     0.112365
 15 H s       :     0.730259  s :     0.730259
      pz      :     0.074086  p :     0.246006
      px      :     0.084868
      py      :     0.087052
 16 H s       :     0.728202  s :     0.728202
      pz      :     0.119485  p :     0.248138
      px      :     0.066207
      py      :     0.062447
 17 H s       :     0.709470  s :     0.709470
      pz      :     0.074046  p :     0.292860
      px      :     0.118690
      py      :     0.100124
 18 C s       :     2.676311  s :     2.676311
      pz      :     0.896495  p :     2.688151
      px      :     0.905545
      py      :     0.886111
      dz2     :     0.149514  d :     0.658886
      dxz     :     0.114966
      dyz     :     0.175366
      dx2y2   :     0.108101
      dxy     :     0.110940
 19 H s       :     0.731384  s :     0.731384
      pz      :     0.078752  p :     0.244891
      px      :     0.104102
      py      :     0.062037
 20 H s       :     0.706893  s :     0.706893
      pz      :     0.082779  p :     0.293167
      px      :     0.118954
      py      :     0.091434
 21 H s       :     0.730135  s :     0.730135
      pz      :     0.064159  p :     0.242438
      px      :     0.114289
      py      :     0.063990
 22 C s       :     2.687379  s :     2.687379
      pz      :     0.915127  p :     2.700700
      px      :     0.879062
      py      :     0.906510
      dz2     :     0.101067  d :     0.623932
      dxz     :     0.108165
      dyz     :     0.105477
      dx2y2   :     0.133023
      dxy     :     0.176200
 23 H s       :     0.720728  s :     0.720728
      pz      :     0.089152  p :     0.237744
      px      :     0.070319
      py      :     0.078273
 24 H s       :     0.725402  s :     0.725402
      pz      :     0.116805  p :     0.245299
      px      :     0.066609
      py      :     0.061885
 25 C s       :     2.663584  s :     2.663584
      pz      :     0.842208  p :     2.472840
      px      :     0.820584
      py      :     0.810047
      dz2     :     0.133076  d :     0.700896
      dxz     :     0.153172
      dyz     :     0.094958
      dx2y2   :     0.184098
      dxy     :     0.135592
 26 F s       :     3.591966  s :     3.591966
      pz      :     1.787228  p :     5.278589
      px      :     1.740680
      py      :     1.750680
      dz2     :     0.067435  d :     0.323910
      dxz     :     0.048202
      dyz     :     0.042245
      dx2y2   :     0.114759
      dxy     :     0.051268
 27 H s       :     0.728987  s :     0.728987
      pz      :     0.066360  p :     0.223623
      px      :     0.052326
      py      :     0.104937
 28 H s       :     0.709910  s :     0.709910
      pz      :     0.123693  p :     0.252238
      px      :     0.062596
      py      :     0.065949
 29 H s       :     0.744717  s :     0.744717
      pz      :     0.120945  p :     0.281500
      px      :     0.086322
      py      :     0.074233
 30 H s       :     0.638801  s :     0.638801
      pz      :     0.117923  p :     0.537192
      px      :     0.315827
      py      :     0.103442
 31 H s       :     0.740106  s :     0.740106
      pz      :     0.113112  p :     0.284746
      px      :     0.087260
      py      :     0.084374


                      *****************************
                      * MAYER POPULATION ANALYSIS *
                      *****************************

  NA   - Mulliken gross atomic population
  ZA   - Total nuclear charge
  QA   - Mulliken gross atomic charge
  VA   - Mayer's total valence
  BVA  - Mayer's bonded valence
  FA   - Mayer's free valence

  ATOM       NA         ZA         QA         VA         BVA        FA
  0 C      6.1285     6.0000    -0.1285     5.1890     5.1890     0.0000
  1 H      0.9509     1.0000     0.0491     0.8429     0.8429     0.0000
  2 C      3.2413     6.0000     2.7587    -2.9164    -2.9164    -0.0000
  3 C      5.7001     6.0000     0.2999     4.3273     4.3273     0.0000
  4 H      1.3161     1.0000    -0.3161     0.9797     0.9797    -0.0000
  5 H      0.9950     1.0000     0.0050     0.9770     0.9770     0.0000
  6 H      1.0486     1.0000    -0.0486     0.9889     0.9889     0.0000
  7 C      5.6835     6.0000     0.3165     4.6412     4.6412    -0.0000
  8 H      1.5328     1.0000    -0.5328     1.3868     1.3868    -0.0000
  9 C      6.0465     6.0000    -0.0465     4.9288     4.9288    -0.0000
 10 H      1.0337     1.0000    -0.0337     1.0301     1.0301     0.0000
 11 H      1.0920     1.0000    -0.0920     1.2685     1.2685    -0.0000
 12 H      1.1431     1.0000    -0.1431     1.0948     1.0948    -0.0000
 13 C      5.4877     6.0000     0.5123     4.1512     4.1512    -0.0000
 14 C      5.8664     6.0000     0.1336     4.8923     4.8923    -0.0000
 15 H      1.1819     1.0000    -0.1819     1.0530     1.0530    -0.0000
 16 H      0.9344     1.0000     0.0656     0.9004     0.9004    -0.0000
 17 H      1.1251     1.0000    -0.1251     1.1283     1.1283    -0.0000
 18 C      5.9246     6.0000     0.0754     4.7851     4.7851    -0.0000
 19 H      1.1873     1.0000    -0.1873     1.0412     1.0412    -0.0000
 20 H      1.0609     1.0000    -0.0609     1.1828     1.1828    -0.0000
 21 H      1.1001     1.0000    -0.1001     1.0298     1.0298     0.0000
 22 C      5.8955     6.0000     0.1045     4.5953     4.5953    -0.0000
 23 H      1.0553     1.0000    -0.0553     1.0800     1.0800    -0.0000
 24 H      0.9417     1.0000     0.0583     0.9629     0.9629    -0.0000
 25 C      5.4246     6.0000     0.5754     4.1078     4.1078    -0.0000
 26 F      9.5917     9.0000    -0.5917     0.9004     0.9004    -0.0000
 27 H      1.1581     1.0000    -0.1581     1.0319     1.0319    -0.0000
 28 H      0.8234     1.0000     0.1766     1.0538     1.0538    -0.0000
 29 H      0.8928     1.0000     0.1072     0.5184     0.5184     0.0000
 30 H      3.3141     1.0000    -2.3141    -1.3615    -1.3615     0.0000
 31 H      1.1219     1.0000    -0.1219     0.9096     0.9096     0.0000

  Mayer bond orders larger than 0.100000
B(  0-C ,  1-H ) :   0.7953 B(  0-C ,  2-C ) :   0.6291 B(  0-C ,  3-C ) :   1.1371 
B(  0-C ,  4-H ) :   1.0179 B(  0-C ,  5-H ) :   0.1082 B(  0-C ,  6-H ) :   0.1544 
B(  0-C , 29-H ) :   0.1394 B(  0-C , 30-H ) :   0.8116 B(  0-C , 31-H ) :   0.3465 
B(  1-H ,  2-C ) :   0.2934 B(  1-H ,  3-C ) :   0.1651 B(  1-H ,  4-H ) :  -0.1770 
B(  1-H , 30-H ) :  -0.1682 B(  2-C ,  4-H ) :  -0.1796 B(  2-C , 26-F ) :  -0.3168 
B(  2-C , 29-H ) :   0.7163 B(  2-C , 30-H ) :  -3.9528 B(  3-C ,  5-H ) :   0.7192 
B(  3-C ,  6-H ) :   0.8654 B(  3-C ,  7-C ) :   1.2050 B(  4-H , 29-H ) :  -0.1394 
B(  4-H , 30-H ) :   0.1607 B(  4-H , 31-H ) :   0.2504 B(  5-H ,  6-H ) :  -0.1276 
B(  5-H ,  7-C ) :   0.2486 B(  5-H , 31-H ) :   0.1306 B(  6-H , 31-H ) :  -0.1506 
B(  7-C ,  8-H ) :   0.8410 B(  7-C ,  9-C ) :   1.1743 B(  7-C , 10-H ) :   0.6868 
B(  7-C , 11-H ) :   0.1027 B(  7-C , 12-H ) :   0.1509 B(  8-H ,  9-C ) :   0.1807 
B(  8-H , 10-H ) :   0.1357 B(  8-H , 30-H ) :   0.1010 B(  9-C , 10-H ) :   0.1643 
B(  9-C , 11-H ) :   0.8821 B(  9-C , 12-H ) :   0.9080 B(  9-C , 13-C ) :   1.1748 
B(  9-C , 15-H ) :   0.2691 B(  9-C , 16-H ) :   0.1325 B( 11-H , 20-H ) :   0.1352 
B( 13-C , 14-C ) :   1.1825 B( 13-C , 15-H ) :   0.7642 B( 13-C , 16-H ) :   0.6969 
B( 13-C , 17-H ) :   0.1062 B( 14-C , 15-H ) :   0.1021 B( 14-C , 16-H ) :   0.2040 
B( 14-C , 17-H ) :   0.8721 B( 14-C , 18-C ) :   1.1949 B( 14-C , 19-H ) :   0.8513 
B( 14-C , 21-H ) :   0.2089 B( 15-H , 16-H ) :  -0.1203 B( 17-H , 18-C ) :   0.1049 
B( 18-C , 19-H ) :   0.1830 B( 18-C , 20-H ) :   0.8399 B( 18-C , 21-H ) :   0.8647 
B( 18-C , 22-C ) :   1.2131 B( 18-C , 24-H ) :   0.1948 B( 20-H , 22-C ) :   0.1158 
B( 22-C , 23-H ) :   0.8665 B( 22-C , 24-H ) :   0.7260 B( 22-C , 25-C ) :   1.2718 
B( 22-C , 27-H ) :   0.1065 B( 23-H , 25-C ) :   0.1515 B( 24-H , 25-C ) :   0.1157 
B( 25-C , 26-F ) :   0.5501 B( 25-C , 27-H ) :   0.9850 B( 25-C , 28-H ) :   0.7699 
B( 25-C , 30-H ) :   0.1952 B( 26-F , 30-H ) :   0.5075 B( 29-H , 30-H ) :   0.1228 
B( 29-H , 31-H ) :  -0.2192 B( 30-H , 31-H ) :   0.8394 

-------
TIMINGS
-------

Total SCF time: 0 days 0 hours 0 min 55 sec 

Total time                  ....      55.139 sec
Sum of individual times     ....      54.251 sec  ( 98.4%)

Fock matrix formation       ....      51.995 sec  ( 94.3%)
  Split-RI-J                ....       2.118 sec  (  4.1% of F)
  Chain of spheres X        ....      42.725 sec  ( 82.2% of F)
  XC integration            ....       3.538 sec  (  6.8% of F)
    Basis function eval.    ....       0.830 sec  ( 23.5% of XC)
    Density eval.           ....       1.005 sec  ( 28.4% of XC)
    XC-Functional eval.     ....       0.125 sec  (  3.5% of XC)
    XC-Potential eval.      ....       1.119 sec  ( 31.6% of XC)
Diagonalization             ....       0.090 sec  (  0.2%)
Density matrix formation    ....       0.023 sec  (  0.0%)
Population analysis         ....       0.037 sec  (  0.1%)
Initial guess               ....       0.253 sec  (  0.5%)
Orbital Transformation      ....       0.000 sec  (  0.0%)
Orbital Orthonormalization  ....       0.000 sec  (  0.0%)
DIIS solution               ....       0.039 sec  (  0.1%)
SOSCF solution              ....       0.275 sec  (  0.5%)
Grid generation             ....       1.540 sec  (  2.8%)

Maximum memory used throughout the entire SCF-calculation: 82.3 MB


-------------------------------------------------------------------------------
                          DFT DISPERSION CORRECTION                            
                                                                               
                              DFTD3 V3.1  Rev 1                                
                              USING zero damping                               
-------------------------------------------------------------------------------
The omegaB97X-D3 functional is recognized. Fit by Chai et al.
Active option DFTDOPT                   ...         3   

molecular C6(AA) [au] = 6727.491726 


            DFT-D V3
 parameters
 s6 scaling factor         :     1.0000 
 rs6 scaling factor        :     1.2810 
 s8 scaling factor         :     1.0000 
 rs8 scaling factor        :     1.0940 
 Damping factor alpha6     :    14.0000 
 Damping factor alpha8     :    16.0000 
 ad hoc parameters k1-k3   :    16.0000     1.3333    -4.0000 

 Edisp/kcal,au: -9.091448998891  -0.014488144649 
 E6   /kcal   :  -4.170220510 
 E8   /kcal   :  -4.921228489 
 % E8         :  54.130298589 

-------------------------   ----------------
Dispersion correction           -0.014488145
-------------------------   ----------------


-------------------------   --------------------
FINAL SINGLE POINT ENERGY      -493.060372700068
-------------------------   --------------------


                            ***************************************
                            *     ORCA property calculations      *
                            ***************************************

                                    ---------------------
                                    Active property flags
                                    ---------------------
   (+) Dipole Moment


------------------------------------------------------------------------------
                       ORCA ELECTRIC PROPERTIES CALCULATION
------------------------------------------------------------------------------

Dipole Moment Calculation                       ... on
Quadrupole Moment Calculation                   ... off
Polarizability Calculation                      ... off
GBWName                                         ... D_wt_wb97.gbw
Electron density file                           ... D_wt_wb97.scfp
The origin for moment calculation is the CENTER OF MASS  = ( 2.665729,  2.314745 -2.284010)

-------------
DIPOLE MOMENT
-------------
                                X             Y             Z
Electronic contribution:     -2.17034       3.47097       4.14926
Nuclear contribution   :      1.09293      -2.80761      -4.51228
                        -----------------------------------------
Total Dipole Moment    :     -1.07741       0.66336      -0.36302
                        -----------------------------------------
Magnitude (a.u.)       :      1.31630
Magnitude (Debye)      :      3.34578



--------------------
Rotational spectrum 
--------------------
 
Rotational constants in cm-1:     0.040502     0.027818     0.018259 
Rotational constants in MHz :  1214.218058   833.972871   547.398614 

 Dipole components along the rotational axes: 
x,y,z [a.u.] :    -1.225150     0.086327    -0.473506 
x,y,z [Debye]:    -3.114083     0.219425    -1.203558 

 

Timings for individual modules:

Sum of individual times         ...       56.474 sec (=   0.941 min)
GTO integral calculation        ...        0.899 sec (=   0.015 min)   1.6 %
SCF iterations                  ...       55.575 sec (=   0.926 min)  98.4 %
                             ****ORCA TERMINATED NORMALLY****
TOTAL RUN TIME: 0 days 0 hours 0 minutes 57 seconds 130 msec
