
                                        *****************
                                        * O   R   C   A *
                                        *****************

                                            #,                                       
                                            ###                                      
                                            ####                                     
                                            #####                                    
                                            ######                                   
                                           ########,                                 
                                     ,,################,,,,,                         
                               ,,#################################,,                 
                          ,,##########################################,,             
                       ,#########################################, ''#####,          
                    ,#############################################,,   '####,        
                  ,##################################################,,,,####,       
                ,###########''''           ''''###############################       
              ,#####''   ,,,,##########,,,,          '''####'''          '####       
            ,##' ,,,,###########################,,,                        '##       
           ' ,,###''''                  '''############,,,                           
         ,,##''                                '''############,,,,        ,,,,,,###''
      ,#''                                            '''#######################'''  
     '                                                          ''''####''''         
             ,#######,   #######,   ,#######,      ##                                
            ,#'     '#,  ##    ##  ,#'     '#,    #''#        ######   ,####,        
            ##       ##  ##   ,#'  ##            #'  '#       #        #'  '#        
            ##       ##  #######   ##           ,######,      #####,   #    #        
            '#,     ,#'  ##    ##  '#,     ,#' ,#      #,         ##   #,  ,#        
             '#######'   ##     ##  '#######'  #'      '#     #####' # '####'        



                  #######################################################
                  #                        -***-                        #
                  #          Department of theory and spectroscopy      #
                  #    Directorship and core code : Frank Neese         #
                  #        Max Planck Institute fuer Kohlenforschung    #
                  #                Kaiser Wilhelm Platz 1               #
                  #                 D-45470 Muelheim/Ruhr               #
                  #                      Germany                        #
                  #                                                     #
                  #                  All rights reserved                #
                  #                        -***-                        #
                  #######################################################


                         Program Version 5.0.0 -  RELEASE  -
                                (SVN: $Rev: 19529$)
                ($Date: 2021-06-28 11:36:33 +0200 (Mo, 28 Jun 2021) $)


 With contributions from (in alphabetic order):
   Daniel Aravena         : Magnetic Suceptibility
   Michael Atanasov       : Ab Initio Ligand Field Theory (pilot matlab implementation)
   Alexander A. Auer      : GIAO ZORA, VPT2 properties, NMR spectrum
   Ute Becker             : Parallelization
   Giovanni Bistoni       : ED, misc. LED, open-shell LED, HFLD
   Martin Brehm           : Molecular dynamics
   Dmytro Bykov           : SCF Hessian
   Vijay G. Chilkuri      : MRCI spin determinant printing, contributions to CSF-ICE
   Dipayan Datta          : RHF DLPNO-CCSD density
   Achintya Kumar Dutta   : EOM-CC, STEOM-CC
   Dmitry Ganyushin       : Spin-Orbit,Spin-Spin,Magnetic field MRCI
   Miquel Garcia          : C-PCM Hessian, Gaussian charge scheme
   Yang Guo               : DLPNO-NEVPT2, F12-NEVPT2, CIM, IAO-localization
   Andreas Hansen         : Spin unrestricted coupled pair/coupled cluster methods
   Benjamin Helmich-Paris : MC-RPA, TRAH-SCF, COSX integrals
   Lee Huntington         : MR-EOM, pCC
   Robert Izsak           : Overlap fitted RIJCOSX, COSX-SCS-MP3, EOM
   Marcus Kettner         : VPT2
   Christian Kollmar      : KDIIS, OOCD, Brueckner-CCSD(T), CCSD density, CASPT2, CASPT2-K
   Simone Kossmann        : Meta GGA functionals, TD-DFT gradient, OOMP2, MP2 Hessian
   Martin Krupicka        : Initial AUTO-CI
   Lucas Lang             : DCDCAS
   Marvin Lechner         : AUTO-CI (C++ implementation), FIC-MRCC
   Dagmar Lenk            : GEPOL surface, SMD
   Dimitrios Liakos       : Extrapolation schemes; Compound Job, initial MDCI parallelization
   Dimitrios Manganas     : Further ROCIS development; embedding schemes
   Dimitrios Pantazis     : SARC Basis sets
   Anastasios Papadopoulos: AUTO-CI, single reference methods and gradients
   Taras Petrenko         : DFT Hessian,TD-DFT gradient, ASA, ECA, R-Raman, ABS, FL, XAS/XES, NRVS
   Peter Pinski           : DLPNO-MP2, DLPNO-MP2 Gradient
   Christoph Reimann      : Effective Core Potentials
   Marius Retegan         : Local ZFS, SOC
   Christoph Riplinger    : Optimizer, TS searches, QM/MM, DLPNO-CCSD(T), (RO)-DLPNO pert. Triples
   Tobias Risthaus        : Range-separated hybrids, TD-DFT gradient, RPA, STAB
   Michael Roemelt        : Original ROCIS implementation
   Masaaki Saitow         : Open-shell DLPNO-CCSD energy and density
   Barbara Sandhoefer     : DKH picture change effects
   Avijit Sen             : IP-ROCIS
   Kantharuban Sivalingam : CASSCF convergence, NEVPT2, FIC-MRCI
   Bernardo de Souza      : ESD, SOC TD-DFT
   Georgi Stoychev        : AutoAux, RI-MP2 NMR
   Willem Van den Heuvel  : Paramagnetic NMR
   Boris Wezisla          : Elementary symmetry handling
   Frank Wennmohs         : Technical directorship


 We gratefully acknowledge several colleagues who have allowed us to
 interface, adapt or use parts of their codes:
   Stefan Grimme, W. Hujo, H. Kruse, P. Pracht,  : VdW corrections, initial TS optimization,
                  C. Bannwarth, S. Ehlert          DFT functionals, gCP, sTDA/sTD-DF
   Ed Valeev, F. Pavosevic, A. Kumar             : LibInt (2-el integral package), F12 methods
   Garnet Chan, S. Sharma, J. Yang, R. Olivares  : DMRG
   Ulf Ekstrom                                   : XCFun DFT Library
   Mihaly Kallay                                 : mrcc  (arbitrary order and MRCC methods)
   Jiri Pittner, Ondrej Demel                    : Mk-CCSD
   Frank Weinhold                                : gennbo (NPA and NBO analysis)
   Christopher J. Cramer and Donald G. Truhlar   : smd solvation model
   Lars Goerigk                                  : TD-DFT with DH, B97 family of functionals
   V. Asgeirsson, H. Jonsson                     : NEB implementation
   FAccTs GmbH                                   : IRC, NEB, NEB-TS, DLPNO-Multilevel, CI-OPT
                                                   MM, QMMM, 2- and 3-layer-ONIOM, Crystal-QMMM,
                                                   LR-CPCM, SF, NACMEs, symmetry and pop. for TD-DFT,
                                                   nearIR, NL-DFT gradient (VV10), updates on ESD,
                                                   ML-optimized integration grids
   S Lehtola, MJT Oliveira, MAL Marques          : LibXC Library
   Liviu Ungur et al                             : ANISO software


 Your calculation uses the libint2 library for the computation of 2-el integrals
 For citations please refer to: http://libint.valeyev.net

 Your ORCA version has been built with support for libXC version: 5.1.0
 For citations please refer to: https://tddft.org/programs/libxc/

 This ORCA versions uses:
   CBLAS   interface :  Fast vector & matrix operations
   LAPACKE interface :  Fast linear algebra routines
   SCALAPACK package :  Parallel linear algebra routines
   Shared memory     :  Shared parallel matrices
   BLAS/LAPACK       :  OpenBLAS 0.3.15  USE64BITINT DYNAMIC_ARCH NO_AFFINITY Haswell SINGLE_THREADED
        Core in use  :  Haswell
   Copyright (c) 2011-2014, The OpenBLAS Project


Your calculation utilizes the atom-pairwise dispersion correction
with the zero-damping scheme (D30)
Cite in your paper:
S.Grimme, J.Antony, S.Ehrlich and H.Krieg, J.Chem.Phys., 132, (2010), 154104 
   

XCFun DFT library Copyright 2009-2010 Ulf Ekstrom and contributors.
See http://admol.org/xcfun for more information.
This is free software; see the source code for copying conditions.
There is ABSOLUTELY NO WARRANTY; not even for MERCHANTABILITY or FITNESS FOR A PARTICULAR PURPOSE.
For details see the documentation.
Scientific users of this library should cite U. Ekstrom, L. Visscher, R. Bast, A. J. Thorvaldsen and K. Ruud;
J.Chem.Theor.Comp. 2010, DOI: 10.1021/ct100117s
XCFun Version 0.99 

================================================================================

----- Orbital basis set information -----
Your calculation utilizes the basis: def2-SVP
   F. Weigend and R. Ahlrichs, Phys. Chem. Chem. Phys. 7, 3297 (2005).

----- AuxJ basis set information -----
Your calculation utilizes the auxiliary basis: def2/J
   F. Weigend, Phys. Chem. Chem. Phys. 8, 1057 (2006).

================================================================================
                                        WARNINGS
                       Please study these warnings very carefully!
================================================================================


INFO   : the flag for use of the SHARK integral package has been found!

================================================================================
                                       INPUT FILE
================================================================================
NAME = SVP_wB97XD3_C1_wt_dlpno_neg.com
|  1> !wB97X-D3 RIJCOSX def2-SVP def2/J TightSCF
|  2> *xyz 0 1 
|  3> C         -0.10608        1.76991       -4.08984
|  4> C         -0.25875        1.00432       -5.40983
|  5> C          0.39596       -0.37070       -5.33994
|  6> H          0.23915        1.56939       -6.20125
|  7> H         -1.30936        0.88869       -5.68245
|  8> F         -0.32633       -1.39040       -5.49128
|  9> O          1.61941       -0.40073       -5.03683
| 10> H         -0.57627        2.72718       -4.17630
| 11> H          0.93321        1.90140       -3.87192
| 12> H         -0.56868        1.21534       -3.30031
| 13> *
| 14> %MaxCore 64000
| 15> 
| 16> %pal nprocs 4
| 17> end  
| 18> 
| 19> %scf
| 20>   MaxIter 150
| 21> end
| 22> 
| 23> 
| 24>                          ****END OF INPUT****
================================================================================

                       ****************************
                       * Single Point Calculation *
                       ****************************

---------------------------------
CARTESIAN COORDINATES (ANGSTROEM)
---------------------------------
  C     -0.106080    1.769910   -4.089840
  C     -0.258750    1.004320   -5.409830
  C      0.395960   -0.370700   -5.339940
  H      0.239150    1.569390   -6.201250
  H     -1.309360    0.888690   -5.682450
  F     -0.326330   -1.390400   -5.491280
  O      1.619410   -0.400730   -5.036830
  H     -0.576270    2.727180   -4.176300
  H      0.933210    1.901400   -3.871920
  H     -0.568680    1.215340   -3.300310

----------------------------
CARTESIAN COORDINATES (A.U.)
----------------------------
  NO LB      ZA    FRAG     MASS         X           Y           Z
   0 C     6.0000    0    12.011   -0.200462    3.344645   -7.728678
   1 C     6.0000    0    12.011   -0.488967    1.897890  -10.223097
   2 C     6.0000    0    12.011    0.748256   -0.700521  -10.091024
   3 H     1.0000    0     1.008    0.451928    2.965717  -11.718664
   4 H     1.0000    0     1.008   -2.474332    1.679381  -10.738274
   5 F     9.0000    0    18.998   -0.616674   -2.627475  -10.377015
   6 O     8.0000    0    15.999    3.060241   -0.757270   -9.518229
   7 H     1.0000    0     1.008   -1.088992    5.153623   -7.892063
   8 H     1.0000    0     1.008    1.763511    3.593125   -7.316868
   9 H     1.0000    0     1.008   -1.074649    2.296660   -6.236682

--------------------------------
INTERNAL COORDINATES (ANGSTROEM)
--------------------------------
 C      0   0   0     0.000000000000     0.00000000     0.00000000
 C      1   0   0     1.533561142276     0.00000000     0.00000000
 C      2   1   0     1.524535928275   111.59549479     0.00000000
 H      2   1   3     1.092499030343   108.65959152   241.39604748
 H      2   1   3     1.091546303828   111.32615887   122.32181944
 F      3   2   1     1.258727424703   118.60144394   118.44579200
 O      3   2   1     1.260796325938   116.69439283   303.37508509
 H      1   2   3     1.070009261923   109.47089552   180.00008670
 H      1   2   3     1.070001145140   109.47186238    60.00011054
 H      1   2   3     1.070001993363   109.47130051   299.99920492

---------------------------
INTERNAL COORDINATES (A.U.)
---------------------------
 C      0   0   0     0.000000000000     0.00000000     0.00000000
 C      1   0   0     2.898010568526     0.00000000     0.00000000
 C      2   1   0     2.880955385762   111.59549479     0.00000000
 H      2   1   3     2.064523968922   108.65959152   241.39604748
 H      2   1   3     2.062723576728   111.32615887   122.32181944
 F      3   2   1     2.378650109945   118.60144394   118.44579200
 O      3   2   1     2.382559766678   116.69439283   303.37508509
 H      1   2   3     2.022024465793   109.47089552   180.00008670
 H      1   2   3     2.022009127296   109.47186238    60.00011054
 H      1   2   3     2.022010730205   109.47130051   299.99920492

---------------------
BASIS SET INFORMATION
---------------------
There are 4 groups of distinct atoms

 Group   1 Type C   : 7s4p1d contracted to 3s2p1d pattern {511/31/1}
 Group   2 Type H   : 4s1p contracted to 2s1p pattern {31/1}
 Group   3 Type F   : 7s4p1d contracted to 3s2p1d pattern {511/31/1}
 Group   4 Type O   : 7s4p1d contracted to 3s2p1d pattern {511/31/1}

Atom   0C    basis set group =>   1
Atom   1C    basis set group =>   1
Atom   2C    basis set group =>   1
Atom   3H    basis set group =>   2
Atom   4H    basis set group =>   2
Atom   5F    basis set group =>   3
Atom   6O    basis set group =>   4
Atom   7H    basis set group =>   2
Atom   8H    basis set group =>   2
Atom   9H    basis set group =>   2
---------------------------------
AUXILIARY/J BASIS SET INFORMATION
---------------------------------
There are 4 groups of distinct atoms

 Group   1 Type C   : 12s5p4d2f1g contracted to 6s4p3d1f1g pattern {711111/2111/211/2/1}
 Group   2 Type H   : 5s2p1d contracted to 3s1p1d pattern {311/2/1}
 Group   3 Type F   : 12s5p4d2f1g contracted to 6s4p3d1f1g pattern {711111/2111/211/2/1}
 Group   4 Type O   : 12s5p4d2f1g contracted to 6s4p3d1f1g pattern {711111/2111/211/2/1}

Atom   0C    basis set group =>   1
Atom   1C    basis set group =>   1
Atom   2C    basis set group =>   1
Atom   3H    basis set group =>   2
Atom   4H    basis set group =>   2
Atom   5F    basis set group =>   3
Atom   6O    basis set group =>   4
Atom   7H    basis set group =>   2
Atom   8H    basis set group =>   2
Atom   9H    basis set group =>   2


           ************************************************************
           *        Program running with 4 parallel MPI-processes     *
           *              working on a common directory               *
           ************************************************************
------------------------------------------------------------------------------
                           ORCA GTO INTEGRAL CALCULATION
                           -- RI-GTO INTEGRALS CHOSEN --
------------------------------------------------------------------------------
------------------------------------------------------------------------------
                   ___                                                        
                  /   \      - P O W E R E D   B Y -                         
                 /     \                                                     
                 |  |  |   _    _      __       _____    __    __             
                 |  |  |  | |  | |    /  \     |  _  \  |  |  /  |          
                  \  \/   | |  | |   /    \    | | | |  |  | /  /          
                 / \  \   | |__| |  /  /\  \   | |_| |  |  |/  /          
                |  |  |   |  __  | /  /__\  \  |    /   |      \           
                |  |  |   | |  | | |   __   |  |    \   |  |\   \          
                \     /   | |  | | |  |  |  |  | |\  \  |  | \   \       
                 \___/    |_|  |_| |__|  |__|  |_| \__\ |__|  \__/        
                                                                              
                      - O R C A' S   B I G   F R I E N D -                    
                                      &                                       
                       - I N T E G R A L  F E E D E R -                       
                                                                              
 v1 FN, 2020, v2 2021                                                         
------------------------------------------------------------------------------


Reading SHARK input file SVP_wB97XD3_C1_wt_dlpno_neg.SHARKINP.tmp ... ok
----------------------
SHARK INTEGRAL PACKAGE
----------------------

Number of atoms                             ...     10
Number of basis functions                   ...     95
Number of shells                            ...     45
Maximum angular momentum                    ...      2
Integral batch strategy                     ... SHARK/LIBINT Hybrid
RI-J (if used) integral strategy            ... SPLIT-RIJ (Revised 2003 algorithm where possible)
Printlevel                                  ...      1
Contraction scheme used                     ... SEGMENTED contraction
Coulomb Range Separation                    ... NOT USED
Exchange Range Separation                   ... Long Range
   Mu parameter                             ...  0.250000
   Scaling (regular/separated)              ...  0.195728  0.804272
Finite Nucleus Model                        ... NOT USED
Auxiliary Coulomb fitting basis             ... AVAILABLE
   # of basis functions in Aux-J            ...    300
   # of shells in Aux-J                     ...    100
   Maximum angular momentum in Aux-J        ...      4
Auxiliary J/K fitting basis                 ... NOT available
Auxiliary Correlation fitting basis         ... NOT available
Auxiliary 'external' fitting basis          ... NOT available
Integral threshold                          ...     2.500000e-11
Primitive cut-off                           ...     2.500000e-12
Primitive pair pre-selection threshold      ...     2.500000e-12

Calculating pre-screening integrals         ... done (  0.0 sec) Dimension = 45
Organizing shell pair data                  ... done (  0.0 sec)
Shell pair information
Total number of shell pairs                 ...      1035
Shell pairs after pre-screening             ...      1017
Total number of primitive shell pairs       ...      3735
Primitive shell pairs kept                  ...      2931
          la=0 lb=0:    317 shell pairs
          la=1 lb=0:    369 shell pairs
          la=1 lb=1:    119 shell pairs
          la=2 lb=0:    123 shell pairs
          la=2 lb=1:     74 shell pairs
          la=2 lb=2:     15 shell pairs

Calculating one electron integrals          ... done (  0.0 sec)
Calculating RI/J V-Matrix + Cholesky decomp.... done (  0.0 sec)
Calculating Nuclear repulsion               ... done (  0.0 sec) ENN=    176.650396352964 Eh

SHARK setup successfully completed in   0.1 seconds

Maximum memory used throughout the entire GTOINT-calculation: 8.8 MB


           ************************************************************
           *        Program running with 4 parallel MPI-processes     *
           *              working on a common directory               *
           ************************************************************
-------------------------------------------------------------------------------
                                 ORCA SCF
-------------------------------------------------------------------------------

------------
SCF SETTINGS
------------
Hamiltonian:
 Density Functional     Method          .... DFT(GTOs)
 Exchange Functional    Exchange        .... WB97X-D3
 Correlation Functional Correlation     .... WB97X-D3
 Gradients option       PostSCFGGA      .... off
 Hybrid DFT is turned on
   Fraction HF Exchange ScalHFX         ....  0.195728
   Scaling of DF-GGA-X  ScalDFX         ....  0.000000
   Scaling of DF-GGA-C  ScalDFC         ....  1.000000
   Scaling of DF-LDA-C  ScalLDAC        ....  1.000000
   Perturbative correction              ....  0.000000
   Density functional embedding theory  .... OFF
 Long-range corrected/Screened/Range-Separated Hybrid DFT is turned on
   Amount of maximum screened exact exchange              ....  0.804272
   Range separation parameter mu (erf(mu*r12)/r12)        ....  0.250000
 RI-approximation to the Coulomb term is turned on
   Number of AuxJ basis functions       .... 300
   RIJ-COSX (HFX calculated with COS-X)).... on


General Settings:
 Integral files         IntName         .... SVP_wB97XD3_C1_wt_dlpno_neg
 Hartree-Fock type      HFTyp           .... RHF
 Total Charge           Charge          ....    0
 Multiplicity           Mult            ....    1
 Number of Electrons    NEL             ....   40
 Basis Dimension        Dim             ....   95
 Nuclear Repulsion      ENuc            ....    176.6503963530 Eh

Convergence Acceleration:
 DIIS                   CNVDIIS         .... on
   Start iteration      DIISMaxIt       ....    12
   Startup error        DIISStart       ....  0.200000
   # of expansion vecs  DIISMaxEq       ....     5
   Bias factor          DIISBfac        ....   1.050
   Max. coefficient     DIISMaxC        ....  10.000
 Trust-Rad. Augm. Hess. CNVTRAH         .... auto
   Auto Start mean grad. ratio tolernc. ....  1.125000
   Auto Start start iteration           ....    20
   Auto Start num. interpolation iter.  ....    10
   Max. Number of Micro iterations      ....    16
   Max. Number of Macro iterations      .... Maxiter - #DIIS iter
   Number of Davidson start vectors     ....     2
   Converg. threshold I  (grad. norm)   ....   1.000e-05
   Converg. threshold II (energy diff.) ....   1.000e-08
   Grad. Scal. Fac. for Micro threshold ....   0.100
   Minimum threshold for Micro iter.    ....   0.010
   NR start threshold (gradient norm)   ....   0.001
   Initial trust radius                 ....   0.400
   Minimum AH scaling param. (alpha)    ....   1.000
   Maximum AH scaling param. (alpha)    .... 1000.000
   Orbital update algorithm             .... Taylor
   White noise on init. David. guess    .... on
   Maximum white noise                  ....   0.010
   Quad. conv. algorithm                .... NR
 SOSCF                  CNVSOSCF        .... on
   Start iteration      SOSCFMaxIt      ....   150
   Startup grad/error   SOSCFStart      ....  0.003300
 Level Shifting         CNVShift        .... on
   Level shift para.    LevelShift      ....    0.2500
   Turn off err/grad.   ShiftErr        ....    0.0010
 Zerner damping         CNVZerner       .... off
 Static damping         CNVDamp         .... on
   Fraction old density DampFac         ....    0.7000
   Max. Damping (<1)    DampMax         ....    0.9800
   Min. Damping (>=0)   DampMin         ....    0.0000
   Turn off err/grad.   DampErr         ....    0.1000
 Fernandez-Rico         CNVRico         .... off

SCF Procedure:
 Maximum # iterations   MaxIter         ....   150
 SCF integral mode      SCFMode         .... Direct
   Integral package                     .... SHARK and LIBINT hybrid scheme
 Reset frequency        DirectResetFreq ....    20
 Integral Threshold     Thresh          ....  2.500e-11 Eh
 Primitive CutOff       TCut            ....  2.500e-12 Eh

Convergence Tolerance:
 Convergence Check Mode ConvCheckMode   .... Total+1el-Energy
 Convergence forced     ConvForced      .... 0
 Energy Change          TolE            ....  1.000e-08 Eh
 1-El. energy change                    ....  1.000e-05 Eh
 Orbital Gradient       TolG            ....  1.000e-05
 Orbital Rotation angle TolX            ....  1.000e-05
 DIIS Error             TolErr          ....  5.000e-07


Diagonalization of the overlap matrix:
Smallest eigenvalue                        ... 2.913e-03
Time for diagonalization                   ...    0.004 sec
Threshold for overlap eigenvalues          ... 1.000e-08
Number of eigenvalues below threshold      ... 0
Time for construction of square roots      ...    0.003 sec
Total time needed                          ...    0.007 sec

Time for model grid setup =    0.052 sec

------------------------------
INITIAL GUESS: MODEL POTENTIAL
------------------------------
Loading Hartree-Fock densities                     ... done
Calculating cut-offs                               ... done
Initializing the effective Hamiltonian             ... done
Setting up the integral package (SHARK)            ... done
Starting the Coulomb interaction                   ... done (   0.0 sec)
Reading the grid                                   ... done
Mapping shells                                     ... done
Starting the XC term evaluation                    ... done (   0.0 sec)
  promolecular density results
     # of electrons  =     39.998874167
     EX              =    -34.955945588
     EC              =     -1.330007930
     EX+EC           =    -36.285953517
Transforming the Hamiltonian                       ... done (   0.0 sec)
Diagonalizing the Hamiltonian                      ... done (   0.0 sec)
Back transforming the eigenvectors                 ... done (   0.0 sec)
Now organizing SCF variables                       ... done
                      ------------------
                      INITIAL GUESS DONE (   0.1 sec)
                      ------------------
-------------------
DFT GRID GENERATION
-------------------

General Integration Accuracy     IntAcc      ... 4.388
Radial Grid Type                 RadialGrid  ... OptM3 with GC (2021)
Angular Grid (max. ang.)         AngularGrid ... 4 (Lebedev-302)
Angular grid pruning method      GridPruning ... 4 (adaptive)
Weight generation scheme         WeightScheme... Becke
Basis function cutoff            BFCut       ... 1.0000e-11
Integration weight cutoff        WCut        ... 1.0000e-14
Angular grids for H and He will be reduced by one unit
Partially contracted basis set               ... off
Rotationally invariant grid construction     ... off

Total number of grid points                  ...    46574
Total number of batches                      ...      734
Average number of points per batch           ...       63
Average number of grid points per atom       ...     4657
Time for grid setup =    0.282 sec

--------------------
COSX GRID GENERATION
--------------------

GRIDX 1
-------
General Integration Accuracy     IntAcc      ... 3.816
Radial Grid Type                 RadialGrid  ... OptM3 with GC (2021)
Angular Grid (max. ang.)         AngularGrid ... 1 (Lebedev-50)
Angular grid pruning method      GridPruning ... 4 (adaptive)
Weight generation scheme         WeightScheme... Becke
Basis function cutoff            BFCut       ... 1.0000e-11
Integration weight cutoff        WCut        ... 1.0000e-14
Angular grids for H and He will be reduced by one unit
Partially contracted basis set               ... on
Rotationally invariant grid construction     ... off

Total number of grid points                  ...     5975
Total number of batches                      ...       99
Average number of points per batch           ...       60
Average number of grid points per atom       ...      598
UseSFitting                                  ... on

GRIDX 2
-------
General Integration Accuracy     IntAcc      ... 4.020
Radial Grid Type                 RadialGrid  ... OptM3 with GC (2021)
Angular Grid (max. ang.)         AngularGrid ... 2 (Lebedev-110)
Angular grid pruning method      GridPruning ... 4 (adaptive)
Weight generation scheme         WeightScheme... Becke
Basis function cutoff            BFCut       ... 1.0000e-11
Integration weight cutoff        WCut        ... 1.0000e-14
Angular grids for H and He will be reduced by one unit
Partially contracted basis set               ... on
Rotationally invariant grid construction     ... off

Total number of grid points                  ...    13109
Total number of batches                      ...      211
Average number of points per batch           ...       62
Average number of grid points per atom       ...     1311
UseSFitting                                  ... on

GRIDX 3
-------
General Integration Accuracy     IntAcc      ... 4.338
Radial Grid Type                 RadialGrid  ... OptM3 with GC (2021)
Angular Grid (max. ang.)         AngularGrid ... 3 (Lebedev-194)
Angular grid pruning method      GridPruning ... 4 (adaptive)
Weight generation scheme         WeightScheme... Becke
Basis function cutoff            BFCut       ... 1.0000e-11
Integration weight cutoff        WCut        ... 1.0000e-14
Angular grids for H and He will be reduced by one unit
Partially contracted basis set               ... on
Rotationally invariant grid construction     ... off

Total number of grid points                  ...    28841
Total number of batches                      ...      456
Average number of points per batch           ...       63
Average number of grid points per atom       ...     2884
UseSFitting                                  ... on

Time for X-Grid setup             =    0.228 sec

--------------
SCF ITERATIONS
--------------
ITER       Energy         Delta-E        Max-DP      RMS-DP      [F,P]     Damp
               ***  Starting incremental Fock matrix formation  ***
  0   -291.9068567749   0.000000000000 0.09241769  0.00322902  0.2687144 0.7000
  1   -291.9907383445  -0.083881569575 0.05723133  0.00204132  0.1176945 0.7000
                               ***Turning on DIIS***
  2   -292.0252484704  -0.034510125887 0.07688177  0.00323837  0.0482914 0.0000
  3   -292.0840003020  -0.058751831590 0.03964610  0.00155594  0.0635132 0.0000
  4   -292.0936331214  -0.009632819458 0.00886753  0.00037101  0.0117320 0.0000
  5   -292.0940909260  -0.000457804566 0.00307100  0.00012298  0.0044763 0.0000
                      *** Initiating the SOSCF procedure ***
                           *** Shutting down DIIS ***
                      *** Re-Reading the Fockian *** 
                      *** Removing any level shift *** 
ITER      Energy       Delta-E        Grad      Rot      Max-DP    RMS-DP
  6   -292.09413002  -0.0000390893  0.001058  0.001058  0.002042  0.000088
               *** Restarting incremental Fock matrix formation ***
  7   -292.09411420   0.0000158177  0.000280  0.000385  0.000923  0.000036
  8   -292.09411482  -0.0000006194  0.000434  0.000547  0.000589  0.000015
  9   -292.09411596  -0.0000011475  0.000048  0.000074  0.000241  0.000007
 10   -292.09411598  -0.0000000169  0.000051  0.000046  0.000079  0.000003
 11   -292.09411601  -0.0000000322  0.000006  0.000005  0.000014  0.000001
 12   -292.09411601   0.0000000003  0.000003  0.000001  0.000008  0.000000
                  ***Gradient check signals convergence***
              ***Rediagonalizing the Fockian in SOSCF/NRSCF***

               *****************************************************
               *                     SUCCESS                       *
               *           SCF CONVERGED AFTER  13 CYCLES          *
               *****************************************************

Old exchange energy                            =    -11.280740096 Eh
New exchange energy                            =    -11.280728360 Eh
Exchange energy change after final integration =      0.000011736 Eh
Total energy after final integration           =   -292.094104277 Eh
Final COS-X integration done in                =     1.722 sec

----------------
TOTAL SCF ENERGY
----------------

Total Energy       :         -292.09410428 Eh           -7948.28466 eV

Components:
Nuclear Repulsion  :          176.65039635 Eh            4806.90166 eV
Electronic Energy  :         -468.74450063 Eh          -12755.18632 eV
One Electron Energy:         -749.34503273 Eh          -20390.71498 eV
Two Electron Energy:          280.60053210 Eh            7635.52866 eV
Max COSX asymmetry :            0.00000167 Eh               0.00005 eV

Virial components:
Potential Energy   :         -581.77079038 Eh          -15830.78803 eV
Kinetic Energy     :          289.67668611 Eh            7882.50337 eV
Virial Ratio       :            2.00834523


DFT components:
N(Alpha)           :       20.000000417597 electrons
N(Beta)            :       20.000000417597 electrons
N(Total)           :       40.000000835193 electrons
E(XC)              :      -25.810650826478 Eh       
DFET-embed. en.    :        0.000000000000 Eh       

---------------
SCF CONVERGENCE
---------------

  Last Energy change         ...   -2.6796e-10  Tolerance :   1.0000e-08
  Last MAX-Density change    ...    3.1086e-15  Tolerance :   1.0000e-07
  Last RMS-Density change    ...    6.9227e-17  Tolerance :   5.0000e-09
  Last Orbital Gradient      ...    4.8067e-07  Tolerance :   1.0000e-05
  Last Orbital Rotation      ...    1.1800e-06  Tolerance :   1.0000e-05

             **** THE GBW FILE WAS UPDATED (SVP_wB97XD3_C1_wt_dlpno_neg.gbw) ****
             **** DENSITY SVP_wB97XD3_C1_wt_dlpno_neg.scfp WAS UPDATED ****
             **** ENERGY FILE WAS UPDATED (SVP_wB97XD3_C1_wt_dlpno_neg.en.tmp) ****
             **** THE GBW FILE WAS UPDATED (SVP_wB97XD3_C1_wt_dlpno_neg.gbw) ****
             **** DENSITY SVP_wB97XD3_C1_wt_dlpno_neg.scfp WAS UPDATED ****
----------------
ORBITAL ENERGIES
----------------

  NO   OCC          E(Eh)            E(eV) 
   0   2.0000     -24.857896      -676.4177 
   1   2.0000     -19.239425      -523.5314 
   2   2.0000     -10.462850      -284.7086 
   3   2.0000     -10.319010      -280.7945 
   4   2.0000     -10.294587      -280.1300 
   5   2.0000      -1.411933       -38.4206 
   6   2.0000      -1.129355       -30.7313 
   7   2.0000      -0.909991       -24.7621 
   8   2.0000      -0.792191       -21.5566 
   9   2.0000      -0.739294       -20.1172 
  10   2.0000      -0.649007       -17.6604 
  11   2.0000      -0.634095       -17.2546 
  12   2.0000      -0.604959       -16.4618 
  13   2.0000      -0.564601       -15.3636 
  14   2.0000      -0.529415       -14.4061 
  15   2.0000      -0.494731       -13.4623 
  16   2.0000      -0.472008       -12.8440 
  17   2.0000      -0.468555       -12.7500 
  18   2.0000      -0.435399       -11.8478 
  19   2.0000      -0.382839       -10.4176 
  20   0.0000       0.061812         1.6820 
  21   0.0000       0.147765         4.0209 
  22   0.0000       0.192228         5.2308 
  23   0.0000       0.195311         5.3147 
  24   0.0000       0.215772         5.8715 
  25   0.0000       0.235790         6.4162 
  26   0.0000       0.266478         7.2512 
  27   0.0000       0.310159         8.4398 
  28   0.0000       0.344984         9.3875 
  29   0.0000       0.388228        10.5642 
  30   0.0000       0.505251        13.7486 
  31   0.0000       0.515716        14.0333 
  32   0.0000       0.539164        14.6714 
  33   0.0000       0.555857        15.1256 
  34   0.0000       0.617311        16.7979 
  35   0.0000       0.649329        17.6691 
  36   0.0000       0.677215        18.4280 
  37   0.0000       0.718352        19.5474 
  38   0.0000       0.730816        19.8865 
  39   0.0000       0.749903        20.4059 
  40   0.0000       0.765772        20.8377 
  41   0.0000       0.772235        21.0136 
  42   0.0000       0.790514        21.5110 
  43   0.0000       0.794331        21.6148 
  44   0.0000       0.802489        21.8368 
  45   0.0000       0.932417        25.3724 
  46   0.0000       1.000953        27.2373 
  47   0.0000       1.032326        28.0910 
  48   0.0000       1.147302        31.2197 
  49   0.0000       1.179249        32.0890 
  50   0.0000       1.193624        32.4801 
  51   0.0000       1.256640        34.1949 
  52   0.0000       1.329632        36.1811 
  53   0.0000       1.370557        37.2947 
  54   0.0000       1.435446        39.0605 
  55   0.0000       1.452299        39.5191 
  56   0.0000       1.520719        41.3809 
  57   0.0000       1.634107        44.4663 
  58   0.0000       1.638485        44.5855 
  59   0.0000       1.686148        45.8824 
  60   0.0000       1.783614        48.5346 
  61   0.0000       1.807847        49.1940 
  62   0.0000       1.833668        49.8966 
  63   0.0000       1.879484        51.1434 
  64   0.0000       1.900020        51.7022 
  65   0.0000       1.911827        52.0235 
  66   0.0000       1.935176        52.6588 
  67   0.0000       1.952306        53.1250 
  68   0.0000       1.962290        53.3966 
  69   0.0000       2.029680        55.2304 
  70   0.0000       2.078338        56.5545 
  71   0.0000       2.150561        58.5197 
  72   0.0000       2.189934        59.5911 
  73   0.0000       2.279686        62.0334 
  74   0.0000       2.395217        65.1772 
  75   0.0000       2.444092        66.5071 
  76   0.0000       2.488836        67.7247 
  77   0.0000       2.588713        70.4425 
  78   0.0000       2.644282        71.9546 
  79   0.0000       2.697806        73.4110 
  80   0.0000       2.765588        75.2555 
  81   0.0000       2.795885        76.0799 
  82   0.0000       2.897397        78.8422 
  83   0.0000       2.961668        80.5911 
  84   0.0000       3.028203        82.4016 
  85   0.0000       3.039061        82.6970 
  86   0.0000       3.086229        83.9806 
  87   0.0000       3.099075        84.3301 
  88   0.0000       3.129204        85.1500 
  89   0.0000       3.209109        87.3243 
  90   0.0000       3.284763        89.3829 
  91   0.0000       3.497247        95.1649 
  92   0.0000       3.535930        96.2175 
  93   0.0000       3.788885       103.1008 
  94   0.0000       4.005929       109.0069 

                    ********************************
                    * MULLIKEN POPULATION ANALYSIS *
                    ********************************

-----------------------
MULLIKEN ATOMIC CHARGES
-----------------------
   0 C :   -0.037879
   1 C :   -0.119534
   2 C :    0.261097
   3 H :    0.077466
   4 H :    0.044631
   5 F :   -0.084595
   6 O :   -0.280858
   7 H :    0.041346
   8 H :    0.060053
   9 H :    0.038273
Sum of atomic charges:    0.0000000

--------------------------------
MULLIKEN REDUCED ORBITAL CHARGES
--------------------------------
  0 C s       :     3.010000  s :     3.010000
      pz      :     0.948423  p :     2.999321
      px      :     1.053319
      py      :     0.997579
      dz2     :     0.006820  d :     0.028559
      dxz     :     0.004650
      dyz     :     0.006465
      dx2y2   :     0.006050
      dxy     :     0.004575
  1 C s       :     3.060010  s :     3.060010
      pz      :     1.056874  p :     3.026086
      px      :     0.998859
      py      :     0.970353
      dz2     :     0.007490  d :     0.033437
      dxz     :     0.006185
      dyz     :     0.006226
      dx2y2   :     0.008048
      dxy     :     0.005489
  2 C s       :     3.087256  s :     3.087256
      pz      :     0.775052  p :     2.502631
      px      :     0.857446
      py      :     0.870133
      dz2     :     0.010870  d :     0.149016
      dxz     :     0.024001
      dyz     :     0.016138
      dx2y2   :     0.038961
      dxy     :     0.059047
  3 H s       :     0.899356  s :     0.899356
      pz      :     0.009497  p :     0.023177
      px      :     0.006852
      py      :     0.006828
  4 H s       :     0.933150  s :     0.933150
      pz      :     0.004443  p :     0.022218
      px      :     0.013974
      py      :     0.003802
  5 F s       :     3.861133  s :     3.861133
      pz      :     1.831449  p :     5.213059
      px      :     1.758339
      py      :     1.623271
      dz2     :     0.001325  d :     0.010403
      dxz     :     0.000935
      dyz     :     0.001896
      dx2y2   :     0.002443
      dxy     :     0.003804
  6 O s       :     3.786717  s :     3.786717
      pz      :     1.368011  p :     4.477490
      px      :     1.309307
      py      :     1.800172
      dz2     :     0.002138  d :     0.016651
      dxz     :     0.005518
      dyz     :     0.000221
      dx2y2   :     0.005534
      dxy     :     0.003240
  7 H s       :     0.933799  s :     0.933799
      pz      :     0.004620  p :     0.024855
      px      :     0.007282
      py      :     0.012953
  8 H s       :     0.915043  s :     0.915043
      pz      :     0.004745  p :     0.024905
      px      :     0.015228
      py      :     0.004932
  9 H s       :     0.936865  s :     0.936865
      pz      :     0.010167  p :     0.024862
      px      :     0.007168
      py      :     0.007528


                     *******************************
                     * LOEWDIN POPULATION ANALYSIS *
                     *******************************

----------------------
LOEWDIN ATOMIC CHARGES
----------------------
   0 C :   -0.039005
   1 C :   -0.075581
   2 C :    0.117332
   3 H :    0.052363
   4 H :    0.029508
   5 F :    0.036775
   6 O :   -0.211139
   7 H :    0.029045
   8 H :    0.033746
   9 H :    0.026955

-------------------------------
LOEWDIN REDUCED ORBITAL CHARGES
-------------------------------
  0 C s       :     2.817390  s :     2.817390
      pz      :     1.014290  p :     3.147882
      px      :     1.085054
      py      :     1.048539
      dz2     :     0.017475  d :     0.073733
      dxz     :     0.010687
      dyz     :     0.018206
      dx2y2   :     0.015822
      dxy     :     0.011543
  1 C s       :     2.847700  s :     2.847700
      pz      :     1.062807  p :     3.143639
      px      :     1.057574
      py      :     1.023258
      dz2     :     0.018437  d :     0.084242
      dxz     :     0.013321
      dyz     :     0.016367
      dx2y2   :     0.021218
      dxy     :     0.014899
  2 C s       :     2.875268  s :     2.875268
      pz      :     0.775310  p :     2.689195
      px      :     0.976747
      py      :     0.937138
      dz2     :     0.023002  d :     0.318205
      dxz     :     0.047219
      dyz     :     0.030103
      dx2y2   :     0.089421
      dxy     :     0.128460
  3 H s       :     0.879115  s :     0.879115
      pz      :     0.028436  p :     0.068522
      px      :     0.018821
      py      :     0.021265
  4 H s       :     0.901861  s :     0.901861
      pz      :     0.015663  p :     0.068631
      px      :     0.040217
      py      :     0.012751
  5 F s       :     3.685453  s :     3.685453
      pz      :     1.814135  p :     5.260388
      px      :     1.776687
      py      :     1.669566
      dz2     :     0.002559  d :     0.017384
      dxz     :     0.001300
      dyz     :     0.002394
      dx2y2   :     0.004155
      dxy     :     0.006976
  6 O s       :     3.589543  s :     3.589543
      pz      :     1.373966  p :     4.594066
      px      :     1.431854
      py      :     1.788246
      dz2     :     0.003757  d :     0.027530
      dxz     :     0.007626
      dyz     :     0.000305
      dx2y2   :     0.011419
      dxy     :     0.004424
  7 H s       :     0.901326  s :     0.901326
      pz      :     0.013845  p :     0.069629
      px      :     0.019668
      py      :     0.036116
  8 H s       :     0.895273  s :     0.895273
      pz      :     0.014786  p :     0.070981
      px      :     0.042198
      py      :     0.013997
  9 H s       :     0.903411  s :     0.903411
      pz      :     0.029301  p :     0.069633
      px      :     0.019294
      py      :     0.021039


                      *****************************
                      * MAYER POPULATION ANALYSIS *
                      *****************************

  NA   - Mulliken gross atomic population
  ZA   - Total nuclear charge
  QA   - Mulliken gross atomic charge
  VA   - Mayer's total valence
  BVA  - Mayer's bonded valence
  FA   - Mayer's free valence

  ATOM       NA         ZA         QA         VA         BVA        FA
  0 C      6.0379     6.0000    -0.0379     4.0318     4.0318    -0.0000
  1 C      6.1195     6.0000    -0.1195     3.9477     3.9477     0.0000
  2 C      5.7389     6.0000     0.2611     4.2822     4.2822     0.0000
  3 H      0.9225     1.0000     0.0775     0.9848     0.9848    -0.0000
  4 H      0.9554     1.0000     0.0446     0.9831     0.9831     0.0000
  5 F      9.0846     9.0000    -0.0846     1.2716     1.2716     0.0000
  6 O      8.2809     8.0000    -0.2809     2.1644     2.1644     0.0000
  7 H      0.9587     1.0000     0.0413     0.9888     0.9888     0.0000
  8 H      0.9399     1.0000     0.0601     1.0047     1.0047    -0.0000
  9 H      0.9617     1.0000     0.0383     0.9863     0.9863     0.0000

  Mayer bond orders larger than 0.100000
B(  0-C ,  1-C ) :   1.0766 B(  0-C ,  7-H ) :   0.9741 B(  0-C ,  8-H ) :   0.9723 
B(  0-C ,  9-H ) :   0.9796 B(  1-C ,  2-C ) :   0.9903 B(  1-C ,  3-H ) :   0.9373 
B(  1-C ,  4-H ) :   0.9459 B(  2-C ,  5-F ) :   1.1923 B(  2-C ,  6-O ) :   2.0566 


-------
TIMINGS
-------

Total SCF time: 0 days 0 hours 0 min 10 sec 

Total time                  ....      10.393 sec
Sum of individual times     ....      10.257 sec  ( 98.7%)

Fock matrix formation       ....       9.590 sec  ( 92.3%)
  Split-RI-J                ....       0.551 sec  (  5.7% of F)
  Chain of spheres X        ....       7.715 sec  ( 80.4% of F)
  XC integration            ....       1.302 sec  ( 13.6% of F)
    Basis function eval.    ....       0.493 sec  ( 37.8% of XC)
    Density eval.           ....       0.228 sec  ( 17.5% of XC)
    XC-Functional eval.     ....       0.267 sec  ( 20.5% of XC)
    XC-Potential eval.      ....       0.202 sec  ( 15.5% of XC)
Diagonalization             ....       0.020 sec  (  0.2%)
Density matrix formation    ....       0.002 sec  (  0.0%)
Population analysis         ....       0.006 sec  (  0.1%)
Initial guess               ....       0.047 sec  (  0.5%)
Orbital Transformation      ....       0.000 sec  (  0.0%)
Orbital Orthonormalization  ....       0.000 sec  (  0.0%)
DIIS solution               ....       0.015 sec  (  0.1%)
SOSCF solution              ....       0.015 sec  (  0.1%)
Grid generation             ....       0.562 sec  (  5.4%)

Maximum memory used throughout the entire SCF-calculation: 46.9 MB


-------------------------------------------------------------------------------
                          DFT DISPERSION CORRECTION                            
                                                                               
                              DFTD3 V3.1  Rev 1                                
                              USING zero damping                               
-------------------------------------------------------------------------------
The omegaB97X-D3 functional is recognized. Fit by Chai et al.
Active option DFTDOPT                   ...         3   

molecular C6(AA) [au] = 808.353372 


            DFT-D V3
 parameters
 s6 scaling factor         :     1.0000 
 rs6 scaling factor        :     1.2810 
 s8 scaling factor         :     1.0000 
 rs8 scaling factor        :     1.0940 
 Damping factor alpha6     :    14.0000 
 Damping factor alpha8     :    16.0000 
 ad hoc parameters k1-k3   :    16.0000     1.3333    -4.0000 

 Edisp/kcal,au: -1.202009927486  -0.001915524544 
 E6   /kcal   :  -0.421344265 
 E8   /kcal   :  -0.780665662 
 % E8         :  64.946690064 

-------------------------   ----------------
Dispersion correction           -0.001915525
-------------------------   ----------------


-------------------------   --------------------
FINAL SINGLE POINT ENERGY      -292.096019801917
-------------------------   --------------------


                            ***************************************
                            *     ORCA property calculations      *
                            ***************************************

                                    ---------------------
                                    Active property flags
                                    ---------------------
   (+) Dipole Moment


------------------------------------------------------------------------------
                       ORCA ELECTRIC PROPERTIES CALCULATION
------------------------------------------------------------------------------

Dipole Moment Calculation                       ... on
Quadrupole Moment Calculation                   ... off
Polarizability Calculation                      ... off
GBWName                                         ... SVP_wB97XD3_C1_wt_dlpno_neg.gbw
Electron density file                           ... SVP_wB97XD3_C1_wt_dlpno_neg.scfp
The origin for moment calculation is the CENTER OF MASS  = ( 0.466805,  0.109581 -9.603004)

-------------
DIPOLE MOMENT
-------------
                                X             Y             Z
Electronic contribution:      0.88091      -8.22128      -2.57269
Nuclear contribution   :     -1.80992       8.85192       2.42184
                        -----------------------------------------
Total Dipole Moment    :     -0.92901       0.63064      -0.15085
                        -----------------------------------------
Magnitude (a.u.)       :      1.13293
Magnitude (Debye)      :      2.87968



--------------------
Rotational spectrum 
--------------------
 
Rotational constants in cm-1:     0.298360     0.128849     0.102271 
Rotational constants in MHz :  8944.606599  3862.796179  3066.020510 

 Dipole components along the rotational axes: 
x,y,z [a.u.] :    -0.664101    -0.897451     0.192574 
x,y,z [Debye]:    -1.688011    -2.281138     0.489485 

 

Timings for individual modules:

Sum of individual times         ...       14.292 sec (=   0.238 min)
GTO integral calculation        ...        2.382 sec (=   0.040 min)  16.7 %
SCF iterations                  ...       11.910 sec (=   0.199 min)  83.3 %
                             ****ORCA TERMINATED NORMALLY****
TOTAL RUN TIME: 0 days 0 hours 0 minutes 14 seconds 830 msec
