
                                        *****************
                                        * O   R   C   A *
                                        *****************

                                            #,                                       
                                            ###                                      
                                            ####                                     
                                            #####                                    
                                            ######                                   
                                           ########,                                 
                                     ,,################,,,,,                         
                               ,,#################################,,                 
                          ,,##########################################,,             
                       ,#########################################, ''#####,          
                    ,#############################################,,   '####,        
                  ,##################################################,,,,####,       
                ,###########''''           ''''###############################       
              ,#####''   ,,,,##########,,,,          '''####'''          '####       
            ,##' ,,,,###########################,,,                        '##       
           ' ,,###''''                  '''############,,,                           
         ,,##''                                '''############,,,,        ,,,,,,###''
      ,#''                                            '''#######################'''  
     '                                                          ''''####''''         
             ,#######,   #######,   ,#######,      ##                                
            ,#'     '#,  ##    ##  ,#'     '#,    #''#        ######   ,####,        
            ##       ##  ##   ,#'  ##            #'  '#       #        #'  '#        
            ##       ##  #######   ##           ,######,      #####,   #    #        
            '#,     ,#'  ##    ##  '#,     ,#' ,#      #,         ##   #,  ,#        
             '#######'   ##     ##  '#######'  #'      '#     #####' # '####'        



                  #######################################################
                  #                        -***-                        #
                  #          Department of theory and spectroscopy      #
                  #    Directorship and core code : Frank Neese         #
                  #        Max Planck Institute fuer Kohlenforschung    #
                  #                Kaiser Wilhelm Platz 1               #
                  #                 D-45470 Muelheim/Ruhr               #
                  #                      Germany                        #
                  #                                                     #
                  #                  All rights reserved                #
                  #                        -***-                        #
                  #######################################################


                         Program Version 5.0.0 -  RELEASE  -
                                (SVN: $Rev: 19529$)
                ($Date: 2021-06-28 11:36:33 +0200 (Mo, 28 Jun 2021) $)


 With contributions from (in alphabetic order):
   Daniel Aravena         : Magnetic Suceptibility
   Michael Atanasov       : Ab Initio Ligand Field Theory (pilot matlab implementation)
   Alexander A. Auer      : GIAO ZORA, VPT2 properties, NMR spectrum
   Ute Becker             : Parallelization
   Giovanni Bistoni       : ED, misc. LED, open-shell LED, HFLD
   Martin Brehm           : Molecular dynamics
   Dmytro Bykov           : SCF Hessian
   Vijay G. Chilkuri      : MRCI spin determinant printing, contributions to CSF-ICE
   Dipayan Datta          : RHF DLPNO-CCSD density
   Achintya Kumar Dutta   : EOM-CC, STEOM-CC
   Dmitry Ganyushin       : Spin-Orbit,Spin-Spin,Magnetic field MRCI
   Miquel Garcia          : C-PCM Hessian, Gaussian charge scheme
   Yang Guo               : DLPNO-NEVPT2, F12-NEVPT2, CIM, IAO-localization
   Andreas Hansen         : Spin unrestricted coupled pair/coupled cluster methods
   Benjamin Helmich-Paris : MC-RPA, TRAH-SCF, COSX integrals
   Lee Huntington         : MR-EOM, pCC
   Robert Izsak           : Overlap fitted RIJCOSX, COSX-SCS-MP3, EOM
   Marcus Kettner         : VPT2
   Christian Kollmar      : KDIIS, OOCD, Brueckner-CCSD(T), CCSD density, CASPT2, CASPT2-K
   Simone Kossmann        : Meta GGA functionals, TD-DFT gradient, OOMP2, MP2 Hessian
   Martin Krupicka        : Initial AUTO-CI
   Lucas Lang             : DCDCAS
   Marvin Lechner         : AUTO-CI (C++ implementation), FIC-MRCC
   Dagmar Lenk            : GEPOL surface, SMD
   Dimitrios Liakos       : Extrapolation schemes; Compound Job, initial MDCI parallelization
   Dimitrios Manganas     : Further ROCIS development; embedding schemes
   Dimitrios Pantazis     : SARC Basis sets
   Anastasios Papadopoulos: AUTO-CI, single reference methods and gradients
   Taras Petrenko         : DFT Hessian,TD-DFT gradient, ASA, ECA, R-Raman, ABS, FL, XAS/XES, NRVS
   Peter Pinski           : DLPNO-MP2, DLPNO-MP2 Gradient
   Christoph Reimann      : Effective Core Potentials
   Marius Retegan         : Local ZFS, SOC
   Christoph Riplinger    : Optimizer, TS searches, QM/MM, DLPNO-CCSD(T), (RO)-DLPNO pert. Triples
   Tobias Risthaus        : Range-separated hybrids, TD-DFT gradient, RPA, STAB
   Michael Roemelt        : Original ROCIS implementation
   Masaaki Saitow         : Open-shell DLPNO-CCSD energy and density
   Barbara Sandhoefer     : DKH picture change effects
   Avijit Sen             : IP-ROCIS
   Kantharuban Sivalingam : CASSCF convergence, NEVPT2, FIC-MRCI
   Bernardo de Souza      : ESD, SOC TD-DFT
   Georgi Stoychev        : AutoAux, RI-MP2 NMR
   Willem Van den Heuvel  : Paramagnetic NMR
   Boris Wezisla          : Elementary symmetry handling
   Frank Wennmohs         : Technical directorship


 We gratefully acknowledge several colleagues who have allowed us to
 interface, adapt or use parts of their codes:
   Stefan Grimme, W. Hujo, H. Kruse, P. Pracht,  : VdW corrections, initial TS optimization,
                  C. Bannwarth, S. Ehlert          DFT functionals, gCP, sTDA/sTD-DF
   Ed Valeev, F. Pavosevic, A. Kumar             : LibInt (2-el integral package), F12 methods
   Garnet Chan, S. Sharma, J. Yang, R. Olivares  : DMRG
   Ulf Ekstrom                                   : XCFun DFT Library
   Mihaly Kallay                                 : mrcc  (arbitrary order and MRCC methods)
   Jiri Pittner, Ondrej Demel                    : Mk-CCSD
   Frank Weinhold                                : gennbo (NPA and NBO analysis)
   Christopher J. Cramer and Donald G. Truhlar   : smd solvation model
   Lars Goerigk                                  : TD-DFT with DH, B97 family of functionals
   V. Asgeirsson, H. Jonsson                     : NEB implementation
   FAccTs GmbH                                   : IRC, NEB, NEB-TS, DLPNO-Multilevel, CI-OPT
                                                   MM, QMMM, 2- and 3-layer-ONIOM, Crystal-QMMM,
                                                   LR-CPCM, SF, NACMEs, symmetry and pop. for TD-DFT,
                                                   nearIR, NL-DFT gradient (VV10), updates on ESD,
                                                   ML-optimized integration grids
   S Lehtola, MJT Oliveira, MAL Marques          : LibXC Library
   Liviu Ungur et al                             : ANISO software


 Your calculation uses the libint2 library for the computation of 2-el integrals
 For citations please refer to: http://libint.valeyev.net

 Your ORCA version has been built with support for libXC version: 5.1.0
 For citations please refer to: https://tddft.org/programs/libxc/

 This ORCA versions uses:
   CBLAS   interface :  Fast vector & matrix operations
   LAPACKE interface :  Fast linear algebra routines
   SCALAPACK package :  Parallel linear algebra routines
   Shared memory     :  Shared parallel matrices
   BLAS/LAPACK       :  OpenBLAS 0.3.15  USE64BITINT DYNAMIC_ARCH NO_AFFINITY Haswell SINGLE_THREADED
        Core in use  :  Haswell
   Copyright (c) 2011-2014, The OpenBLAS Project




***************************************
The coordinates will be read from file: B.xyz
***************************************


Your calculation utilizes the atom-pairwise dispersion correction
with the Becke-Johnson damping scheme (D3BJ)
Cite in your paper:
S.Grimme, S.Ehrlich, L.Goerigk, J Comput Chem, (2011), 32, 1456–1465 
S.Grimme, J.Antony, S.Ehrlich and H.Krieg, J.Chem.Phys., 132, (2010), 154104 
   

================================================================================

----- Orbital basis set information -----
Your calculation utilizes the basis: def2-SVPD
   F. Weigend and R. Ahlrichs, Phys. Chem. Chem. Phys. 7, 3297 (2005).
   D. Rappoport and F. Furche, J. Chem. Phys. 133 134105 (2010).

----- AuxJ basis set information -----
Your calculation utilizes the auxiliary basis: def2/J
   F. Weigend, Phys. Chem. Chem. Phys. 8, 1057 (2006).

================================================================================
                                        WARNINGS
                       Please study these warnings very carefully!
================================================================================



WARNING: Found flag for RIJCOSX approximation but no HF exchange needed!
  ===> : RIJCOSX  will be disabled and Split-RI-J is turned on

INFO   : the flag for use of the SHARK integral package has been found!

================================================================================
                                       INPUT FILE
================================================================================
NAME = 28Oct_SVPD_BLYP_B_wt_wb97.com
|  1> !BLYP D3BJ RIJCOSX def2-SVPD def2/J TightSCF xyzfile                                                                                         
|  2> 
|  3> *xyzfile 0 1 B.xyz
|  4> 
|  5> %MaxCore 64000
|  6> 
|  7> %pal nprocs 4                                                                                                                                                  
|  8> end  
|  9> 
| 10> %scf
| 11>   MaxIter 150
| 12> end
| 13> 
| 14> 
| 15>                          ****END OF INPUT****
================================================================================

                       ****************************
                       * Single Point Calculation *
                       ****************************

---------------------------------
CARTESIAN COORDINATES (ANGSTROEM)
---------------------------------
  C     -2.160376   -1.369486   -3.467104
  N     -3.030108   -1.910857   -4.541074
  C     -2.047717    0.146583   -3.511774
  C     -7.330440   -2.678991   -3.206811
  S     -6.019659   -2.926965   -4.419128
  H     -3.477443   -2.791513   -4.257096
  H     -2.538013   -2.017860   -5.438075
  H     -3.891589   -1.376039   -4.714365
  O     -5.645830   -1.588384   -4.919307
  O     -4.881961   -3.503697   -3.667235
  H     -1.184438   -1.843997   -3.566393
  H     -2.598195   -1.708376   -2.528477
  O     -6.549267   -3.805150   -5.425071
  C     -3.328755    0.875037   -3.103669
  H     -1.740034    0.452343   -4.517126
  H     -1.232611    0.434938   -2.842208
  C     -3.628487    0.771601   -1.609363
  H     -4.175106    0.490791   -3.682203
  H     -3.237812    1.928663   -3.381480
  C     -4.975718    1.361432   -1.190644
  H     -2.830700    1.276234   -1.054766
  H     -3.594312   -0.275838   -1.294603
  C     -6.184720    0.784347   -1.926464
  H     -4.956292    2.445725   -1.342200
  H     -5.097256    1.205252   -0.114136
  C     -6.286921   -0.735882   -1.893531
  H     -6.163994    1.100199   -2.974250
  H     -7.094530    1.223459   -1.504509
  C     -7.468999   -1.246153   -2.713833
  H     -6.360641   -1.090347   -0.859176
  H     -5.369848   -1.171853   -2.295982
  H     -7.601914   -0.601349   -3.585329
  H     -8.389791   -1.173436   -2.126922
  H     -7.118254   -3.379818   -2.398055
  H     -8.241838   -3.004745   -3.706513

----------------------------
CARTESIAN COORDINATES (A.U.)
----------------------------
  NO LB      ZA    FRAG     MASS         X           Y           Z
   0 C     6.0000    0    12.011   -4.082518   -2.587954   -6.551877
   1 N     7.0000    0    14.007   -5.726074   -3.610996   -8.581386
   2 C     6.0000    0    12.011   -3.869623    0.277002   -6.636292
   3 C     6.0000    0    12.011  -13.852524   -5.062559   -6.059995
   4 S    16.0000    0    32.060  -11.375507   -5.531163   -8.350943
   5 H     1.0000    0     1.008   -6.571415   -5.275195   -8.044745
   6 H     1.0000    0     1.008   -4.796150   -3.813203  -10.276473
   7 H     1.0000    0     1.008   -7.354037   -2.600336   -8.908859
   8 O     8.0000    0    15.999  -10.669072   -3.001610   -9.296143
   9 O     8.0000    0    15.999   -9.225569   -6.621027   -6.930070
  10 H     1.0000    0     1.008   -2.238264   -3.484650   -6.739505
  11 H     1.0000    0     1.008   -4.909877   -3.228363   -4.778129
  12 O     8.0000    0    15.999  -12.376322   -7.190690  -10.251898
  13 C     6.0000    0    12.011   -6.290435    1.653581   -5.865085
  14 H     1.0000    0     1.008   -3.288188    0.854804   -8.536131
  15 H     1.0000    0     1.008   -2.329296    0.821914   -5.370995
  16 C     6.0000    0    12.011   -6.856848    1.458114   -3.041255
  17 H     1.0000    0     1.008   -7.889807    0.927461   -6.958355
  18 H     1.0000    0     1.008   -6.118579    3.644644   -6.390072
  19 C     6.0000    0    12.011   -9.402744    2.572734   -2.249990
  20 H     1.0000    0     1.008   -5.349249    2.411732   -1.993218
  21 H     1.0000    0     1.008   -6.792265   -0.521259   -2.446444
  22 C     6.0000    0    12.011  -11.687426    1.482200   -3.640489
  23 H     1.0000    0     1.008   -9.366034    4.621751   -2.536390
  24 H     1.0000    0     1.008   -9.632418    2.277595   -0.215686
  25 C     6.0000    0    12.011  -11.880560   -1.390615   -3.578255
  26 H     1.0000    0     1.008  -11.648260    2.079075   -5.620517
  27 H     1.0000    0     1.008  -13.406719    2.312003   -2.843110
  28 C     6.0000    0    12.011  -14.114362   -2.354887   -5.128401
  29 H     1.0000    0     1.008  -12.019870   -2.060457   -1.623607
  30 H     1.0000    0     1.008  -10.147543   -2.214481   -4.338777
  31 H     1.0000    0     1.008  -14.365535   -1.136385   -6.775290
  32 H     1.0000    0     1.008  -15.854408   -2.217473   -4.019300
  33 H     1.0000    0     1.008  -13.451551   -6.386931   -4.531667
  34 H     1.0000    0     1.008  -15.574817   -5.678144   -7.004294

--------------------------------
INTERNAL COORDINATES (ANGSTROEM)
--------------------------------
 C      0   0   0     0.000000000000     0.00000000     0.00000000
 N      1   0   0     1.484226581495     0.00000000     0.00000000
 C      1   2   0     1.520905750528   112.68986798     0.00000000
 C      2   1   3     4.567618736384   113.68216683   263.81603785
 S      4   2   1     1.802595963950    30.91452866   194.59383350
 H      2   1   3     1.027767820417   111.57120593   208.68726322
 H      2   1   3     1.028697553107   112.86611894    82.75220501
 H      2   1   3     1.028693208574   115.02372528   318.31408853
 O      5   4   2     1.477067148400   106.68507953   299.62597852
 O      5   4   2     1.480648261716   105.71156573    55.90342764
 H      1   2   3     1.089712185385   107.46022800   236.88738252
 H      1   2   3     1.089748661171   105.92561004   122.05716888
 O      5   4   2     1.436527814876   106.67629747   177.15957963
 C      3   1   2     1.529135300842   113.88949220    70.59640687
 H      3   1   2     1.094938120430   109.03484389   306.90098892
 H      3   1   2     1.093556158802   107.46216848   192.19019489
 C     14   3   1     1.527576732566   113.15347637    71.26668089
 H     14   3   1     1.094831575636   109.84013188   307.96048514
 H     14   3   1     1.093424107174   108.75708755   192.89364962
 C     17  14   3     1.529136080547   114.49521460   186.13753798
 H     17  14   3     1.094850074113   108.74351633    63.97481107
 H     17  14   3     1.094243868612   109.88138487   308.57258014
 C     20  17  14     1.528445198311   114.79932259    55.82149932
 H     20  17  14     1.095005972231   109.17320643   293.45363113
 H     20  17  14     1.094546662157   108.18615316   178.26632771
 C     23  20  17     1.524015703976   114.78835580    53.03073762
 H     23  20  17     1.094553324327   109.68915562   291.18092961
 H     23  20  17     1.094815721863   108.68448619   176.18552485
 C      4   2   1     1.521594700151    91.26142952    54.36790626
 H     26  23  20     1.095888358777   110.33775009    60.06699795
 H     26  23  20     1.092272961399   109.50461690   303.79776510
 H     29   4   2     1.092219950072   107.96835357    76.34033964
 H     29   4   2     1.094354019520   108.23696290   191.41281199
 H      4   2   1     1.090994494309    98.13260579   301.44031108
 H      4   2   1     1.089249417897   134.75221821   175.73446304

---------------------------
INTERNAL COORDINATES (A.U.)
---------------------------
 C      0   0   0     0.000000000000     0.00000000     0.00000000
 N      1   0   0     2.804781759712     0.00000000     0.00000000
 C      1   2   0     2.874095344004   112.68986798     0.00000000
 C      2   1   3     8.631548495934   113.68216683   263.81603785
 S      4   2   1     3.406412701977    30.91452866   194.59383350
 H      2   1   3     1.942199709846   111.57120593   208.68726322
 H      2   1   3     1.943956650006   112.86611894    82.75220501
 H      2   1   3     1.943948440030   115.02372528   318.31408853
 O      5   4   2     2.791252391888   106.68507953   299.62597852
 O      5   4   2     2.798019715310   105.71156573    55.90342764
 H      1   2   3     2.059257595174   107.46022800   236.88738252
 H      1   2   3     2.059326524421   105.92561004   122.05716888
 O      5   4   2     2.714644153876   106.67629747   177.15957963
 C      3   1   2     2.889646940303   113.88949220    70.59640687
 H      3   1   2     2.069133181204   109.03484389   306.90098892
 H      3   1   2     2.066521652198   107.46216848   192.19019489
 C     14   3   1     2.886701673100   113.15347637    71.26668089
 H     14   3   1     2.068931840722   109.84013188   307.96048514
 H     14   3   1     2.066272110786   108.75708755   192.89364962
 C     17  14   3     2.889648413732   114.49521460   186.13753798
 H     17  14   3     2.068966797776   108.74351633    63.97481107
 H     17  14   3     2.067821235399   109.88138487   308.57258014
 C     20  17  14     2.888342835514   114.79932259    55.82149932
 H     20  17  14     2.069261402524   109.17320643   293.45363113
 H     20  17  14     2.068393432275   108.18615316   178.26632771
 C     23  20  17     2.879972304309   114.78835580    53.03073762
 H     23  20  17     2.068406021952   109.68915562   291.18092961
 H     23  20  17     2.068901881432   108.68448619   176.18552485
 C      4   2   1     2.875397270111    91.26142952    54.36790626
 H     26  23  20     2.070928871442   110.33775009    60.06699795
 H     26  23  20     2.064096760532   109.50461690   303.79776510
 H     29   4   2     2.063996583642   107.96835357    76.34033964
 H     29   4   2     2.068029390448   108.23696290   191.41281199
 H      4   2   1     2.061680807860    98.13260579   301.44031108
 H      4   2   1     2.058383091359   134.75221821   175.73446304

---------------------
BASIS SET INFORMATION
---------------------
There are 5 groups of distinct atoms

 Group   1 Type C   : 8s4p2d contracted to 4s2p2d pattern {5111/31/11}
 Group   2 Type N   : 8s4p2d contracted to 4s2p2d pattern {5111/31/11}
 Group   3 Type S   : 11s8p2d contracted to 5s4p2d pattern {53111/5111/11}
 Group   4 Type H   : 4s2p contracted to 2s2p pattern {31/11}
 Group   5 Type O   : 8s5p2d contracted to 4s3p2d pattern {5111/311/11}

Atom   0C    basis set group =>   1
Atom   1N    basis set group =>   2
Atom   2C    basis set group =>   1
Atom   3C    basis set group =>   1
Atom   4S    basis set group =>   3
Atom   5H    basis set group =>   4
Atom   6H    basis set group =>   4
Atom   7H    basis set group =>   4
Atom   8O    basis set group =>   5
Atom   9O    basis set group =>   5
Atom  10H    basis set group =>   4
Atom  11H    basis set group =>   4
Atom  12O    basis set group =>   5
Atom  13C    basis set group =>   1
Atom  14H    basis set group =>   4
Atom  15H    basis set group =>   4
Atom  16C    basis set group =>   1
Atom  17H    basis set group =>   4
Atom  18H    basis set group =>   4
Atom  19C    basis set group =>   1
Atom  20H    basis set group =>   4
Atom  21H    basis set group =>   4
Atom  22C    basis set group =>   1
Atom  23H    basis set group =>   4
Atom  24H    basis set group =>   4
Atom  25C    basis set group =>   1
Atom  26H    basis set group =>   4
Atom  27H    basis set group =>   4
Atom  28C    basis set group =>   1
Atom  29H    basis set group =>   4
Atom  30H    basis set group =>   4
Atom  31H    basis set group =>   4
Atom  32H    basis set group =>   4
Atom  33H    basis set group =>   4
Atom  34H    basis set group =>   4
---------------------------------
AUXILIARY/J BASIS SET INFORMATION
---------------------------------
There are 5 groups of distinct atoms

 Group   1 Type C   : 12s5p4d2f1g contracted to 6s4p3d1f1g pattern {711111/2111/211/2/1}
 Group   2 Type N   : 12s5p4d2f1g contracted to 6s4p3d1f1g pattern {711111/2111/211/2/1}
 Group   3 Type S   : 14s5p5d2f1g contracted to 8s4p3d1f1g pattern {71111111/2111/311/2/1}
 Group   4 Type H   : 5s2p1d contracted to 3s1p1d pattern {311/2/1}
 Group   5 Type O   : 12s5p4d2f1g contracted to 6s4p3d1f1g pattern {711111/2111/211/2/1}

Atom   0C    basis set group =>   1
Atom   1N    basis set group =>   2
Atom   2C    basis set group =>   1
Atom   3C    basis set group =>   1
Atom   4S    basis set group =>   3
Atom   5H    basis set group =>   4
Atom   6H    basis set group =>   4
Atom   7H    basis set group =>   4
Atom   8O    basis set group =>   5
Atom   9O    basis set group =>   5
Atom  10H    basis set group =>   4
Atom  11H    basis set group =>   4
Atom  12O    basis set group =>   5
Atom  13C    basis set group =>   1
Atom  14H    basis set group =>   4
Atom  15H    basis set group =>   4
Atom  16C    basis set group =>   1
Atom  17H    basis set group =>   4
Atom  18H    basis set group =>   4
Atom  19C    basis set group =>   1
Atom  20H    basis set group =>   4
Atom  21H    basis set group =>   4
Atom  22C    basis set group =>   1
Atom  23H    basis set group =>   4
Atom  24H    basis set group =>   4
Atom  25C    basis set group =>   1
Atom  26H    basis set group =>   4
Atom  27H    basis set group =>   4
Atom  28C    basis set group =>   1
Atom  29H    basis set group =>   4
Atom  30H    basis set group =>   4
Atom  31H    basis set group =>   4
Atom  32H    basis set group =>   4
Atom  33H    basis set group =>   4
Atom  34H    basis set group =>   4


           ************************************************************
           *        Program running with 4 parallel MPI-processes     *
           *              working on a common directory               *
           ************************************************************
------------------------------------------------------------------------------
                           ORCA GTO INTEGRAL CALCULATION
                           -- RI-GTO INTEGRALS CHOSEN --
------------------------------------------------------------------------------
------------------------------------------------------------------------------
                   ___                                                        
                  /   \      - P O W E R E D   B Y -                         
                 /     \                                                     
                 |  |  |   _    _      __       _____    __    __             
                 |  |  |  | |  | |    /  \     |  _  \  |  |  /  |          
                  \  \/   | |  | |   /    \    | | | |  |  | /  /          
                 / \  \   | |__| |  /  /\  \   | |_| |  |  |/  /          
                |  |  |   |  __  | /  /__\  \  |    /   |      \           
                |  |  |   | |  | | |   __   |  |    \   |  |\   \          
                \     /   | |  | | |  |  |  |  | |\  \  |  | \   \       
                 \___/    |_|  |_| |__|  |__|  |_| \__\ |__|  \__/        
                                                                              
                      - O R C A' S   B I G   F R I E N D -                    
                                      &                                       
                       - I N T E G R A L  F E E D E R -                       
                                                                              
 v1 FN, 2020, v2 2021                                                         
------------------------------------------------------------------------------


Reading SHARK input file 28Oct_SVPD_BLYP_B_wt_wb97.SHARKINP.tmp ... ok
----------------------
SHARK INTEGRAL PACKAGE
----------------------

Number of atoms                             ...     35
Number of basis functions                   ...    464
Number of shells                            ...    202
Maximum angular momentum                    ...      2
Integral batch strategy                     ... SHARK/LIBINT Hybrid
RI-J (if used) integral strategy            ... SPLIT-RIJ (Revised 2003 algorithm where possible)
Printlevel                                  ...      1
Contraction scheme used                     ... SEGMENTED contraction
Coulomb Range Separation                    ... NOT USED
Exchange Range Separation                   ... NOT USED
Finite Nucleus Model                        ... NOT USED
Auxiliary Coulomb fitting basis             ... AVAILABLE
   # of basis functions in Aux-J            ...    919
   # of shells in Aux-J                     ...    317
   Maximum angular momentum in Aux-J        ...      4
Auxiliary J/K fitting basis                 ... NOT available
Auxiliary Correlation fitting basis         ... NOT available
Auxiliary 'external' fitting basis          ... NOT available
Integral threshold                          ...     2.500000e-11
Primitive cut-off                           ...     2.500000e-12
Primitive pair pre-selection threshold      ...     2.500000e-12

Calculating pre-screening integrals         ... done (  0.1 sec) Dimension = 202
Organizing shell pair data                  ... done (  0.1 sec)
Shell pair information
Total number of shell pairs                 ...     20503
Shell pairs after pre-screening             ...     18874
Total number of primitive shell pairs       ...     55533
Primitive shell pairs kept                  ...     38833
          la=0 lb=0:   4520 shell pairs
          la=1 lb=0:   6836 shell pairs
          la=1 lb=1:   2628 shell pairs
          la=2 lb=0:   2561 shell pairs
          la=2 lb=1:   1949 shell pairs
          la=2 lb=2:    380 shell pairs

Calculating one electron integrals          ... done (  0.1 sec)
Calculating RI/J V-Matrix + Cholesky decomp.... done (  0.1 sec)
Calculating Nuclear repulsion               ... done (  0.0 sec) ENN=   1206.161645855590 Eh

SHARK setup successfully completed in   0.4 seconds

Maximum memory used throughout the entire GTOINT-calculation: 28.4 MB


           ************************************************************
           *        Program running with 4 parallel MPI-processes     *
           *              working on a common directory               *
           ************************************************************
-------------------------------------------------------------------------------
                                 ORCA SCF
-------------------------------------------------------------------------------

------------
SCF SETTINGS
------------
Hamiltonian:
 Density Functional     Method          .... DFT(GTOs)
 Exchange Functional    Exchange        .... B88
   X-Alpha parameter    XAlpha          ....  0.666667
   Becke's b parameter  XBeta           ....  0.004200
 Correlation Functional Correlation     .... LYP
 Gradients option       PostSCFGGA      .... off
   Density functional embedding theory  .... OFF
   NL short-range parameter             ....  4.000000
 RI-approximation to the Coulomb term is turned on
   Number of AuxJ basis functions       .... 919


General Settings:
 Integral files         IntName         .... 28Oct_SVPD_BLYP_B_wt_wb97
 Hartree-Fock type      HFTyp           .... RHF
 Total Charge           Charge          ....    0
 Multiplicity           Mult            ....    1
 Number of Electrons    NEL             ....  122
 Basis Dimension        Dim             ....  464
 Nuclear Repulsion      ENuc            ....   1206.1616458556 Eh

Convergence Acceleration:
 DIIS                   CNVDIIS         .... on
   Start iteration      DIISMaxIt       ....    12
   Startup error        DIISStart       ....  0.200000
   # of expansion vecs  DIISMaxEq       ....     5
   Bias factor          DIISBfac        ....   1.050
   Max. coefficient     DIISMaxC        ....  10.000
 Trust-Rad. Augm. Hess. CNVTRAH         .... auto
   Auto Start mean grad. ratio tolernc. ....  1.125000
   Auto Start start iteration           ....    20
   Auto Start num. interpolation iter.  ....    10
   Max. Number of Micro iterations      ....    16
   Max. Number of Macro iterations      .... Maxiter - #DIIS iter
   Number of Davidson start vectors     ....     2
   Converg. threshold I  (grad. norm)   ....   1.000e-05
   Converg. threshold II (energy diff.) ....   1.000e-08
   Grad. Scal. Fac. for Micro threshold ....   0.100
   Minimum threshold for Micro iter.    ....   0.010
   NR start threshold (gradient norm)   ....   0.001
   Initial trust radius                 ....   0.400
   Minimum AH scaling param. (alpha)    ....   1.000
   Maximum AH scaling param. (alpha)    .... 1000.000
   Orbital update algorithm             .... Taylor
   White noise on init. David. guess    .... on
   Maximum white noise                  ....   0.010
   Quad. conv. algorithm                .... NR
 SOSCF                  CNVSOSCF        .... on
   Start iteration      SOSCFMaxIt      ....   150
   Startup grad/error   SOSCFStart      ....  0.003300
 Level Shifting         CNVShift        .... on
   Level shift para.    LevelShift      ....    0.2500
   Turn off err/grad.   ShiftErr        ....    0.0010
 Zerner damping         CNVZerner       .... off
 Static damping         CNVDamp         .... on
   Fraction old density DampFac         ....    0.7000
   Max. Damping (<1)    DampMax         ....    0.9800
   Min. Damping (>=0)   DampMin         ....    0.0000
   Turn off err/grad.   DampErr         ....    0.1000
 Fernandez-Rico         CNVRico         .... off

SCF Procedure:
 Maximum # iterations   MaxIter         ....   150
 SCF integral mode      SCFMode         .... Direct
   Integral package                     .... SHARK and LIBINT hybrid scheme
 Reset frequency        DirectResetFreq ....    20
 Integral Threshold     Thresh          ....  2.500e-11 Eh
 Primitive CutOff       TCut            ....  2.500e-12 Eh

Convergence Tolerance:
 Convergence Check Mode ConvCheckMode   .... Total+1el-Energy
 Convergence forced     ConvForced      .... 0
 Energy Change          TolE            ....  1.000e-08 Eh
 1-El. energy change                    ....  1.000e-05 Eh
 Orbital Gradient       TolG            ....  1.000e-05
 Orbital Rotation angle TolX            ....  1.000e-05
 DIIS Error             TolErr          ....  5.000e-07


Diagonalization of the overlap matrix:
Smallest eigenvalue                        ... 2.098e-05
Time for diagonalization                   ...    0.052 sec
Threshold for overlap eigenvalues          ... 1.000e-08
Number of eigenvalues below threshold      ... 0
Time for construction of square roots      ...    0.035 sec
Total time needed                          ...    0.090 sec

Time for model grid setup =    0.412 sec

------------------------------
INITIAL GUESS: MODEL POTENTIAL
------------------------------
Loading Hartree-Fock densities                     ... done
Calculating cut-offs                               ... done
Initializing the effective Hamiltonian             ... done
Setting up the integral package (SHARK)            ... done
Starting the Coulomb interaction                   ... done (   0.4 sec)
Reading the grid                                   ... done
Mapping shells                                     ... done
Starting the XC term evaluation                    ... done (   0.6 sec)
  promolecular density results
     # of electrons  =    121.985445196
     EX              =   -108.936311519
     EC              =     -4.234324696
     EX+EC           =   -113.170636215
Transforming the Hamiltonian                       ... done (   0.0 sec)
Diagonalizing the Hamiltonian                      ... done (   0.0 sec)
Back transforming the eigenvectors                 ... done (   0.0 sec)
Now organizing SCF variables                       ... done
                      ------------------
                      INITIAL GUESS DONE (   1.5 sec)
                      ------------------
-------------------
DFT GRID GENERATION
-------------------

General Integration Accuracy     IntAcc      ... 4.388
Radial Grid Type                 RadialGrid  ... OptM3 with GC (2021)
Angular Grid (max. ang.)         AngularGrid ... 4 (Lebedev-302)
Angular grid pruning method      GridPruning ... 4 (adaptive)
Weight generation scheme         WeightScheme... Becke
Basis function cutoff            BFCut       ... 1.0000e-11
Integration weight cutoff        WCut        ... 1.0000e-14
Angular grids for H and He will be reduced by one unit
Partially contracted basis set               ... off
Rotationally invariant grid construction     ... off

Total number of grid points                  ...   155333
Total number of batches                      ...     2443
Average number of points per batch           ...       63
Average number of grid points per atom       ...     4438
Time for grid setup =    1.523 sec

--------------
SCF ITERATIONS
--------------
ITER       Energy         Delta-E        Max-DP      RMS-DP      [F,P]     Damp
               ***  Starting incremental Fock matrix formation  ***
  0  -1032.7270453204   0.000000000000 0.22171923  0.00286179  0.2925697 0.7000
  1  -1033.0386427448  -0.311597424334 0.11460416  0.00166121  0.0931161 0.7000
                               ***Turning on DIIS***
  2  -1033.1306523924  -0.092009647637 0.28025216  0.00262454  0.0240232 0.0000
  3  -1033.3008354827  -0.170183090248 0.05725048  0.00104882  0.0510920 0.0000
  4  -1033.3349486417  -0.034113159057 0.05547059  0.00043696  0.0206165 0.0000
  5  -1033.3381897854  -0.003241143691 0.00971287  0.00017442  0.0057040 0.0000
                      *** Initiating the SOSCF procedure ***
                           *** Shutting down DIIS ***
                      *** Re-Reading the Fockian *** 
                      *** Removing any level shift *** 
ITER      Energy       Delta-E        Grad      Rot      Max-DP    RMS-DP
  6  -1033.33842410  -0.0002343167  0.000227  0.000227  0.004524  0.000077
               *** Restarting incremental Fock matrix formation ***
  7  -1033.33844378  -0.0000196738  0.000141  0.000583  0.002522  0.000057
  8  -1033.33843412   0.0000096516  0.000432  0.000347  0.001306  0.000019
  9  -1033.33844774  -0.0000136160  0.000073  0.000172  0.000786  0.000016
 10  -1033.33844679   0.0000009531  0.000090  0.000096  0.000580  0.000008
 11  -1033.33844829  -0.0000015013  0.000015  0.000034  0.000453  0.000004
 12  -1033.33844824   0.0000000471  0.000030  0.000023  0.000357  0.000002
 13  -1033.33844832  -0.0000000783  0.000003  0.000005  0.000280  0.000003
 14  -1033.33844831   0.0000000067  0.000006  0.000004  0.000109  0.000001
                  ***Gradient check signals convergence***
              ***Rediagonalizing the Fockian in SOSCF/NRSCF***

               *****************************************************
               *                     SUCCESS                       *
               *           SCF CONVERGED AFTER  15 CYCLES          *
               *****************************************************


----------------
TOTAL SCF ENERGY
----------------

Total Energy       :        -1033.33844832 Eh          -28118.56870 eV

Components:
Nuclear Repulsion  :         1206.16164586 Eh           32821.32699 eV
Electronic Energy  :        -2239.50009418 Eh          -60939.89569 eV
One Electron Energy:        -3810.09912719 Eh         -103678.06814 eV
Two Electron Energy:         1570.59903301 Eh           42738.17245 eV

Virial components:
Potential Energy   :        -2059.52633223 Eh          -56042.56065 eV
Kinetic Energy     :         1026.18788391 Eh           27923.99195 eV
Virial Ratio       :            2.00696809


DFT components:
N(Alpha)           :       61.000192889946 electrons
N(Beta)            :       61.000192889946 electrons
N(Total)           :      122.000385779891 electrons
E(X)               :     -110.734309986305 Eh       
E(C)               :       -4.247989916077 Eh       
E(XC)              :     -114.982299902382 Eh       
DFET-embed. en.    :        0.000000000000 Eh       

---------------
SCF CONVERGENCE
---------------

  Last Energy change         ...   -6.5106e-09  Tolerance :   1.0000e-08
  Last MAX-Density change    ...    3.4581e-04  Tolerance :   1.0000e-07
  Last RMS-Density change    ...    1.9100e-06  Tolerance :   5.0000e-09
  Last Orbital Gradient      ...    1.2814e-06  Tolerance :   1.0000e-05
  Last Orbital Rotation      ...    2.7514e-06  Tolerance :   1.0000e-05

             **** THE GBW FILE WAS UPDATED (28Oct_SVPD_BLYP_B_wt_wb97.gbw) ****
             **** DENSITY 28Oct_SVPD_BLYP_B_wt_wb97.scfp WAS UPDATED ****
             **** ENERGY FILE WAS UPDATED (28Oct_SVPD_BLYP_B_wt_wb97.en.tmp) ****
             **** THE GBW FILE WAS UPDATED (28Oct_SVPD_BLYP_B_wt_wb97.gbw) ****
             **** DENSITY 28Oct_SVPD_BLYP_B_wt_wb97.scfp WAS UPDATED ****
----------------
ORBITAL ENERGIES
----------------

  NO   OCC          E(Eh)            E(eV) 
   0   2.0000     -88.296439     -2402.6682 
   1   2.0000     -18.743150      -510.0270 
   2   2.0000     -18.742702      -510.0149 
   3   2.0000     -18.729055      -509.6435 
   4   2.0000     -14.123670      -384.3246 
   5   2.0000     -10.003641      -272.2129 
   6   2.0000      -9.957656      -270.9616 
   7   2.0000      -9.938016      -270.4272 
   8   2.0000      -9.929910      -270.2066 
   9   2.0000      -9.923033      -270.0195 
  10   2.0000      -9.922114      -269.9945 
  11   2.0000      -9.914747      -269.7940 
  12   2.0000      -9.914491      -269.7870 
  13   2.0000      -9.911368      -269.7020 
  14   2.0000      -7.832621      -213.1365 
  15   2.0000      -5.868644      -159.6939 
  16   2.0000      -5.867650      -159.6669 
  17   2.0000      -5.865908      -159.6195 
  18   2.0000      -1.003933       -27.3184 
  19   2.0000      -0.909881       -24.7591 
  20   2.0000      -0.862256       -23.4632 
  21   2.0000      -0.858316       -23.3560 
  22   2.0000      -0.750400       -20.4194 
  23   2.0000      -0.722909       -19.6713 
  24   2.0000      -0.699637       -19.0381 
  25   2.0000      -0.659776       -17.9534 
  26   2.0000      -0.630322       -17.1519 
  27   2.0000      -0.590210       -16.0604 
  28   2.0000      -0.556335       -15.1386 
  29   2.0000      -0.547962       -14.9108 
  30   2.0000      -0.530374       -14.4322 
  31   2.0000      -0.512481       -13.9453 
  32   2.0000      -0.497563       -13.5394 
  33   2.0000      -0.474570       -12.9137 
  34   2.0000      -0.461193       -12.5497 
  35   2.0000      -0.436261       -11.8713 
  36   2.0000      -0.434409       -11.8209 
  37   2.0000      -0.419559       -11.4168 
  38   2.0000      -0.407032       -11.0759 
  39   2.0000      -0.394459       -10.7338 
  40   2.0000      -0.390404       -10.6234 
  41   2.0000      -0.382510       -10.4086 
  42   2.0000      -0.381022       -10.3681 
  43   2.0000      -0.366590        -9.9754 
  44   2.0000      -0.358923        -9.7668 
  45   2.0000      -0.353245        -9.6123 
  46   2.0000      -0.341907        -9.3038 
  47   2.0000      -0.331509        -9.0208 
  48   2.0000      -0.324925        -8.8417 
  49   2.0000      -0.311777        -8.4839 
  50   2.0000      -0.303766        -8.2659 
  51   2.0000      -0.293857        -7.9963 
  52   2.0000      -0.281752        -7.6668 
  53   2.0000      -0.279391        -7.6026 
  54   2.0000      -0.275665        -7.5012 
  55   2.0000      -0.268320        -7.3014 
  56   2.0000      -0.265601        -7.2274 
  57   2.0000      -0.234023        -6.3681 
  58   2.0000      -0.230693        -6.2775 
  59   2.0000      -0.220134        -5.9901 
  60   2.0000      -0.193439        -5.2637 
  61   0.0000      -0.036700        -0.9987 
  62   0.0000      -0.005443        -0.1481 
  63   0.0000       0.001132         0.0308 
  64   0.0000       0.007165         0.1950 
  65   0.0000       0.017578         0.4783 
  66   0.0000       0.025690         0.6991 
  67   0.0000       0.027632         0.7519 
  68   0.0000       0.034071         0.9271 
  69   0.0000       0.041405         1.1267 
  70   0.0000       0.047554         1.2940 
  71   0.0000       0.050842         1.3835 
  72   0.0000       0.059881         1.6294 
  73   0.0000       0.064143         1.7454 
  74   0.0000       0.068937         1.8759 
  75   0.0000       0.073464         1.9990 
  76   0.0000       0.079430         2.1614 
  77   0.0000       0.080575         2.1926 
  78   0.0000       0.085448         2.3252 
  79   0.0000       0.087606         2.3839 
  80   0.0000       0.097580         2.6553 
  81   0.0000       0.098442         2.6788 
  82   0.0000       0.101887         2.7725 
  83   0.0000       0.105417         2.8686 
  84   0.0000       0.111868         3.0441 
  85   0.0000       0.114466         3.1148 
  86   0.0000       0.118602         3.2273 
  87   0.0000       0.124032         3.3751 
  88   0.0000       0.133562         3.6344 
  89   0.0000       0.135557         3.6887 
  90   0.0000       0.136135         3.7044 
  91   0.0000       0.142299         3.8722 
  92   0.0000       0.142852         3.8872 
  93   0.0000       0.147793         4.0216 
  94   0.0000       0.151686         4.1276 
  95   0.0000       0.153819         4.1856 
  96   0.0000       0.158156         4.3037 
  97   0.0000       0.161955         4.4070 
  98   0.0000       0.167269         4.5516 
  99   0.0000       0.173966         4.7339 
 100   0.0000       0.182522         4.9667 
 101   0.0000       0.185653         5.0519 
 102   0.0000       0.189320         5.1517 
 103   0.0000       0.198230         5.3941 
 104   0.0000       0.202705         5.5159 
 105   0.0000       0.207054         5.6342 
 106   0.0000       0.210858         5.7377 
 107   0.0000       0.213410         5.8072 
 108   0.0000       0.215921         5.8755 
 109   0.0000       0.220595         6.0027 
 110   0.0000       0.227516         6.1910 
 111   0.0000       0.229150         6.2355 
 112   0.0000       0.233527         6.3546 
 113   0.0000       0.237619         6.4660 
 114   0.0000       0.242046         6.5864 
 115   0.0000       0.247027         6.7220 
 116   0.0000       0.248710         6.7677 
 117   0.0000       0.252082         6.8595 
 118   0.0000       0.256786         6.9875 
 119   0.0000       0.259927         7.0730 
 120   0.0000       0.261903         7.1267 
 121   0.0000       0.266509         7.2521 
 122   0.0000       0.270794         7.3687 
 123   0.0000       0.278303         7.5730 
 124   0.0000       0.285562         7.7705 
 125   0.0000       0.287896         7.8340 
 126   0.0000       0.288377         7.8472 
 127   0.0000       0.291824         7.9409 
 128   0.0000       0.296759         8.0752 
 129   0.0000       0.302638         8.2352 
 130   0.0000       0.304827         8.2948 
 131   0.0000       0.307768         8.3748 
 132   0.0000       0.309159         8.4126 
 133   0.0000       0.313466         8.5298 
 134   0.0000       0.319082         8.6827 
 135   0.0000       0.322611         8.7787 
 136   0.0000       0.325229         8.8499 
 137   0.0000       0.326467         8.8836 
 138   0.0000       0.330576         8.9954 
 139   0.0000       0.333443         9.0735 
 140   0.0000       0.338966         9.2237 
 141   0.0000       0.341355         9.2887 
 142   0.0000       0.343484         9.3467 
 143   0.0000       0.347876         9.4662 
 144   0.0000       0.353795         9.6272 
 145   0.0000       0.356213         9.6931 
 146   0.0000       0.357468         9.7272 
 147   0.0000       0.362793         9.8721 
 148   0.0000       0.369011        10.0413 
 149   0.0000       0.372341        10.1319 
 150   0.0000       0.378414        10.2972 
 151   0.0000       0.379900        10.3376 
 152   0.0000       0.383346        10.4314 
 153   0.0000       0.386976        10.5302 
 154   0.0000       0.395208        10.7542 
 155   0.0000       0.397342        10.8122 
 156   0.0000       0.400371        10.8947 
 157   0.0000       0.402715        10.9584 
 158   0.0000       0.403906        10.9908 
 159   0.0000       0.408221        11.1083 
 160   0.0000       0.416592        11.3360 
 161   0.0000       0.419185        11.4066 
 162   0.0000       0.426963        11.6183 
 163   0.0000       0.430032        11.7018 
 164   0.0000       0.433691        11.8013 
 165   0.0000       0.437264        11.8986 
 166   0.0000       0.439963        11.9720 
 167   0.0000       0.447033        12.1644 
 168   0.0000       0.448637        12.2080 
 169   0.0000       0.453261        12.3339 
 170   0.0000       0.457949        12.4614 
 171   0.0000       0.464075        12.6281 
 172   0.0000       0.466971        12.7069 
 173   0.0000       0.470850        12.8125 
 174   0.0000       0.474537        12.9128 
 175   0.0000       0.477812        13.0019 
 176   0.0000       0.479830        13.0568 
 177   0.0000       0.485839        13.2203 
 178   0.0000       0.488853        13.3024 
 179   0.0000       0.493822        13.4376 
 180   0.0000       0.498419        13.5627 
 181   0.0000       0.499368        13.5885 
 182   0.0000       0.501540        13.6476 
 183   0.0000       0.509704        13.8697 
 184   0.0000       0.510916        13.9027 
 185   0.0000       0.517384        14.0787 
 186   0.0000       0.523535        14.2461 
 187   0.0000       0.526634        14.3305 
 188   0.0000       0.530165        14.4265 
 189   0.0000       0.532085        14.4788 
 190   0.0000       0.533945        14.5294 
 191   0.0000       0.541637        14.7387 
 192   0.0000       0.545114        14.8333 
 193   0.0000       0.551958        15.0195 
 194   0.0000       0.555032        15.1032 
 195   0.0000       0.557814        15.1789 
 196   0.0000       0.563528        15.3344 
 197   0.0000       0.567650        15.4465 
 198   0.0000       0.572466        15.5776 
 199   0.0000       0.574392        15.6300 
 200   0.0000       0.578330        15.7372 
 201   0.0000       0.583400        15.8751 
 202   0.0000       0.587015        15.9735 
 203   0.0000       0.593956        16.1624 
 204   0.0000       0.597696        16.2641 
 205   0.0000       0.599182        16.3046 
 206   0.0000       0.606526        16.5044 
 207   0.0000       0.613603        16.6970 
 208   0.0000       0.618594        16.8328 
 209   0.0000       0.624260        16.9870 
 210   0.0000       0.630097        17.1458 
 211   0.0000       0.633475        17.2377 
 212   0.0000       0.641127        17.4460 
 213   0.0000       0.645536        17.5659 
 214   0.0000       0.646938        17.6041 
 215   0.0000       0.650519        17.7015 
 216   0.0000       0.659526        17.9466 
 217   0.0000       0.663478        18.0541 
 218   0.0000       0.669617        18.2212 
 219   0.0000       0.673878        18.3372 
 220   0.0000       0.678459        18.4618 
 221   0.0000       0.682961        18.5843 
 222   0.0000       0.687067        18.6960 
 223   0.0000       0.693560        18.8727 
 224   0.0000       0.697389        18.9769 
 225   0.0000       0.704064        19.1586 
 226   0.0000       0.708109        19.2686 
 227   0.0000       0.714023        19.4296 
 228   0.0000       0.719400        19.5759 
 229   0.0000       0.726327        19.7644 
 230   0.0000       0.737011        20.0551 
 231   0.0000       0.738333        20.0911 
 232   0.0000       0.751996        20.4629 
 233   0.0000       0.755008        20.5448 
 234   0.0000       0.759943        20.6791 
 235   0.0000       0.763236        20.7687 
 236   0.0000       0.774924        21.0868 
 237   0.0000       0.786245        21.3948 
 238   0.0000       0.791743        21.5444 
 239   0.0000       0.794800        21.6276 
 240   0.0000       0.801145        21.8003 
 241   0.0000       0.808738        22.0069 
 242   0.0000       0.811956        22.0944 
 243   0.0000       0.820781        22.3346 
 244   0.0000       0.827421        22.5153 
 245   0.0000       0.831707        22.6319 
 246   0.0000       0.847670        23.0663 
 247   0.0000       0.852060        23.1857 
 248   0.0000       0.854423        23.2500 
 249   0.0000       0.865675        23.5562 
 250   0.0000       0.882098        24.0031 
 251   0.0000       0.894957        24.3530 
 252   0.0000       0.898332        24.4449 
 253   0.0000       0.905934        24.6517 
 254   0.0000       0.917579        24.9686 
 255   0.0000       0.925434        25.1823 
 256   0.0000       0.937008        25.4973 
 257   0.0000       0.947773        25.7902 
 258   0.0000       0.950820        25.8731 
 259   0.0000       0.959793        26.1173 
 260   0.0000       0.969261        26.3749 
 261   0.0000       0.978152        26.6169 
 262   0.0000       0.980483        26.6803 
 263   0.0000       0.985817        26.8254 
 264   0.0000       0.991113        26.9696 
 265   0.0000       1.000516        27.2254 
 266   0.0000       1.003651        27.3107 
 267   0.0000       1.008149        27.4331 
 268   0.0000       1.011343        27.5200 
 269   0.0000       1.019539        27.7431 
 270   0.0000       1.024529        27.8789 
 271   0.0000       1.037367        28.2282 
 272   0.0000       1.044142        28.4125 
 273   0.0000       1.050746        28.5922 
 274   0.0000       1.055912        28.7328 
 275   0.0000       1.064678        28.9714 
 276   0.0000       1.071362        29.1532 
 277   0.0000       1.076461        29.2920 
 278   0.0000       1.087023        29.5794 
 279   0.0000       1.098706        29.8973 
 280   0.0000       1.106319        30.1045 
 281   0.0000       1.107568        30.1385 
 282   0.0000       1.110947        30.2304 
 283   0.0000       1.124050        30.5870 
 284   0.0000       1.125635        30.6301 
 285   0.0000       1.131467        30.7888 
 286   0.0000       1.141906        31.0729 
 287   0.0000       1.155909        31.4539 
 288   0.0000       1.164563        31.6894 
 289   0.0000       1.181960        32.1628 
 290   0.0000       1.188722        32.3468 
 291   0.0000       1.201492        32.6943 
 292   0.0000       1.214617        33.0514 
 293   0.0000       1.223578        33.2953 
 294   0.0000       1.232051        33.5258 
 295   0.0000       1.242863        33.8200 
 296   0.0000       1.258729        34.2518 
 297   0.0000       1.264038        34.3962 
 298   0.0000       1.272241        34.6194 
 299   0.0000       1.290126        35.1061 
 300   0.0000       1.316821        35.8325 
 301   0.0000       1.323317        36.0093 
 302   0.0000       1.334847        36.3230 
 303   0.0000       1.341501        36.5041 
 304   0.0000       1.347879        36.6777 
 305   0.0000       1.372962        37.3602 
 306   0.0000       1.379834        37.5472 
 307   0.0000       1.383349        37.6428 
 308   0.0000       1.386633        37.7322 
 309   0.0000       1.407674        38.3048 
 310   0.0000       1.417129        38.5620 
 311   0.0000       1.425297        38.7843 
 312   0.0000       1.443428        39.2777 
 313   0.0000       1.463682        39.8288 
 314   0.0000       1.465178        39.8695 
 315   0.0000       1.490068        40.5468 
 316   0.0000       1.502100        40.8742 
 317   0.0000       1.506347        40.9898 
 318   0.0000       1.521913        41.4134 
 319   0.0000       1.522551        41.4307 
 320   0.0000       1.536965        41.8229 
 321   0.0000       1.555601        42.3300 
 322   0.0000       1.566438        42.6249 
 323   0.0000       1.574653        42.8485 
 324   0.0000       1.593823        43.3701 
 325   0.0000       1.600813        43.5603 
 326   0.0000       1.612345        43.8741 
 327   0.0000       1.622377        44.1471 
 328   0.0000       1.635751        44.5110 
 329   0.0000       1.644393        44.7462 
 330   0.0000       1.652786        44.9746 
 331   0.0000       1.672674        45.5158 
 332   0.0000       1.691464        46.0271 
 333   0.0000       1.692743        46.0619 
 334   0.0000       1.702911        46.3386 
 335   0.0000       1.718039        46.7502 
 336   0.0000       1.729859        47.0718 
 337   0.0000       1.731599        47.1192 
 338   0.0000       1.742266        47.4095 
 339   0.0000       1.760459        47.9045 
 340   0.0000       1.762787        47.9679 
 341   0.0000       1.782208        48.4963 
 342   0.0000       1.791410        48.7467 
 343   0.0000       1.799927        48.9785 
 344   0.0000       1.809057        49.2269 
 345   0.0000       1.814508        49.3753 
 346   0.0000       1.829739        49.7897 
 347   0.0000       1.846475        50.2451 
 348   0.0000       1.850868        50.3647 
 349   0.0000       1.857966        50.5578 
 350   0.0000       1.862656        50.6854 
 351   0.0000       1.866812        50.7985 
 352   0.0000       1.874653        51.0119 
 353   0.0000       1.880931        51.1827 
 354   0.0000       1.891919        51.4817 
 355   0.0000       1.906251        51.8717 
 356   0.0000       1.917067        52.1660 
 357   0.0000       1.919733        52.2386 
 358   0.0000       1.925587        52.3979 
 359   0.0000       1.938734        52.7556 
 360   0.0000       1.943219        52.8777 
 361   0.0000       1.953562        53.1591 
 362   0.0000       1.959584        53.3230 
 363   0.0000       1.975388        53.7530 
 364   0.0000       1.981007        53.9059 
 365   0.0000       1.990923        54.1758 
 366   0.0000       2.000800        54.4445 
 367   0.0000       2.010071        54.6968 
 368   0.0000       2.019591        54.9559 
 369   0.0000       2.028217        55.1906 
 370   0.0000       2.031921        55.2914 
 371   0.0000       2.041280        55.5461 
 372   0.0000       2.051150        55.8146 
 373   0.0000       2.063810        56.1591 
 374   0.0000       2.081800        56.6487 
 375   0.0000       2.083469        56.6941 
 376   0.0000       2.092821        56.9486 
 377   0.0000       2.107372        57.3445 
 378   0.0000       2.120721        57.7078 
 379   0.0000       2.130016        57.9607 
 380   0.0000       2.141279        58.2672 
 381   0.0000       2.149327        58.4862 
 382   0.0000       2.160007        58.7768 
 383   0.0000       2.171571        59.0914 
 384   0.0000       2.180386        59.3313 
 385   0.0000       2.197590        59.7995 
 386   0.0000       2.208839        60.1056 
 387   0.0000       2.216754        60.3209 
 388   0.0000       2.223434        60.5027 
 389   0.0000       2.244867        61.0859 
 390   0.0000       2.262408        61.5633 
 391   0.0000       2.277475        61.9732 
 392   0.0000       2.292806        62.3904 
 393   0.0000       2.304398        62.7058 
 394   0.0000       2.324405        63.2503 
 395   0.0000       2.330390        63.4131 
 396   0.0000       2.353908        64.0531 
 397   0.0000       2.361486        64.2593 
 398   0.0000       2.380448        64.7753 
 399   0.0000       2.386621        64.9432 
 400   0.0000       2.402562        65.3770 
 401   0.0000       2.417823        65.7923 
 402   0.0000       2.436371        66.2970 
 403   0.0000       2.445515        66.5458 
 404   0.0000       2.475367        67.3582 
 405   0.0000       2.486372        67.6576 
 406   0.0000       2.507300        68.2271 
 407   0.0000       2.511271        68.3352 
 408   0.0000       2.519876        68.5693 
 409   0.0000       2.534601        68.9700 
 410   0.0000       2.561285        69.6961 
 411   0.0000       2.570735        69.9532 
 412   0.0000       2.587027        70.3966 
 413   0.0000       2.594947        70.6121 
 414   0.0000       2.600490        70.7629 
 415   0.0000       2.616607        71.2015 
 416   0.0000       2.622621        71.3651 
 417   0.0000       2.637670        71.7746 
 418   0.0000       2.647944        72.0542 
 419   0.0000       2.653983        72.2185 
 420   0.0000       2.694343        73.3168 
 421   0.0000       2.702558        73.5403 
 422   0.0000       2.735413        74.4344 
 423   0.0000       2.749322        74.8129 
 424   0.0000       2.769624        75.3653 
 425   0.0000       2.789652        75.9103 
 426   0.0000       2.808549        76.4245 
 427   0.0000       2.833247        77.0966 
 428   0.0000       2.844561        77.4044 
 429   0.0000       2.858354        77.7798 
 430   0.0000       2.866100        77.9905 
 431   0.0000       2.877114        78.2902 
 432   0.0000       2.898026        78.8593 
 433   0.0000       2.909015        79.1583 
 434   0.0000       2.924369        79.5761 
 435   0.0000       2.936016        79.8930 
 436   0.0000       2.953802        80.3770 
 437   0.0000       2.968312        80.7719 
 438   0.0000       2.979654        81.0805 
 439   0.0000       2.981589        81.1332 
 440   0.0000       2.994943        81.4965 
 441   0.0000       3.011185        81.9385 
 442   0.0000       3.029307        82.4316 
 443   0.0000       3.035108        82.5895 
 444   0.0000       3.044958        82.8575 
 445   0.0000       3.049707        82.9868 
 446   0.0000       3.083463        83.9053 
 447   0.0000       3.089041        84.0571 
 448   0.0000       3.100014        84.3557 
 449   0.0000       3.103811        84.4590 
 450   0.0000       3.115351        84.7730 
 451   0.0000       3.135543        85.3225 
 452   0.0000       3.140431        85.4555 
 453   0.0000       3.146174        85.6118 
 454   0.0000       3.175432        86.4079 
 455   0.0000       3.205997        87.2396 
 456   0.0000       3.214741        87.4776 
 457   0.0000       3.244660        88.2917 
 458   0.0000       3.260401        88.7200 
 459   0.0000       3.281172        89.2852 
 460   0.0000       3.471454        94.4631 
 461   0.0000       3.496152        95.1351 
 462   0.0000       3.560018        96.8730 
 463   0.0000       3.596152        97.8563 

                    ********************************
                    * MULLIKEN POPULATION ANALYSIS *
                    ********************************

-----------------------
MULLIKEN ATOMIC CHARGES
-----------------------
   0 C :    1.298265
   1 N :   -0.862653
   2 C :    0.758123
   3 C :    0.770325
   4 S :    1.105211
   5 H :    0.212104
   6 H :    0.476146
   7 H :    0.273252
   8 O :   -0.814238
   9 O :   -0.798081
  10 H :   -0.508376
  11 H :   -0.196471
  12 O :   -0.718482
  13 C :    0.885915
  14 H :   -0.242963
  15 H :   -0.187271
  16 C :    0.124304
  17 H :   -0.805229
  18 H :   -0.221971
  19 C :    1.012088
  20 H :   -0.553432
  21 H :   -0.016299
  22 C :    0.187338
  23 H :   -0.193076
  24 H :   -0.142793
  25 C :    0.647574
  26 H :    0.076605
  27 H :   -0.606022
  28 C :    0.618761
  29 H :   -0.179800
  30 H :   -0.554650
  31 H :   -0.014025
  32 H :   -0.415276
  33 H :   -0.190178
  34 H :   -0.224723
Sum of atomic charges:    0.0000000

--------------------------------
MULLIKEN REDUCED ORBITAL CHARGES
--------------------------------
  0 C s       :     2.300905  s :     2.300905
      pz      :     0.769146  p :     2.225991
      px      :     0.594176
      py      :     0.862669
      dz2     :    -0.029486  d :     0.174839
      dxz     :    -0.020248
      dyz     :     0.031368
      dx2y2   :    -0.030665
      dxy     :     0.223870
  1 N s       :     4.231697  s :     4.231697
      pz      :     1.102836  p :     3.500559
      px      :     1.150465
      py      :     1.247259
      dz2     :     0.051739  d :     0.130397
      dxz     :     0.005767
      dyz     :     0.013461
      dx2y2   :     0.060523
      dxy     :    -0.001093
  2 C s       :     2.534612  s :     2.534612
      pz      :     0.649718  p :     2.444546
      px      :     0.923944
      py      :     0.870884
      dz2     :     0.061941  d :     0.262720
      dxz     :     0.020269
      dyz     :    -0.014202
      dx2y2   :     0.069307
      dxy     :     0.125405
  3 C s       :     2.493762  s :     2.493762
      pz      :     0.820435  p :     2.598154
      px      :     0.742739
      py      :     1.034981
      dz2     :    -0.016356  d :     0.137759
      dxz     :     0.010457
      dyz     :     0.051321
      dx2y2   :     0.015681
      dxy     :     0.076655
  4 S s       :     5.015367  s :     5.015367
      pz      :     3.037309  p :     8.940921
      px      :     3.008595
      py      :     2.895017
      dz2     :     0.161261  d :     0.938502
      dxz     :     0.189155
      dyz     :     0.200681
      dx2y2   :     0.212217
      dxy     :     0.175188
  5 H s       :     0.720739  s :     0.720739
      pz      :    -0.024976  p :     0.067157
      px      :    -0.000149
      py      :     0.092282
  6 H s       :     0.603441  s :     0.603441
      pz      :    -0.026170  p :    -0.079587
      px      :    -0.047568
      py      :    -0.005850
  7 H s       :     0.656671  s :     0.656671
      pz      :     0.020045  p :     0.070078
      px      :     0.071699
      py      :    -0.021666
  8 O s       :     3.991113  s :     3.991113
      pz      :     1.716958  p :     4.814599
      px      :     1.742334
      py      :     1.355306
      dz2     :     0.011294  d :     0.008527
      dxz     :     0.002910
      dyz     :    -0.004825
      dx2y2   :     0.002727
      dxy     :    -0.003579
  9 O s       :     3.964512  s :     3.964512
      pz      :     1.653374  p :     4.823624
      px      :     1.442718
      py      :     1.727532
      dz2     :     0.001141  d :     0.009945
      dxz     :     0.004518
      dyz     :     0.002091
      dx2y2   :     0.002271
      dxy     :    -0.000076
 10 H s       :     1.533320  s :     1.533320
      pz      :    -0.018641  p :    -0.024944
      px      :     0.001043
      py      :    -0.007346
 11 H s       :     1.203043  s :     1.203043
      pz      :     0.013663  p :    -0.006571
      px      :    -0.004205
      py      :    -0.016030
 12 O s       :     3.971159  s :     3.971159
      pz      :     1.480497  p :     4.731287
      px      :     1.694606
      py      :     1.556184
      dz2     :     0.004461  d :     0.016036
      dxz     :     0.003932
      dyz     :    -0.001118
      dx2y2   :     0.004451
      dxy     :     0.004310
 13 C s       :     2.113530  s :     2.113530
      pz      :     0.951188  p :     2.452927
      px      :     0.850243
      py      :     0.651496
      dz2     :     0.030332  d :     0.547627
      dxz     :     0.293142
      dyz     :     0.092055
      dx2y2   :     0.166503
      dxy     :    -0.034405
 14 H s       :     1.273362  s :     1.273362
      pz      :     0.005742  p :    -0.030399
      px      :    -0.022080
      py      :    -0.014061
 15 H s       :     1.213660  s :     1.213660
      pz      :    -0.037344  p :    -0.026389
      px      :     0.032432
      py      :    -0.021477
 16 C s       :     2.722320  s :     2.722320
      pz      :     0.914634  p :     2.483573
      px      :     0.746031
      py      :     0.822907
      dz2     :     0.059767  d :     0.669803
      dxz     :     0.319272
      dyz     :     0.119895
      dx2y2   :     0.071827
      dxy     :     0.099042
 17 H s       :     1.599381  s :     1.599381
      pz      :     0.019178  p :     0.205848
      px      :     0.102366
      py      :     0.084305
 18 H s       :     1.252279  s :     1.252279
      pz      :    -0.006718  p :    -0.030308
      px      :    -0.037838
      py      :     0.014248
 19 C s       :     2.315036  s :     2.315036
      pz      :     0.779352  p :     2.431119
      px      :     0.891376
      py      :     0.760390
      dz2     :     0.056918  d :     0.241758
      dxz     :     0.046651
      dyz     :    -0.035388
      dx2y2   :     0.158045
      dxy     :     0.015531
 20 H s       :     1.542855  s :     1.542855
      pz      :     0.009963  p :     0.010577
      px      :     0.019365
      py      :    -0.018751
 21 H s       :     1.012333  s :     1.012333
      pz      :     0.019505  p :     0.003965
      px      :    -0.062539
      py      :     0.047000
 22 C s       :     2.733211  s :     2.733211
      pz      :     0.815967  p :     2.438998
      px      :     0.647413
      py      :     0.975618
      dz2     :     0.049000  d :     0.640453
      dxz     :     0.071789
      dyz     :     0.126980
      dx2y2   :     0.085733
      dxy     :     0.306950
 23 H s       :     1.228167  s :     1.228167
      pz      :    -0.056111  p :    -0.035092
      px      :    -0.024493
      py      :     0.045513
 24 H s       :     1.198453  s :     1.198453
      pz      :     0.036864  p :    -0.055660
      px      :    -0.036001
      py      :    -0.056523
 25 C s       :     2.214041  s :     2.214041
      pz      :     0.823364  p :     2.541837
      px      :     0.841674
      py      :     0.876798
      dz2     :     0.032100  d :     0.596548
      dxz     :     0.003965
      dyz     :     0.181508
      dx2y2   :     0.160047
      dxy     :     0.218929
 26 H s       :     0.943873  s :     0.943873
      pz      :     0.023762  p :    -0.020478
      px      :    -0.047128
      py      :     0.002888
 27 H s       :     1.622927  s :     1.622927
      pz      :    -0.035368  p :    -0.016906
      px      :     0.033907
      py      :    -0.015444
 28 C s       :     2.521806  s :     2.521806
      pz      :     0.764831  p :     2.454121
      px      :     0.816449
      py      :     0.872842
      dz2     :     0.077952  d :     0.405312
      dxz     :    -0.023655
      dyz     :     0.055025
      dx2y2   :     0.117131
      dxy     :     0.178859
 29 H s       :     1.184324  s :     1.184324
      pz      :     0.039316  p :    -0.004524
      px      :    -0.045445
      py      :     0.001605
 30 H s       :     1.477517  s :     1.477517
      pz      :     0.078604  p :     0.077133
      px      :     0.064902
      py      :    -0.066373
 31 H s       :     1.020911  s :     1.020911
      pz      :    -0.017800  p :    -0.006886
      px      :    -0.009680
      py      :     0.020595
 32 H s       :     1.449588  s :     1.449588
      pz      :    -0.015220  p :    -0.034312
      px      :     0.019127
      py      :    -0.038220
 33 H s       :     1.205850  s :     1.205850
      pz      :     0.016191  p :    -0.015672
      px      :    -0.041069
      py      :     0.009205
 34 H s       :     1.221708  s :     1.221708
      pz      :    -0.018314  p :     0.003015
      px      :     0.044697
      py      :    -0.023368


                     *******************************
                     * LOEWDIN POPULATION ANALYSIS *
                     *******************************

----------------------
LOEWDIN ATOMIC CHARGES
----------------------
   0 C :    0.102372
   1 N :    0.340383
   2 C :   -0.001401
   3 C :   -0.042940
   4 S :    0.926015
   5 H :   -0.051121
   6 H :    0.098439
   7 H :   -0.040653
   8 O :   -0.511295
   9 O :   -0.514402
  10 H :    0.031228
  11 H :    0.028633
  12 O :   -0.486491
  13 C :   -0.006091
  14 H :    0.021936
  15 H :    0.026026
  16 C :   -0.025356
  17 H :   -0.003571
  18 H :    0.029154
  19 C :   -0.018240
  20 H :    0.019810
  21 H :    0.001408
  22 C :   -0.026249
  23 H :    0.017874
  24 H :    0.019108
  25 C :   -0.018765
  26 H :    0.015341
  27 H :    0.022055
  28 C :   -0.035056
  29 H :    0.031485
  30 H :   -0.013285
  31 H :    0.016449
  32 H :    0.023649
  33 H :    0.014394
  34 H :    0.009155

-------------------------------
LOEWDIN REDUCED ORBITAL CHARGES
-------------------------------
  0 C s       :     2.667470  s :     2.667470
      pz      :     0.829894  p :     2.583522
      px      :     0.857579
      py      :     0.896049
      dz2     :     0.129006  d :     0.646636
      dxz     :     0.090220
      dyz     :     0.151415
      dx2y2   :     0.116654
      dxy     :     0.159341
  1 N s       :     2.879435  s :     2.879435
      pz      :     1.085148  p :     3.339363
      px      :     1.102250
      py      :     1.151965
      dz2     :     0.123948  d :     0.440819
      dxz     :     0.099153
      dyz     :     0.054252
      dx2y2   :     0.078511
      dxy     :     0.084955
  2 C s       :     2.691707  s :     2.691707
      pz      :     0.900438  p :     2.673962
      px      :     0.906620
      py      :     0.866905
      dz2     :     0.100371  d :     0.635732
      dxz     :     0.110773
      dyz     :     0.100170
      dx2y2   :     0.169463
      dxy     :     0.154955
  3 C s       :     2.718573  s :     2.718573
      pz      :     0.899281  p :     2.715421
      px      :     0.887836
      py      :     0.928304
      dz2     :     0.083006  d :     0.608946
      dxz     :     0.114401
      dyz     :     0.159409
      dx2y2   :     0.128997
      dxy     :     0.123133
  4 S s       :     4.671717  s :     4.671717
      pz      :     2.832028  p :     8.467088
      px      :     2.821623
      py      :     2.813438
      dz2     :     0.327349  d :     1.935180
      dxz     :     0.436815
      dyz     :     0.413641
      dx2y2   :     0.395675
      dxy     :     0.361700
  5 H s       :     0.569193  s :     0.569193
      pz      :     0.111396  p :     0.481928
      px      :     0.176769
      py      :     0.193762
  6 H s       :     0.629337  s :     0.629337
      pz      :     0.125766  p :     0.272224
      px      :     0.078132
      py      :     0.068326
  7 H s       :     0.572274  s :     0.572274
      pz      :     0.090909  p :     0.468378
      px      :     0.257160
      py      :     0.120309
  8 O s       :     3.509860  s :     3.509860
      pz      :     1.635747  p :     4.700716
      px      :     1.604277
      py      :     1.460692
      dz2     :     0.039726  d :     0.300719
      dxz     :     0.031439
      dyz     :     0.073167
      dx2y2   :     0.085620
      dxy     :     0.070768
  9 O s       :     3.509562  s :     3.509562
      pz      :     1.597000  p :     4.704131
      px      :     1.470728
      py      :     1.636403
      dz2     :     0.044167  d :     0.300709
      dxz     :     0.079376
      dyz     :     0.043541
      dx2y2   :     0.065759
      dxy     :     0.067865
 10 H s       :     0.735931  s :     0.735931
      pz      :     0.058869  p :     0.232840
      px      :     0.104074
      py      :     0.069898
 11 H s       :     0.709382  s :     0.709382
      pz      :     0.106255  p :     0.261985
      px      :     0.083111
      py      :     0.072619
 12 O s       :     3.554832  s :     3.554832
      pz      :     1.528476  p :     4.680258
      px      :     1.598489
      py      :     1.553293
      dz2     :     0.053132  d :     0.251401
      dxz     :     0.057442
      dyz     :     0.061659
      dx2y2   :     0.041233
      dxy     :     0.037935
 13 C s       :     2.679600  s :     2.679600
      pz      :     0.895436  p :     2.661944
      px      :     0.876632
      py      :     0.889876
      dz2     :     0.145203  d :     0.664546
      dxz     :     0.179956
      dyz     :     0.121281
      dx2y2   :     0.141169
      dxy     :     0.076937
 14 H s       :     0.731241  s :     0.731241
      pz      :     0.117804  p :     0.246823
      px      :     0.066218
      py      :     0.062800
 15 H s       :     0.722060  s :     0.722060
      pz      :     0.096266  p :     0.251913
      px      :     0.092646
      py      :     0.063001
 16 C s       :     2.684501  s :     2.684501
      pz      :     0.878977  p :     2.659860
      px      :     0.885266
      py      :     0.895618
      dz2     :     0.145738  d :     0.680995
      dxz     :     0.180613
      dyz     :     0.120936
      dx2y2   :     0.127002
      dxy     :     0.106706
 17 H s       :     0.702647  s :     0.702647
      pz      :     0.083384  p :     0.300924
      px      :     0.119742
      py      :     0.097798
 18 H s       :     0.727045  s :     0.727045
      pz      :     0.064390  p :     0.243801
      px      :     0.060813
      py      :     0.118597
 19 C s       :     2.689311  s :     2.689311
      pz      :     0.897250  p :     2.671838
      px      :     0.880257
      py      :     0.894331
      dz2     :     0.167762  d :     0.657090
      dxz     :     0.126905
      dyz     :     0.038205
      dx2y2   :     0.200264
      dxy     :     0.123955
 20 H s       :     0.731558  s :     0.731558
      pz      :     0.074134  p :     0.248632
      px      :     0.095548
      py      :     0.078950
 21 H s       :     0.713222  s :     0.713222
      pz      :     0.072614  p :     0.285370
      px      :     0.078640
      py      :     0.134116
 22 C s       :     2.684850  s :     2.684850
      pz      :     0.897006  p :     2.662296
      px      :     0.879029
      py      :     0.886261
      dz2     :     0.134189  d :     0.679103
      dxz     :     0.095045
      dyz     :     0.133713
      dx2y2   :     0.147296
      dxy     :     0.168861
 23 H s       :     0.731522  s :     0.731522
      pz      :     0.069871  p :     0.250604
      px      :     0.059786
      py      :     0.120948
 24 H s       :     0.730340  s :     0.730340
      pz      :     0.119850  p :     0.250552
      px      :     0.060692
      py      :     0.070010
 25 C s       :     2.677549  s :     2.677549
      pz      :     0.891322  p :     2.655330
      px      :     0.885182
      py      :     0.878826
      dz2     :     0.136676  d :     0.685886
      dxz     :     0.089699
      dyz     :     0.142261
      dx2y2   :     0.164841
      dxy     :     0.152410
 26 H s       :     0.713167  s :     0.713167
      pz      :     0.123362  p :     0.271492
      px      :     0.080069
      py      :     0.068061
 27 H s       :     0.731694  s :     0.731694
      pz      :     0.074676  p :     0.246251
      px      :     0.103792
      py      :     0.067783
 28 C s       :     2.680499  s :     2.680499
      pz      :     0.900943  p :     2.670982
      px      :     0.892529
      py      :     0.877510
      dz2     :     0.107822  d :     0.683575
      dxz     :     0.132021
      dyz     :     0.149363
      dx2y2   :     0.172005
      dxy     :     0.122364
 29 H s       :     0.729323  s :     0.729323
      pz      :     0.114244  p :     0.239192
      px      :     0.061841
      py      :     0.063107
 30 H s       :     0.701184  s :     0.701184
      pz      :     0.103706  p :     0.312101
      px      :     0.121223
      py      :     0.087171
 31 H s       :     0.706331  s :     0.706331
      pz      :     0.111858  p :     0.277220
      px      :     0.076536
      py      :     0.088826
 32 H s       :     0.729582  s :     0.729582
      pz      :     0.083254  p :     0.246768
      px      :     0.101869
      py      :     0.061645
 33 H s       :     0.722297  s :     0.722297
      pz      :     0.102088  p :     0.263309
      px      :     0.076464
      py      :     0.084757
 34 H s       :     0.722062  s :     0.722062
      pz      :     0.086761  p :     0.268783
      px      :     0.112419
      py      :     0.069603


                      *****************************
                      * MAYER POPULATION ANALYSIS *
                      *****************************

  NA   - Mulliken gross atomic population
  ZA   - Total nuclear charge
  QA   - Mulliken gross atomic charge
  VA   - Mayer's total valence
  BVA  - Mayer's bonded valence
  FA   - Mayer's free valence

  ATOM       NA         ZA         QA         VA         BVA        FA
  0 C      4.7017     6.0000     1.2983     3.3822     3.3822    -0.0000
  1 N      7.8627     7.0000    -0.8627     3.2563     3.2563     0.0000
  2 C      5.2419     6.0000     0.7581     4.1417     4.1417     0.0000
  3 C      5.2297     6.0000     0.7703     3.8648     3.8648     0.0000
  4 S     14.8948    16.0000     1.1052     5.0411     5.0411     0.0000
  5 H      0.7879     1.0000     0.2121     0.9929     0.9929     0.0000
  6 H      0.5239     1.0000     0.4761     0.3304     0.3304    -0.0000
  7 H      0.7267     1.0000     0.2733     0.8927     0.8927     0.0000
  8 O      8.8142     8.0000    -0.8142     1.7360     1.7360     0.0000
  9 O      8.7981     8.0000    -0.7981     1.5363     1.5363     0.0000
 10 H      1.5084     1.0000    -0.5084     0.6544     0.6544    -0.0000
 11 H      1.1965     1.0000    -0.1965     0.8451     0.8451     0.0000
 12 O      8.7185     8.0000    -0.7185     1.7444     1.7444     0.0000
 13 C      5.1141     6.0000     0.8859     3.9951     3.9951     0.0000
 14 H      1.2430     1.0000    -0.2430     0.8515     0.8515    -0.0000
 15 H      1.1873     1.0000    -0.1873     0.8876     0.8876    -0.0000
 16 C      5.8757     6.0000     0.1243     5.2213     5.2213     0.0000
 17 H      1.8052     1.0000    -0.8052     1.1313     1.1313    -0.0000
 18 H      1.2220     1.0000    -0.2220     0.8236     0.8236    -0.0000
 19 C      4.9879     6.0000     1.0121     3.6220     3.6220     0.0000
 20 H      1.5534     1.0000    -0.5534     0.8930     0.8930    -0.0000
 21 H      1.0163     1.0000    -0.0163     1.0466     1.0466     0.0000
 22 C      5.8127     6.0000     0.1873     5.1073     5.1073     0.0000
 23 H      1.1931     1.0000    -0.1931     0.8576     0.8576     0.0000
 24 H      1.1428     1.0000    -0.1428     0.7853     0.7853    -0.0000
 25 C      5.3524     6.0000     0.6476     4.4447     4.4447     0.0000
 26 H      0.9234     1.0000     0.0766     0.9244     0.9244    -0.0000
 27 H      1.6060     1.0000    -0.6060     0.7577     0.7577    -0.0000
 28 C      5.3812     6.0000     0.6188     4.5825     4.5825     0.0000
 29 H      1.1798     1.0000    -0.1798     0.8790     0.8790     0.0000
 30 H      1.5547     1.0000    -0.5547     1.0667     1.0667    -0.0000
 31 H      1.0140     1.0000    -0.0140     0.9230     0.9230     0.0000
 32 H      1.4153     1.0000    -0.4153     0.7533     0.7533     0.0000
 33 H      1.1902     1.0000    -0.1902     0.8908     0.8908     0.0000
 34 H      1.2247     1.0000    -0.2247     0.9556     0.9556     0.0000

  Mayer bond orders larger than 0.100000
B(  0-C ,  1-N ) :   0.5984 B(  0-C ,  2-C ) :   1.1825 B(  0-C , 10-H ) :   0.5725 
B(  0-C , 11-H ) :   0.6304 B(  0-C , 13-C ) :   0.1875 B(  0-C , 15-H ) :   0.2193 
B(  0-C , 17-H ) :  -0.1099 B(  1-N ,  5-H ) :   0.7962 B(  1-N ,  6-H ) :   0.4837 
B(  1-N ,  7-H ) :   0.7669 B(  1-N , 10-H ) :   0.1119 B(  1-N , 11-H ) :   0.2637 
B(  2-C , 10-H ) :   0.1522 B(  2-C , 13-C ) :   1.1296 B(  2-C , 14-H ) :   0.5498 
B(  2-C , 15-H ) :   0.6330 B(  2-C , 17-H ) :   0.1818 B(  2-C , 18-H ) :   0.1192 
B(  2-C , 19-C ) :   0.1096 B(  3-C ,  4-S ) :   0.8376 B(  3-C , 12-O ) :   0.1347 
B(  3-C , 25-C ) :   0.1687 B(  3-C , 28-C ) :   1.1868 B(  3-C , 31-H ) :   0.1117 
B(  3-C , 33-H ) :   0.7675 B(  3-C , 34-H ) :   0.6057 B(  4-S ,  8-O ) :   1.1686 
B(  4-S ,  9-O ) :   1.1718 B(  4-S , 12-O ) :   1.4627 B(  4-S , 33-H ) :   0.1280 
B(  5-H ,  9-O ) :   0.2176 B(  7-H ,  8-O ) :   0.1909 B(  7-H , 17-H ) :   0.1216 
B( 10-H , 11-H ) :  -0.1995 B( 10-H , 18-H ) :   0.1073 B( 11-H , 21-H ) :   0.1177 
B( 13-C , 14-H ) :   0.2350 B( 13-C , 15-H ) :   0.1198 B( 13-C , 16-C ) :   1.1133 
B( 13-C , 17-H ) :   0.3198 B( 13-C , 18-H ) :   0.6153 B( 13-C , 20-H ) :   0.2316 
B( 13-C , 21-H ) :   0.1327 B( 14-H , 15-H ) :  -0.1543 B( 16-C , 17-H ) :   0.3166 
B( 16-C , 18-H ) :   0.2173 B( 16-C , 19-C ) :   1.1231 B( 16-C , 20-H ) :   0.8049 
B( 16-C , 21-H ) :   0.7865 B( 16-C , 22-C ) :   0.2397 B( 16-C , 23-H ) :   0.1856 
B( 16-C , 24-H ) :   0.3682 B( 17-H , 26-H ) :   0.1439 B( 19-C , 22-C ) :   1.0908 
B( 19-C , 23-H ) :   0.4992 B( 19-C , 24-H ) :   0.5032 B( 22-C , 23-H ) :   0.3213 
B( 22-C , 24-H ) :   0.1456 B( 22-C , 25-C ) :   1.2173 B( 22-C , 26-H ) :   0.7461 
B( 22-C , 27-H ) :   0.7884 B( 22-C , 28-C ) :   0.1756 B( 22-C , 29-H ) :   0.1346 
B( 22-C , 30-H ) :   0.1907 B( 23-H , 24-H ) :  -0.1738 B( 25-C , 26-H ) :   0.1460 
B( 25-C , 27-H ) :   0.2096 B( 25-C , 28-C ) :   1.1502 B( 25-C , 29-H ) :   0.5385 
B( 25-C , 30-H ) :   0.5907 B( 25-C , 32-H ) :   0.2307 B( 26-H , 27-H ) :  -0.1154 
B( 27-H , 31-H ) :  -0.1086 B( 28-C , 29-H ) :   0.1676 B( 28-C , 31-H ) :   0.7479 
B( 28-C , 32-H ) :   0.5959 B( 28-C , 34-H ) :   0.2898 B( 29-H , 30-H ) :   0.2489 
B( 31-H , 32-H ) :  -0.1029 

-------
TIMINGS
-------

Total SCF time: 0 days 0 hours 0 min 47 sec 

Total time                  ....      47.610 sec
Sum of individual times     ....      46.809 sec  ( 98.3%)

Fock matrix formation       ....      42.421 sec  ( 89.1%)
  Split-RI-J                ....      13.739 sec  ( 32.4% of F)
  XC integration            ....      28.469 sec  ( 67.1% of F)
    Basis function eval.    ....       7.672 sec  ( 26.9% of XC)
    Density eval.           ....       9.837 sec  ( 34.6% of XC)
    XC-Functional eval.     ....       0.476 sec  (  1.7% of XC)
    XC-Potential eval.      ....       9.600 sec  ( 33.7% of XC)
Diagonalization             ....       0.497 sec  (  1.0%)
Density matrix formation    ....       0.042 sec  (  0.1%)
Population analysis         ....       0.060 sec  (  0.1%)
Initial guess               ....       1.075 sec  (  2.3%)
Orbital Transformation      ....       0.000 sec  (  0.0%)
Orbital Orthonormalization  ....       0.000 sec  (  0.0%)
DIIS solution               ....       0.287 sec  (  0.6%)
SOSCF solution              ....       0.492 sec  (  1.0%)
Grid generation             ....       1.935 sec  (  4.1%)

Maximum memory used throughout the entire SCF-calculation: 76.4 MB


-------------------------------------------------------------------------------
                          DFT DISPERSION CORRECTION                            
                                                                               
                              DFTD3 V3.1  Rev 1                                
                          USING Becke-Johnson damping                          
-------------------------------------------------------------------------------
The BLYP functional is recognized
Active option DFTDOPT                   ...         4   

molecular C6(AA) [au] = 10173.704779 


            DFT-D V3
 parameters
 s6 scaling factor         :     1.0000 
 a1 scaling factor         :     0.4298 
 s8 scaling factor         :     2.6996 
 a2 scaling factor         :     4.2359 
 ad hoc parameters k1-k3   :    16.0000     1.3333    -4.0000 

 Edisp/kcal,au: -52.451805546977  -0.083587263810 
 E6   /kcal   : -21.764241921 
 E8   /kcal   : -30.687563626 
 % E8         :  58.506210237 

-------------------------   ----------------
Dispersion correction           -0.083587264
-------------------------   ----------------


-------------------------   --------------------
FINAL SINGLE POINT ENERGY     -1033.422035583310
-------------------------   --------------------


                            ***************************************
                            *     ORCA property calculations      *
                            ***************************************

                                    ---------------------
                                    Active property flags
                                    ---------------------
   (+) Dipole Moment


------------------------------------------------------------------------------
                       ORCA ELECTRIC PROPERTIES CALCULATION
------------------------------------------------------------------------------

Dipole Moment Calculation                       ... on
Quadrupole Moment Calculation                   ... off
Polarizability Calculation                      ... off
GBWName                                         ... 28Oct_SVPD_BLYP_B_wt_wb97.gbw
Electron density file                           ... 28Oct_SVPD_BLYP_B_wt_wb97.scfp
The origin for moment calculation is the CENTER OF MASS  = (-9.542442, -2.521782 -6.429359)

-------------
DIPOLE MOMENT
-------------
                                X             Y             Z
Electronic contribution:     -6.03219     -15.22831     -11.42139
Nuclear contribution   :      8.59301      16.99497      12.41069
                        -----------------------------------------
Total Dipole Moment    :      2.56082       1.76666       0.98930
                        -----------------------------------------
Magnitude (a.u.)       :      3.26460
Magnitude (Debye)      :      8.29795



--------------------
Rotational spectrum 
--------------------
 
Rotational constants in cm-1:     0.025617     0.015295     0.010641 
Rotational constants in MHz :   767.991150   458.522408   319.013093 

 Dipole components along the rotational axes: 
x,y,z [a.u.] :     3.082491     1.034964     0.291027 
x,y,z [Debye]:     7.835069     2.630669     0.739732 

 

Timings for individual modules:

Sum of individual times         ...       48.785 sec (=   0.813 min)
GTO integral calculation        ...        0.810 sec (=   0.013 min)   1.7 %
SCF iterations                  ...       47.975 sec (=   0.800 min)  98.3 %
                             ****ORCA TERMINATED NORMALLY****
TOTAL RUN TIME: 0 days 0 hours 0 minutes 49 seconds 431 msec
