
                                        *****************
                                        * O   R   C   A *
                                        *****************

                                            #,                                       
                                            ###                                      
                                            ####                                     
                                            #####                                    
                                            ######                                   
                                           ########,                                 
                                     ,,################,,,,,                         
                               ,,#################################,,                 
                          ,,##########################################,,             
                       ,#########################################, ''#####,          
                    ,#############################################,,   '####,        
                  ,##################################################,,,,####,       
                ,###########''''           ''''###############################       
              ,#####''   ,,,,##########,,,,          '''####'''          '####       
            ,##' ,,,,###########################,,,                        '##       
           ' ,,###''''                  '''############,,,                           
         ,,##''                                '''############,,,,        ,,,,,,###''
      ,#''                                            '''#######################'''  
     '                                                          ''''####''''         
             ,#######,   #######,   ,#######,      ##                                
            ,#'     '#,  ##    ##  ,#'     '#,    #''#        ######   ,####,        
            ##       ##  ##   ,#'  ##            #'  '#       #        #'  '#        
            ##       ##  #######   ##           ,######,      #####,   #    #        
            '#,     ,#'  ##    ##  '#,     ,#' ,#      #,         ##   #,  ,#        
             '#######'   ##     ##  '#######'  #'      '#     #####' # '####'        



                  #######################################################
                  #                        -***-                        #
                  #          Department of theory and spectroscopy      #
                  #    Directorship and core code : Frank Neese         #
                  #        Max Planck Institute fuer Kohlenforschung    #
                  #                Kaiser Wilhelm Platz 1               #
                  #                 D-45470 Muelheim/Ruhr               #
                  #                      Germany                        #
                  #                                                     #
                  #                  All rights reserved                #
                  #                        -***-                        #
                  #######################################################


                         Program Version 5.0.0 -  RELEASE  -
                                (SVN: $Rev: 19529$)
                ($Date: 2021-06-28 11:36:33 +0200 (Mo, 28 Jun 2021) $)


 With contributions from (in alphabetic order):
   Daniel Aravena         : Magnetic Suceptibility
   Michael Atanasov       : Ab Initio Ligand Field Theory (pilot matlab implementation)
   Alexander A. Auer      : GIAO ZORA, VPT2 properties, NMR spectrum
   Ute Becker             : Parallelization
   Giovanni Bistoni       : ED, misc. LED, open-shell LED, HFLD
   Martin Brehm           : Molecular dynamics
   Dmytro Bykov           : SCF Hessian
   Vijay G. Chilkuri      : MRCI spin determinant printing, contributions to CSF-ICE
   Dipayan Datta          : RHF DLPNO-CCSD density
   Achintya Kumar Dutta   : EOM-CC, STEOM-CC
   Dmitry Ganyushin       : Spin-Orbit,Spin-Spin,Magnetic field MRCI
   Miquel Garcia          : C-PCM Hessian, Gaussian charge scheme
   Yang Guo               : DLPNO-NEVPT2, F12-NEVPT2, CIM, IAO-localization
   Andreas Hansen         : Spin unrestricted coupled pair/coupled cluster methods
   Benjamin Helmich-Paris : MC-RPA, TRAH-SCF, COSX integrals
   Lee Huntington         : MR-EOM, pCC
   Robert Izsak           : Overlap fitted RIJCOSX, COSX-SCS-MP3, EOM
   Marcus Kettner         : VPT2
   Christian Kollmar      : KDIIS, OOCD, Brueckner-CCSD(T), CCSD density, CASPT2, CASPT2-K
   Simone Kossmann        : Meta GGA functionals, TD-DFT gradient, OOMP2, MP2 Hessian
   Martin Krupicka        : Initial AUTO-CI
   Lucas Lang             : DCDCAS
   Marvin Lechner         : AUTO-CI (C++ implementation), FIC-MRCC
   Dagmar Lenk            : GEPOL surface, SMD
   Dimitrios Liakos       : Extrapolation schemes; Compound Job, initial MDCI parallelization
   Dimitrios Manganas     : Further ROCIS development; embedding schemes
   Dimitrios Pantazis     : SARC Basis sets
   Anastasios Papadopoulos: AUTO-CI, single reference methods and gradients
   Taras Petrenko         : DFT Hessian,TD-DFT gradient, ASA, ECA, R-Raman, ABS, FL, XAS/XES, NRVS
   Peter Pinski           : DLPNO-MP2, DLPNO-MP2 Gradient
   Christoph Reimann      : Effective Core Potentials
   Marius Retegan         : Local ZFS, SOC
   Christoph Riplinger    : Optimizer, TS searches, QM/MM, DLPNO-CCSD(T), (RO)-DLPNO pert. Triples
   Tobias Risthaus        : Range-separated hybrids, TD-DFT gradient, RPA, STAB
   Michael Roemelt        : Original ROCIS implementation
   Masaaki Saitow         : Open-shell DLPNO-CCSD energy and density
   Barbara Sandhoefer     : DKH picture change effects
   Avijit Sen             : IP-ROCIS
   Kantharuban Sivalingam : CASSCF convergence, NEVPT2, FIC-MRCI
   Bernardo de Souza      : ESD, SOC TD-DFT
   Georgi Stoychev        : AutoAux, RI-MP2 NMR
   Willem Van den Heuvel  : Paramagnetic NMR
   Boris Wezisla          : Elementary symmetry handling
   Frank Wennmohs         : Technical directorship


 We gratefully acknowledge several colleagues who have allowed us to
 interface, adapt or use parts of their codes:
   Stefan Grimme, W. Hujo, H. Kruse, P. Pracht,  : VdW corrections, initial TS optimization,
                  C. Bannwarth, S. Ehlert          DFT functionals, gCP, sTDA/sTD-DF
   Ed Valeev, F. Pavosevic, A. Kumar             : LibInt (2-el integral package), F12 methods
   Garnet Chan, S. Sharma, J. Yang, R. Olivares  : DMRG
   Ulf Ekstrom                                   : XCFun DFT Library
   Mihaly Kallay                                 : mrcc  (arbitrary order and MRCC methods)
   Jiri Pittner, Ondrej Demel                    : Mk-CCSD
   Frank Weinhold                                : gennbo (NPA and NBO analysis)
   Christopher J. Cramer and Donald G. Truhlar   : smd solvation model
   Lars Goerigk                                  : TD-DFT with DH, B97 family of functionals
   V. Asgeirsson, H. Jonsson                     : NEB implementation
   FAccTs GmbH                                   : IRC, NEB, NEB-TS, DLPNO-Multilevel, CI-OPT
                                                   MM, QMMM, 2- and 3-layer-ONIOM, Crystal-QMMM,
                                                   LR-CPCM, SF, NACMEs, symmetry and pop. for TD-DFT,
                                                   nearIR, NL-DFT gradient (VV10), updates on ESD,
                                                   ML-optimized integration grids
   S Lehtola, MJT Oliveira, MAL Marques          : LibXC Library
   Liviu Ungur et al                             : ANISO software


 Your calculation uses the libint2 library for the computation of 2-el integrals
 For citations please refer to: http://libint.valeyev.net

 Your ORCA version has been built with support for libXC version: 5.1.0
 For citations please refer to: https://tddft.org/programs/libxc/

 This ORCA versions uses:
   CBLAS   interface :  Fast vector & matrix operations
   LAPACKE interface :  Fast linear algebra routines
   SCALAPACK package :  Parallel linear algebra routines
   Shared memory     :  Shared parallel matrices
   BLAS/LAPACK       :  OpenBLAS 0.3.15  USE64BITINT DYNAMIC_ARCH NO_AFFINITY Haswell SINGLE_THREADED
        Core in use  :  Haswell
   Copyright (c) 2011-2014, The OpenBLAS Project


Your calculation utilizes the atom-pairwise dispersion correction
with the Becke-Johnson damping scheme (D3BJ)
Cite in your paper:
S.Grimme, S.Ehrlich, L.Goerigk, J Comput Chem, (2011), 32, 1456–1465 
S.Grimme, J.Antony, S.Ehrlich and H.Krieg, J.Chem.Phys., 132, (2010), 154104 
   

================================================================================

----- Orbital basis set information -----
Your calculation utilizes the basis: def2-SVPD
   F. Weigend and R. Ahlrichs, Phys. Chem. Chem. Phys. 7, 3297 (2005).
   D. Rappoport and F. Furche, J. Chem. Phys. 133 134105 (2010).

----- AuxJ basis set information -----
Your calculation utilizes the auxiliary basis: def2/J
   F. Weigend, Phys. Chem. Chem. Phys. 8, 1057 (2006).

================================================================================
                                        WARNINGS
                       Please study these warnings very carefully!
================================================================================



WARNING: Found flag for RIJCOSX approximation but no HF exchange needed!
  ===> : RIJCOSX  will be disabled and Split-RI-J is turned on

INFO   : the flag for use of the SHARK integral package has been found!

================================================================================
                                       INPUT FILE
================================================================================
NAME = 18Feb_SVPD_PBE_A_wt_wb97_typm1_pos.com
|  1> !PBE D3BJ RIJCOSX def2-SVPD def2/J TightSCF 
|  2> *xyz 1 1
|  3> C          1.96337       -1.74915       -1.89689
|  4> N          2.73849       -2.01517       -3.09711
|  5> C          4.04974       -2.15472       -3.15204
|  6> N          4.65821       -1.98629       -4.31866
|  7> N          4.76423       -2.45444       -2.05049
|  8> H          4.28736       -2.77626       -1.21750
|  9> H          5.75082       -2.65835       -2.12599
| 10> H          2.34518       -1.69027       -3.97145
| 11> H          4.10900       -1.59268       -5.07176
| 12> H          5.64910       -2.15646       -4.42724
| 13> H          0.92556       -1.68522       -2.14942
| 14> H          2.28268       -0.82430       -1.46378
| 15> H          2.11118       -2.54207       -1.19381
| 16> *
| 17> %MaxCore 64000
| 18> 
| 19> %pal nprocs 8
| 20> end  
| 21> 
| 22> %scf
| 23>   MaxIter 150
| 24> end
| 25> 
| 26> 
| 27>                          ****END OF INPUT****
================================================================================

                       ****************************
                       * Single Point Calculation *
                       ****************************

---------------------------------
CARTESIAN COORDINATES (ANGSTROEM)
---------------------------------
  C      1.963370   -1.749150   -1.896890
  N      2.738490   -2.015170   -3.097110
  C      4.049740   -2.154720   -3.152040
  N      4.658210   -1.986290   -4.318660
  N      4.764230   -2.454440   -2.050490
  H      4.287360   -2.776260   -1.217500
  H      5.750820   -2.658350   -2.125990
  H      2.345180   -1.690270   -3.971450
  H      4.109000   -1.592680   -5.071760
  H      5.649100   -2.156460   -4.427240
  H      0.925560   -1.685220   -2.149420
  H      2.282680   -0.824300   -1.463780
  H      2.111180   -2.542070   -1.193810

----------------------------
CARTESIAN COORDINATES (A.U.)
----------------------------
  NO LB      ZA    FRAG     MASS         X           Y           Z
   0 C     6.0000    0    12.011    3.710232   -3.305414   -3.584603
   1 N     7.0000    0    14.007    5.174996   -3.808119   -5.852690
   2 C     6.0000    0    12.011    7.652900   -4.071831   -5.956492
   3 N     7.0000    0    14.007    8.802741   -3.753544   -8.161085
   4 N     7.0000    0    14.007    9.003090   -4.638219   -3.874865
   5 H     1.0000    0     1.008    8.101936   -5.246371   -2.300742
   6 H     1.0000    0     1.008   10.867475   -5.023553   -4.017539
   7 H     1.0000    0     1.008    4.431748   -3.194147   -7.504953
   8 H     1.0000    0     1.008    7.764885   -3.009729   -9.584237
   9 H     1.0000    0     1.008   10.675252   -4.075119   -8.366271
  10 H     1.0000    0     1.008    1.749055   -3.184604   -4.061815
  11 H     1.0000    0     1.008    4.313640   -1.557701   -2.766143
  12 H     1.0000    0     1.008    3.989552   -4.803816   -2.255974

--------------------------------
INTERNAL COORDINATES (ANGSTROEM)
--------------------------------
 C      0   0   0     0.000000000000     0.00000000     0.00000000
 N      1   0   0     1.453308536822     0.00000000     0.00000000
 C      2   1   0     1.319798495945   125.70558414     0.00000000
 N      3   2   1     1.326501651036   118.61421616   200.38175597
 N      3   2   1     1.346751811211   121.10321023    20.01727886
 H      5   3   2     1.012346506588   119.59453702    13.56866466
 H      5   3   2     1.010266977685   120.12495650   173.22985716
 H      2   1   3     1.012286126399   116.57303880   207.34688220
 H      4   3   2     1.011790524862   117.06612917    10.99918763
 H      4   3   2     1.011242027113   121.50248980   185.08027543
 H      1   2   3     1.070003757891   109.47098058   179.99987936
 H      1   2   3     1.069995640505   109.47152212    59.99999776
 H      1   2   3     1.069995985460   109.47133183   300.00016595

---------------------------
INTERNAL COORDINATES (A.U.)
---------------------------
 C      0   0   0     0.000000000000     0.00000000     0.00000000
 N      1   0   0     2.746355122684     0.00000000     0.00000000
 C      2   1   0     2.494057709298   125.70558414     0.00000000
 N      3   2   1     2.506724836652   118.61421616   200.38175597
 N      3   2   1     2.544992093551   121.10321023    20.01727886
 H      5   3   2     1.913057650082   119.59453702    13.56866466
 H      5   3   2     1.909127909968   120.12495650   173.22985716
 H      2   1   3     1.912943548062   116.57303880   207.34688220
 H      4   3   2     1.912006996885   117.06612917    10.99918763
 H      4   3   2     1.910970486355   121.50248980   185.08027543
 H      1   2   3     2.022014064680   109.47098058   179.99987936
 H      1   2   3     2.021998725044   109.47152212    59.99999776
 H      1   2   3     2.021999376914   109.47133183   300.00016595

---------------------
BASIS SET INFORMATION
---------------------
There are 3 groups of distinct atoms

 Group   1 Type C   : 8s4p2d contracted to 4s2p2d pattern {5111/31/11}
 Group   2 Type N   : 8s4p2d contracted to 4s2p2d pattern {5111/31/11}
 Group   3 Type H   : 4s2p contracted to 2s2p pattern {31/11}

Atom   0C    basis set group =>   1
Atom   1N    basis set group =>   2
Atom   2C    basis set group =>   1
Atom   3N    basis set group =>   2
Atom   4N    basis set group =>   2
Atom   5H    basis set group =>   3
Atom   6H    basis set group =>   3
Atom   7H    basis set group =>   3
Atom   8H    basis set group =>   3
Atom   9H    basis set group =>   3
Atom  10H    basis set group =>   3
Atom  11H    basis set group =>   3
Atom  12H    basis set group =>   3
---------------------------------
AUXILIARY/J BASIS SET INFORMATION
---------------------------------
There are 3 groups of distinct atoms

 Group   1 Type C   : 12s5p4d2f1g contracted to 6s4p3d1f1g pattern {711111/2111/211/2/1}
 Group   2 Type N   : 12s5p4d2f1g contracted to 6s4p3d1f1g pattern {711111/2111/211/2/1}
 Group   3 Type H   : 5s2p1d contracted to 3s1p1d pattern {311/2/1}

Atom   0C    basis set group =>   1
Atom   1N    basis set group =>   2
Atom   2C    basis set group =>   1
Atom   3N    basis set group =>   2
Atom   4N    basis set group =>   2
Atom   5H    basis set group =>   3
Atom   6H    basis set group =>   3
Atom   7H    basis set group =>   3
Atom   8H    basis set group =>   3
Atom   9H    basis set group =>   3
Atom  10H    basis set group =>   3
Atom  11H    basis set group =>   3
Atom  12H    basis set group =>   3


           ************************************************************
           *        Program running with 8 parallel MPI-processes     *
           *              working on a common directory               *
           ************************************************************
------------------------------------------------------------------------------
                           ORCA GTO INTEGRAL CALCULATION
                           -- RI-GTO INTEGRALS CHOSEN --
------------------------------------------------------------------------------
------------------------------------------------------------------------------
                   ___                                                        
                  /   \      - P O W E R E D   B Y -                         
                 /     \                                                     
                 |  |  |   _    _      __       _____    __    __             
                 |  |  |  | |  | |    /  \     |  _  \  |  |  /  |          
                  \  \/   | |  | |   /    \    | | | |  |  | /  /          
                 / \  \   | |__| |  /  /\  \   | |_| |  |  |/  /          
                |  |  |   |  __  | /  /__\  \  |    /   |      \           
                |  |  |   | |  | | |   __   |  |    \   |  |\   \          
                \     /   | |  | | |  |  |  |  | |\  \  |  | \   \       
                 \___/    |_|  |_| |__|  |__|  |_| \__\ |__|  \__/        
                                                                              
                      - O R C A' S   B I G   F R I E N D -                    
                                      &                                       
                       - I N T E G R A L  F E E D E R -                       
                                                                              
 v1 FN, 2020, v2 2021                                                         
------------------------------------------------------------------------------


Reading SHARK input file 18Feb_SVPD_PBE_A_wt_wb97_typm1_pos.SHARKINP.tmp ... ok
----------------------
SHARK INTEGRAL PACKAGE
----------------------

Number of atoms                             ...     13
Number of basis functions                   ...    164
Number of shells                            ...     72
Maximum angular momentum                    ...      2
Integral batch strategy                     ... SHARK/LIBINT Hybrid
RI-J (if used) integral strategy            ... SPLIT-RIJ (Revised 2003 algorithm where possible)
Printlevel                                  ...      1
Contraction scheme used                     ... SEGMENTED contraction
Coulomb Range Separation                    ... NOT USED
Exchange Range Separation                   ... NOT USED
Finite Nucleus Model                        ... NOT USED
Auxiliary Coulomb fitting basis             ... AVAILABLE
   # of basis functions in Aux-J            ...    333
   # of shells in Aux-J                     ...    115
   Maximum angular momentum in Aux-J        ...      4
Auxiliary J/K fitting basis                 ... NOT available
Auxiliary Correlation fitting basis         ... NOT available
Auxiliary 'external' fitting basis          ... NOT available
Integral threshold                          ...     2.500000e-11
Primitive cut-off                           ...     2.500000e-12
Primitive pair pre-selection threshold      ...     2.500000e-12

Calculating pre-screening integrals         ... done (  0.0 sec) Dimension = 72
Organizing shell pair data                  ... done (  0.0 sec)
Shell pair information
Total number of shell pairs                 ...      2628
Shell pairs after pre-screening             ...      2604
Total number of primitive shell pairs       ...      7110
Primitive shell pairs kept                  ...      5996
          la=0 lb=0:    658 shell pairs
          la=1 lb=0:    926 shell pairs
          la=1 lb=1:    347 shell pairs
          la=2 lb=0:    358 shell pairs
          la=2 lb=1:    260 shell pairs
          la=2 lb=2:     55 shell pairs

Calculating one electron integrals          ... done (  0.0 sec)
Calculating RI/J V-Matrix + Cholesky decomp.... done (  0.0 sec)
Calculating Nuclear repulsion               ... done (  0.0 sec) ENN=    193.964583089587 Eh

SHARK setup successfully completed in   0.2 seconds

Maximum memory used throughout the entire GTOINT-calculation: 8.9 MB


           ************************************************************
           *        Program running with 8 parallel MPI-processes     *
           *              working on a common directory               *
           ************************************************************
-------------------------------------------------------------------------------
                                 ORCA SCF
-------------------------------------------------------------------------------

------------
SCF SETTINGS
------------
Hamiltonian:
 Density Functional     Method          .... DFT(GTOs)
 Exchange Functional    Exchange        .... PBE
   PBE kappa parameter   XKappa         ....  0.804000
   PBE mue parameter    XMuePBE         ....  0.219520
 Correlation Functional Correlation     .... PBE
   PBE beta parameter  CBetaPBE         ....  0.066725
 LDA part of GGA corr.  LDAOpt          .... PW91-LDA
 Gradients option       PostSCFGGA      .... off
   Density functional embedding theory  .... OFF
   NL short-range parameter             ....  6.400000
 RI-approximation to the Coulomb term is turned on
   Number of AuxJ basis functions       .... 333


General Settings:
 Integral files         IntName         .... 18Feb_SVPD_PBE_A_wt_wb97_typm1_pos
 Hartree-Fock type      HFTyp           .... RHF
 Total Charge           Charge          ....    1
 Multiplicity           Mult            ....    1
 Number of Electrons    NEL             ....   40
 Basis Dimension        Dim             ....  164
 Nuclear Repulsion      ENuc            ....    193.9645830896 Eh

Convergence Acceleration:
 DIIS                   CNVDIIS         .... on
   Start iteration      DIISMaxIt       ....    12
   Startup error        DIISStart       ....  0.200000
   # of expansion vecs  DIISMaxEq       ....     5
   Bias factor          DIISBfac        ....   1.050
   Max. coefficient     DIISMaxC        ....  10.000
 Trust-Rad. Augm. Hess. CNVTRAH         .... auto
   Auto Start mean grad. ratio tolernc. ....  1.125000
   Auto Start start iteration           ....    20
   Auto Start num. interpolation iter.  ....    10
   Max. Number of Micro iterations      ....    16
   Max. Number of Macro iterations      .... Maxiter - #DIIS iter
   Number of Davidson start vectors     ....     2
   Converg. threshold I  (grad. norm)   ....   1.000e-05
   Converg. threshold II (energy diff.) ....   1.000e-08
   Grad. Scal. Fac. for Micro threshold ....   0.100
   Minimum threshold for Micro iter.    ....   0.010
   NR start threshold (gradient norm)   ....   0.001
   Initial trust radius                 ....   0.400
   Minimum AH scaling param. (alpha)    ....   1.000
   Maximum AH scaling param. (alpha)    .... 1000.000
   Orbital update algorithm             .... Taylor
   White noise on init. David. guess    .... on
   Maximum white noise                  ....   0.010
   Quad. conv. algorithm                .... NR
 SOSCF                  CNVSOSCF        .... on
   Start iteration      SOSCFMaxIt      ....   150
   Startup grad/error   SOSCFStart      ....  0.003300
 Level Shifting         CNVShift        .... on
   Level shift para.    LevelShift      ....    0.2500
   Turn off err/grad.   ShiftErr        ....    0.0010
 Zerner damping         CNVZerner       .... off
 Static damping         CNVDamp         .... on
   Fraction old density DampFac         ....    0.7000
   Max. Damping (<1)    DampMax         ....    0.9800
   Min. Damping (>=0)   DampMin         ....    0.0000
   Turn off err/grad.   DampErr         ....    0.1000
 Fernandez-Rico         CNVRico         .... off

SCF Procedure:
 Maximum # iterations   MaxIter         ....   150
 SCF integral mode      SCFMode         .... Direct
   Integral package                     .... SHARK and LIBINT hybrid scheme
 Reset frequency        DirectResetFreq ....    20
 Integral Threshold     Thresh          ....  2.500e-11 Eh
 Primitive CutOff       TCut            ....  2.500e-12 Eh

Convergence Tolerance:
 Convergence Check Mode ConvCheckMode   .... Total+1el-Energy
 Convergence forced     ConvForced      .... 0
 Energy Change          TolE            ....  1.000e-08 Eh
 1-El. energy change                    ....  1.000e-05 Eh
 Orbital Gradient       TolG            ....  1.000e-05
 Orbital Rotation angle TolX            ....  1.000e-05
 DIIS Error             TolErr          ....  5.000e-07


Diagonalization of the overlap matrix:
Smallest eigenvalue                        ... 7.585e-05
Time for diagonalization                   ...    0.008 sec
Threshold for overlap eigenvalues          ... 1.000e-08
Number of eigenvalues below threshold      ... 0
Time for construction of square roots      ...    0.007 sec
Total time needed                          ...    0.016 sec

Time for model grid setup =    0.055 sec

------------------------------
INITIAL GUESS: MODEL POTENTIAL
------------------------------
Loading Hartree-Fock densities                     ... done
Calculating cut-offs                               ... done
Initializing the effective Hamiltonian             ... done
Setting up the integral package (SHARK)            ... done
Starting the Coulomb interaction                   ... done (   0.0 sec)
Reading the grid                                   ... done
Mapping shells                                     ... done
Starting the XC term evaluation                    ... done (   0.1 sec)
  promolecular density results
     # of electrons  =     40.995145892
     EX              =    -32.298784407
     EC              =     -1.355235424
     EX+EC           =    -33.654019831
Transforming the Hamiltonian                       ... done (   0.0 sec)
Diagonalizing the Hamiltonian                      ... done (   0.0 sec)
Back transforming the eigenvectors                 ... done (   0.0 sec)
Now organizing SCF variables                       ... done
                      ------------------
                      INITIAL GUESS DONE (   0.1 sec)
                      ------------------
-------------------
DFT GRID GENERATION
-------------------

General Integration Accuracy     IntAcc      ... 4.388
Radial Grid Type                 RadialGrid  ... OptM3 with GC (2021)
Angular Grid (max. ang.)         AngularGrid ... 4 (Lebedev-302)
Angular grid pruning method      GridPruning ... 4 (adaptive)
Weight generation scheme         WeightScheme... Becke
Basis function cutoff            BFCut       ... 1.0000e-11
Integration weight cutoff        WCut        ... 1.0000e-14
Angular grids for H and He will be reduced by one unit
Partially contracted basis set               ... off
Rotationally invariant grid construction     ... off

Total number of grid points                  ...    57704
Total number of batches                      ...      907
Average number of points per batch           ...       63
Average number of grid points per atom       ...     4439
Time for grid setup =    0.308 sec

--------------
SCF ITERATIONS
--------------
ITER       Energy         Delta-E        Max-DP      RMS-DP      [F,P]     Damp
               ***  Starting incremental Fock matrix formation  ***
  0   -244.4789791194   0.000000000000 0.07537970  0.00251623  0.1786213 0.7000
  1   -244.5487192234  -0.069740104011 0.03934724  0.00142307  0.0759856 0.7000
                               ***Turning on DIIS***
  2   -244.5713323205  -0.022613097110 0.04560296  0.00181379  0.0179527 0.0000
  3   -244.6076992802  -0.036366959662 0.02684324  0.00092251  0.0458931 0.0000
  4   -244.6171972456  -0.009497965434 0.00998314  0.00027074  0.0084726 0.0000
                      *** Initiating the SOSCF procedure ***
                           *** Shutting down DIIS ***
                      *** Re-Reading the Fockian *** 
                      *** Removing any level shift *** 
ITER      Energy       Delta-E        Grad      Rot      Max-DP    RMS-DP
  5   -244.61761417  -0.0004169280  0.000903  0.000903  0.003018  0.000105
               *** Restarting incremental Fock matrix formation ***
  6   -244.61765114  -0.0000369657  0.000233  0.000822  0.001868  0.000064
  7   -244.61765064   0.0000005016  0.000406  0.000754  0.000745  0.000024
  8   -244.61765444  -0.0000038060  0.000161  0.000456  0.000619  0.000016
  9   -244.61765414   0.0000003007  0.000159  0.000206  0.000347  0.000009
 10   -244.61765475  -0.0000006090  0.000019  0.000089  0.000062  0.000003
 11   -244.61765475   0.0000000010  0.000026  0.000050  0.000049  0.000001
 12   -244.61765476  -0.0000000070  0.000007  0.000017  0.000029  0.000001
 13   -244.61765476  -0.0000000006  0.000005  0.000005  0.000015  0.000001
                  ***Gradient check signals convergence***
              ***Rediagonalizing the Fockian in SOSCF/NRSCF***

               *****************************************************
               *                     SUCCESS                       *
               *           SCF CONVERGED AFTER  14 CYCLES          *
               *****************************************************


----------------
TOTAL SCF ENERGY
----------------

Total Energy       :         -244.61765476 Eh           -6656.38479 eV

Components:
Nuclear Repulsion  :          193.96458309 Eh            5278.04464 eV
Electronic Energy  :         -438.58223785 Eh          -11934.42943 eV
One Electron Energy:         -705.46918028 Eh          -19196.79234 eV
Two Electron Energy:          266.88694243 Eh            7262.36292 eV

Virial components:
Potential Energy   :         -486.82359714 Eh          -13247.14355 eV
Kinetic Energy     :          242.20594238 Eh            6590.75876 eV
Virial Ratio       :            2.00995728


DFT components:
N(Alpha)           :       20.000002717559 electrons
N(Beta)            :       20.000002717559 electrons
N(Total)           :       40.000005435119 electrons
E(X)               :      -32.703646251433 Eh       
E(C)               :       -1.334991471567 Eh       
E(XC)              :      -34.038637723000 Eh       
DFET-embed. en.    :        0.000000000000 Eh       

---------------
SCF CONVERGENCE
---------------

  Last Energy change         ...   -4.5509e-10  Tolerance :   1.0000e-08
  Last MAX-Density change    ...    1.6566e-05  Tolerance :   1.0000e-07
  Last RMS-Density change    ...    5.1583e-07  Tolerance :   5.0000e-09
  Last Orbital Gradient      ...    1.5010e-06  Tolerance :   1.0000e-05
  Last Orbital Rotation      ...    4.3153e-06  Tolerance :   1.0000e-05

             **** THE GBW FILE WAS UPDATED (18Feb_SVPD_PBE_A_wt_wb97_typm1_pos.gbw) ****
             **** DENSITY 18Feb_SVPD_PBE_A_wt_wb97_typm1_pos.scfp WAS UPDATED ****
             **** ENERGY FILE WAS UPDATED (18Feb_SVPD_PBE_A_wt_wb97_typm1_pos.en.tmp) ****
             **** THE GBW FILE WAS UPDATED (18Feb_SVPD_PBE_A_wt_wb97_typm1_pos.gbw) ****
             **** DENSITY 18Feb_SVPD_PBE_A_wt_wb97_typm1_pos.scfp WAS UPDATED ****
----------------
ORBITAL ENERGIES
----------------

  NO   OCC          E(Eh)            E(eV) 
   0   2.0000     -14.231265      -387.2524 
   1   2.0000     -14.227819      -387.1586 
   2   2.0000     -14.226822      -387.1315 
   3   2.0000     -10.223216      -278.1878 
   4   2.0000     -10.101183      -274.8672 
   5   2.0000      -1.130377       -30.7591 
   6   2.0000      -1.025327       -27.9006 
   7   2.0000      -1.012937       -27.5634 
   8   2.0000      -0.841433       -22.8965 
   9   2.0000      -0.771353       -20.9896 
  10   2.0000      -0.735263       -20.0075 
  11   2.0000      -0.707457       -19.2509 
  12   2.0000      -0.650793       -17.7090 
  13   2.0000      -0.643956       -17.5229 
  14   2.0000      -0.607723       -16.5370 
  15   2.0000      -0.604219       -16.4416 
  16   2.0000      -0.547901       -14.9091 
  17   2.0000      -0.535237       -14.5646 
  18   2.0000      -0.442012       -12.0277 
  19   2.0000      -0.421736       -11.4760 
  20   0.0000      -0.207860        -5.6562 
  21   0.0000      -0.183397        -4.9905 
  22   0.0000      -0.145721        -3.9653 
  23   0.0000      -0.139195        -3.7877 
  24   0.0000      -0.114877        -3.1260 
  25   0.0000      -0.104825        -2.8524 
  26   0.0000      -0.084497        -2.2993 
  27   0.0000      -0.081800        -2.2259 
  28   0.0000      -0.054231        -1.4757 
  29   0.0000      -0.048477        -1.3191 
  30   0.0000      -0.038517        -1.0481 
  31   0.0000      -0.027377        -0.7450 
  32   0.0000      -0.023756        -0.6464 
  33   0.0000      -0.016777        -0.4565 
  34   0.0000      -0.002858        -0.0778 
  35   0.0000       0.004780         0.1301 
  36   0.0000       0.027668         0.7529 
  37   0.0000       0.038194         1.0393 
  38   0.0000       0.044054         1.1988 
  39   0.0000       0.051348         1.3973 
  40   0.0000       0.072800         1.9810 
  41   0.0000       0.073847         2.0095 
  42   0.0000       0.086311         2.3486 
  43   0.0000       0.093641         2.5481 
  44   0.0000       0.108428         2.9505 
  45   0.0000       0.124227         3.3804 
  46   0.0000       0.133655         3.6369 
  47   0.0000       0.140103         3.8124 
  48   0.0000       0.155917         4.2427 
  49   0.0000       0.164527         4.4770 
  50   0.0000       0.179462         4.8834 
  51   0.0000       0.180736         4.9181 
  52   0.0000       0.192738         5.2447 
  53   0.0000       0.202255         5.5036 
  54   0.0000       0.209380         5.6975 
  55   0.0000       0.215208         5.8561 
  56   0.0000       0.228528         6.2186 
  57   0.0000       0.240689         6.5495 
  58   0.0000       0.248585         6.7643 
  59   0.0000       0.255264         6.9461 
  60   0.0000       0.277444         7.5496 
  61   0.0000       0.284028         7.7288 
  62   0.0000       0.290165         7.8958 
  63   0.0000       0.295572         8.0429 
  64   0.0000       0.301678         8.2091 
  65   0.0000       0.305959         8.3256 
  66   0.0000       0.316074         8.6008 
  67   0.0000       0.336486         9.1563 
  68   0.0000       0.339216         9.2305 
  69   0.0000       0.354103         9.6356 
  70   0.0000       0.369627        10.0581 
  71   0.0000       0.375324        10.2131 
  72   0.0000       0.383772        10.4430 
  73   0.0000       0.394664        10.7394 
  74   0.0000       0.398817        10.8524 
  75   0.0000       0.424368        11.5476 
  76   0.0000       0.448184        12.1957 
  77   0.0000       0.455547        12.3961 
  78   0.0000       0.465408        12.6644 
  79   0.0000       0.474146        12.9022 
  80   0.0000       0.495114        13.4727 
  81   0.0000       0.504714        13.7340 
  82   0.0000       0.527402        14.3514 
  83   0.0000       0.538577        14.6554 
  84   0.0000       0.557358        15.1665 
  85   0.0000       0.559788        15.2326 
  86   0.0000       0.569677        15.5017 
  87   0.0000       0.587430        15.9848 
  88   0.0000       0.672865        18.3096 
  89   0.0000       0.692590        18.8463 
  90   0.0000       0.720086        19.5945 
  91   0.0000       0.749015        20.3817 
  92   0.0000       0.766051        20.8453 
  93   0.0000       0.789823        21.4922 
  94   0.0000       0.816934        22.2299 
  95   0.0000       0.832526        22.6542 
  96   0.0000       0.865171        23.5425 
  97   0.0000       0.896354        24.3910 
  98   0.0000       0.924741        25.1635 
  99   0.0000       0.932066        25.3628 
 100   0.0000       0.947791        25.7907 
 101   0.0000       0.970975        26.4216 
 102   0.0000       0.988674        26.9032 
 103   0.0000       1.005198        27.3528 
 104   0.0000       1.087284        29.5865 
 105   0.0000       1.124646        30.6032 
 106   0.0000       1.215410        33.0730 
 107   0.0000       1.291548        35.1448 
 108   0.0000       1.295125        35.2421 
 109   0.0000       1.323474        36.0136 
 110   0.0000       1.351485        36.7758 
 111   0.0000       1.378966        37.5236 
 112   0.0000       1.407166        38.2909 
 113   0.0000       1.416882        38.5553 
 114   0.0000       1.433689        39.0126 
 115   0.0000       1.462129        39.7865 
 116   0.0000       1.478394        40.2292 
 117   0.0000       1.486170        40.4408 
 118   0.0000       1.533238        41.7215 
 119   0.0000       1.561841        42.4998 
 120   0.0000       1.615029        43.9472 
 121   0.0000       1.618206        44.0336 
 122   0.0000       1.652879        44.9771 
 123   0.0000       1.672419        45.5088 
 124   0.0000       1.703912        46.3658 
 125   0.0000       1.724357        46.9222 
 126   0.0000       1.746574        47.5267 
 127   0.0000       1.769274        48.1444 
 128   0.0000       1.774172        48.2777 
 129   0.0000       1.803673        49.0804 
 130   0.0000       1.816551        49.4309 
 131   0.0000       1.822975        49.6057 
 132   0.0000       1.844889        50.2020 
 133   0.0000       1.886733        51.3406 
 134   0.0000       1.914342        52.0919 
 135   0.0000       1.931744        52.5654 
 136   0.0000       1.968534        53.5665 
 137   0.0000       2.040508        55.5251 
 138   0.0000       2.075867        56.4872 
 139   0.0000       2.119821        57.6833 
 140   0.0000       2.146979        58.4223 
 141   0.0000       2.178869        59.2900 
 142   0.0000       2.210061        60.1388 
 143   0.0000       2.250044        61.2268 
 144   0.0000       2.262296        61.5602 
 145   0.0000       2.298749        62.5521 
 146   0.0000       2.345581        63.8265 
 147   0.0000       2.406498        65.4842 
 148   0.0000       2.453542        66.7643 
 149   0.0000       2.455869        66.8276 
 150   0.0000       2.534625        68.9706 
 151   0.0000       2.573564        70.0302 
 152   0.0000       2.640803        71.8599 
 153   0.0000       2.775784        75.5329 
 154   0.0000       2.848889        77.5222 
 155   0.0000       2.889076        78.6158 
 156   0.0000       2.913178        79.2716 
 157   0.0000       2.957092        80.4666 
 158   0.0000       2.972530        80.8867 
 159   0.0000       3.041817        82.7721 
 160   0.0000       3.097961        84.2998 
 161   0.0000       3.140421        85.4552 
 162   0.0000       3.395426        92.3942 
 163   0.0000       3.443205        93.6944 

                    ********************************
                    * MULLIKEN POPULATION ANALYSIS *
                    ********************************

-----------------------
MULLIKEN ATOMIC CHARGES
-----------------------
   0 C :    1.146849
   1 N :   -0.523567
   2 C :    1.363172
   3 N :   -0.057603
   4 N :    0.006340
   5 H :   -0.069349
   6 H :   -0.125936
   7 H :   -0.194122
   8 H :   -0.012481
   9 H :   -0.103022
  10 H :   -0.288217
  11 H :   -0.049914
  12 H :   -0.092151
Sum of atomic charges:    1.0000000

--------------------------------
MULLIKEN REDUCED ORBITAL CHARGES
--------------------------------
  0 C s       :     2.451120  s :     2.451120
      pz      :     0.775886  p :     2.445909
      px      :     0.767882
      py      :     0.902141
      dz2     :    -0.002665  d :    -0.043879
      dxz     :    -0.011822
      dyz     :     0.030069
      dx2y2   :    -0.024640
      dxy     :    -0.034821
  1 N s       :     3.544428  s :     3.544428
      pz      :     1.125339  p :     3.714686
      px      :     1.031623
      py      :     1.557724
      dz2     :     0.057437  d :     0.264453
      dxz     :     0.049725
      dyz     :     0.064832
      dx2y2   :     0.054452
      dxy     :     0.038006
  2 C s       :     2.843341  s :     2.843341
      pz      :     0.625833  p :     2.076332
      px      :     0.712412
      py      :     0.738087
      dz2     :    -0.126300  d :    -0.282845
      dxz     :    -0.142736
      dyz     :     0.011204
      dx2y2   :    -0.021178
      dxy     :    -0.003834
  3 N s       :     3.483110  s :     3.483110
      pz      :     1.019990  p :     3.594234
      px      :     1.038353
      py      :     1.535891
      dz2     :    -0.010754  d :    -0.019741
      dxz     :    -0.019350
      dyz     :     0.007631
      dx2y2   :    -0.006598
      dxy     :     0.009330
  4 N s       :     3.436280  s :     3.436280
      pz      :     1.052848  p :     3.587044
      px      :     1.001793
      py      :     1.532403
      dz2     :    -0.019491  d :    -0.029664
      dxz     :    -0.010681
      dyz     :     0.012651
      dx2y2   :    -0.012571
      dxy     :     0.000428
  5 H s       :     1.054430  s :     1.054430
      pz      :     0.011378  p :     0.014919
      px      :    -0.047855
      py      :     0.051396
  6 H s       :     1.103362  s :     1.103362
      pz      :    -0.013178  p :     0.022573
      px      :    -0.013714
      py      :     0.049465
  7 H s       :     1.140798  s :     1.140798
      pz      :     0.022913  p :     0.053324
      px      :    -0.011788
      py      :     0.042200
  8 H s       :     1.001420  s :     1.001420
      pz      :     0.008579  p :     0.011061
      px      :    -0.044753
      py      :     0.047235
  9 H s       :     1.069668  s :     1.069668
      pz      :    -0.008635  p :     0.033354
      px      :    -0.006673
      py      :     0.048662
 10 H s       :     1.231288  s :     1.231288
      pz      :     0.046614  p :     0.056929
      px      :     0.039430
      py      :    -0.029115
 11 H s       :     1.028806  s :     1.028806
      pz      :     0.005384  p :     0.021108
      px      :    -0.012153
      py      :     0.027876
 12 H s       :     1.030494  s :     1.030494
      pz      :     0.001743  p :     0.061656
      px      :     0.018506
      py      :     0.041407


                     *******************************
                     * LOEWDIN POPULATION ANALYSIS *
                     *******************************

----------------------
LOEWDIN ATOMIC CHARGES
----------------------
   0 C :    0.255347
   1 N :    0.025070
   2 C :   -0.060774
   3 N :    0.275459
   4 N :    0.293424
   5 H :    0.021682
   6 H :    0.035355
   7 H :    0.051322
   8 H :    0.036828
   9 H :    0.042067
  10 H :    0.015018
  11 H :    0.010854
  12 H :   -0.001652

-------------------------------
LOEWDIN REDUCED ORBITAL CHARGES
-------------------------------
  0 C s       :     2.688178  s :     2.688178
      pz      :     0.821716  p :     2.660365
      px      :     0.895873
      py      :     0.942776
      dz2     :     0.088522  d :     0.396110
      dxz     :     0.075395
      dyz     :     0.124938
      dx2y2   :     0.076007
      dxy     :     0.031247
  1 N s       :     2.923038  s :     2.923038
      pz      :     1.074304  p :     3.454604
      px      :     1.061601
      py      :     1.318698
      dz2     :     0.135061  d :     0.597288
      dxz     :     0.168670
      dyz     :     0.092538
      dx2y2   :     0.107269
      dxy     :     0.093749
  2 C s       :     2.610759  s :     2.610759
      pz      :     0.856925  p :     2.431868
      px      :     0.871395
      py      :     0.703548
      dz2     :     0.234721  d :     1.018147
      dxz     :     0.273352
      dyz     :     0.184373
      dx2y2   :     0.140399
      dxy     :     0.185302
  3 N s       :     2.932632  s :     2.932632
      pz      :     1.080713  p :     3.492591
      px      :     1.078540
      py      :     1.333338
      dz2     :     0.088503  d :     0.299317
      dxz     :     0.085291
      dyz     :     0.059427
      dx2y2   :     0.041026
      dxy     :     0.025070
  4 N s       :     2.937791  s :     2.937791
      pz      :     1.085643  p :     3.483770
      px      :     1.068649
      py      :     1.329477
      dz2     :     0.087605  d :     0.285016
      dxz     :     0.076326
      dyz     :     0.051528
      dx2y2   :     0.042326
      dxy     :     0.027231
  5 H s       :     0.635751  s :     0.635751
      pz      :     0.122620  p :     0.342567
      px      :     0.108772
      py      :     0.111175
  6 H s       :     0.643782  s :     0.643782
      pz      :     0.071755  p :     0.320864
      px      :     0.145830
      py      :     0.103278
  7 H s       :     0.634057  s :     0.634057
      pz      :     0.129968  p :     0.314621
      px      :     0.086384
      py      :     0.098268
  8 H s       :     0.638821  s :     0.638821
      pz      :     0.113296  p :     0.324351
      px      :     0.101033
      py      :     0.110022
  9 H s       :     0.640876  s :     0.640876
      pz      :     0.069443  p :     0.317057
      px      :     0.146887
      py      :     0.100726
 10 H s       :     0.728688  s :     0.728688
      pz      :     0.061443  p :     0.256293
      px      :     0.121959
      py      :     0.072891
 11 H s       :     0.733000  s :     0.733000
      pz      :     0.064222  p :     0.256146
      px      :     0.073862
      py      :     0.118061
 12 H s       :     0.730491  s :     0.730491
      pz      :     0.080129  p :     0.271162
      px      :     0.081224
      py      :     0.109808


                      *****************************
                      * MAYER POPULATION ANALYSIS *
                      *****************************

  NA   - Mulliken gross atomic population
  ZA   - Total nuclear charge
  QA   - Mulliken gross atomic charge
  VA   - Mayer's total valence
  BVA  - Mayer's bonded valence
  FA   - Mayer's free valence

  ATOM       NA         ZA         QA         VA         BVA        FA
  0 C      4.8532     6.0000     1.1468     3.3493     3.3493     0.0000
  1 N      7.5236     7.0000    -0.5236     4.2409     4.2409     0.0000
  2 C      4.6368     6.0000     1.3632     1.9522     1.9522     0.0000
  3 N      7.0576     7.0000    -0.0576     3.7436     3.7436     0.0000
  4 N      6.9937     7.0000     0.0063     3.7377     3.7377     0.0000
  5 H      1.0693     1.0000    -0.0693     0.8843     0.8843     0.0000
  6 H      1.1259     1.0000    -0.1259     0.8751     0.8751    -0.0000
  7 H      1.1941     1.0000    -0.1941     0.9977     0.9977    -0.0000
  8 H      1.0125     1.0000    -0.0125     0.8481     0.8481     0.0000
  9 H      1.1030     1.0000    -0.1030     0.9152     0.9152     0.0000
 10 H      1.2882     1.0000    -0.2882     1.0117     1.0117     0.0000
 11 H      1.0499     1.0000    -0.0499     1.0112     1.0112    -0.0000
 12 H      1.0922     1.0000    -0.0922     1.0807     1.0807    -0.0000

  Mayer bond orders larger than 0.100000
B(  0-C ,  1-N ) :   0.9730 B(  0-C , 10-H ) :   0.7925 B(  0-C , 11-H ) :   0.8235 
B(  0-C , 12-H ) :   0.8193 B(  1-N ,  2-C ) :   1.0037 B(  1-N ,  3-N ) :   0.3057 
B(  1-N ,  4-N ) :   0.2555 B(  1-N ,  7-H ) :   1.2373 B(  1-N , 10-H ) :   0.1943 
B(  1-N , 11-H ) :   0.1234 B(  1-N , 12-H ) :   0.1634 B(  2-C ,  3-N ) :   0.7931 
B(  2-C ,  4-N ) :   0.9318 B(  2-C ,  5-H ) :  -0.1574 B(  2-C ,  6-H ) :  -0.1443 
B(  2-C ,  7-H ) :  -0.2010 B(  2-C ,  8-H ) :  -0.1354 B(  2-C ,  9-H ) :  -0.1697 
B(  3-N ,  4-N ) :   0.1958 B(  3-N ,  8-H ) :   1.1382 B(  3-N ,  9-H ) :   1.2745 
B(  4-N ,  5-H ) :   1.1209 B(  4-N ,  6-H ) :   1.2321 B(  5-H ,  6-H ) :  -0.1943 
B(  8-H ,  9-H ) :  -0.1794 

-------
TIMINGS
-------

Total SCF time: 0 days 0 hours 0 min 3 sec 

Total time                  ....       3.136 sec
Sum of individual times     ....       2.969 sec  ( 94.7%)

Fock matrix formation       ....       2.386 sec  ( 76.1%)
  Split-RI-J                ....       0.529 sec  ( 22.2% of F)
  XC integration            ....       1.815 sec  ( 76.1% of F)
    Basis function eval.    ....       0.579 sec  ( 31.9% of XC)
    Density eval.           ....       0.382 sec  ( 21.0% of XC)
    XC-Functional eval.     ....       0.105 sec  (  5.8% of XC)
    XC-Potential eval.      ....       0.512 sec  ( 28.2% of XC)
Diagonalization             ....       0.042 sec  (  1.3%)
Density matrix formation    ....       0.005 sec  (  0.2%)
Population analysis         ....       0.007 sec  (  0.2%)
Initial guess               ....       0.095 sec  (  3.0%)
Orbital Transformation      ....       0.000 sec  (  0.0%)
Orbital Orthonormalization  ....       0.000 sec  (  0.0%)
DIIS solution               ....       0.025 sec  (  0.8%)
SOSCF solution              ....       0.044 sec  (  1.4%)
Grid generation             ....       0.363 sec  ( 11.6%)

Maximum memory used throughout the entire SCF-calculation: 18.2 MB


-------------------------------------------------------------------------------
                          DFT DISPERSION CORRECTION                            
                                                                               
                              DFTD3 V3.1  Rev 1                                
                          USING Becke-Johnson damping                          
-------------------------------------------------------------------------------
The PBE functional is recognized
Active option DFTDOPT                   ...         4   

molecular C6(AA) [au] = 1234.392712 


            DFT-D V3
 parameters
 s6 scaling factor         :     1.0000 
 a1 scaling factor         :     0.4289 
 s8 scaling factor         :     0.7875 
 a2 scaling factor         :     4.4407 
 ad hoc parameters k1-k3   :    16.0000     1.3333    -4.0000 

 Edisp/kcal,au: -5.714120082150  -0.009106029006 
 E6   /kcal   :  -4.154598827 
 E8   /kcal   :  -1.559521255 
 % E8         :  27.292413045 

-------------------------   ----------------
Dispersion correction           -0.009106029
-------------------------   ----------------


-------------------------   --------------------
FINAL SINGLE POINT ENERGY      -244.626760788021
-------------------------   --------------------


                            ***************************************
                            *     ORCA property calculations      *
                            ***************************************

                                    ---------------------
                                    Active property flags
                                    ---------------------
   (+) Dipole Moment


------------------------------------------------------------------------------
                       ORCA ELECTRIC PROPERTIES CALCULATION
------------------------------------------------------------------------------

Dipole Moment Calculation                       ... on
Quadrupole Moment Calculation                   ... off
Polarizability Calculation                      ... off
GBWName                                         ... 18Feb_SVPD_PBE_A_wt_wb97_typm1_pos.gbw
Electron density file                           ... 18Feb_SVPD_PBE_A_wt_wb97_typm1_pos.scfp
The origin for moment calculation is the CENTER OF MASS  = ( 6.891167, -3.910935 -5.483271)

-------------
DIPOLE MOMENT
-------------
                                X             Y             Z
Electronic contribution:      2.04123      -0.55744      -1.79967
Nuclear contribution   :     -1.59972       0.59064       1.48941
                        -----------------------------------------
Total Dipole Moment    :      0.44150       0.03320      -0.31026
                        -----------------------------------------
Magnitude (a.u.)       :      0.54063
Magnitude (Debye)      :      1.37418



--------------------
Rotational spectrum 
--------------------
 
Rotational constants in cm-1:     0.309236     0.134358     0.096189 
Rotational constants in MHz :  9270.657746  4027.948155  2883.671905 

 Dipole components along the rotational axes: 
x,y,z [a.u.] :    -0.531457    -0.063530    -0.076181 
x,y,z [Debye]:    -1.350855    -0.161481    -0.193636 

 

Timings for individual modules:

Sum of individual times         ...        3.970 sec (=   0.066 min)
GTO integral calculation        ...        0.494 sec (=   0.008 min)  12.5 %
SCF iterations                  ...        3.475 sec (=   0.058 min)  87.5 %
                             ****ORCA TERMINATED NORMALLY****
TOTAL RUN TIME: 0 days 0 hours 0 minutes 4 seconds 510 msec
