
                                        *****************
                                        * O   R   C   A *
                                        *****************

                                            #,                                       
                                            ###                                      
                                            ####                                     
                                            #####                                    
                                            ######                                   
                                           ########,                                 
                                     ,,################,,,,,                         
                               ,,#################################,,                 
                          ,,##########################################,,             
                       ,#########################################, ''#####,          
                    ,#############################################,,   '####,        
                  ,##################################################,,,,####,       
                ,###########''''           ''''###############################       
              ,#####''   ,,,,##########,,,,          '''####'''          '####       
            ,##' ,,,,###########################,,,                        '##       
           ' ,,###''''                  '''############,,,                           
         ,,##''                                '''############,,,,        ,,,,,,###''
      ,#''                                            '''#######################'''  
     '                                                          ''''####''''         
             ,#######,   #######,   ,#######,      ##                                
            ,#'     '#,  ##    ##  ,#'     '#,    #''#        ######   ,####,        
            ##       ##  ##   ,#'  ##            #'  '#       #        #'  '#        
            ##       ##  #######   ##           ,######,      #####,   #    #        
            '#,     ,#'  ##    ##  '#,     ,#' ,#      #,         ##   #,  ,#        
             '#######'   ##     ##  '#######'  #'      '#     #####' # '####'        



                  #######################################################
                  #                        -***-                        #
                  #          Department of theory and spectroscopy      #
                  #    Directorship and core code : Frank Neese         #
                  #        Max Planck Institute fuer Kohlenforschung    #
                  #                Kaiser Wilhelm Platz 1               #
                  #                 D-45470 Muelheim/Ruhr               #
                  #                      Germany                        #
                  #                                                     #
                  #                  All rights reserved                #
                  #                        -***-                        #
                  #######################################################


                         Program Version 5.0.0 -  RELEASE  -
                                (SVN: $Rev: 19529$)
                ($Date: 2021-06-28 11:36:33 +0200 (Mo, 28 Jun 2021) $)


 With contributions from (in alphabetic order):
   Daniel Aravena         : Magnetic Suceptibility
   Michael Atanasov       : Ab Initio Ligand Field Theory (pilot matlab implementation)
   Alexander A. Auer      : GIAO ZORA, VPT2 properties, NMR spectrum
   Ute Becker             : Parallelization
   Giovanni Bistoni       : ED, misc. LED, open-shell LED, HFLD
   Martin Brehm           : Molecular dynamics
   Dmytro Bykov           : SCF Hessian
   Vijay G. Chilkuri      : MRCI spin determinant printing, contributions to CSF-ICE
   Dipayan Datta          : RHF DLPNO-CCSD density
   Achintya Kumar Dutta   : EOM-CC, STEOM-CC
   Dmitry Ganyushin       : Spin-Orbit,Spin-Spin,Magnetic field MRCI
   Miquel Garcia          : C-PCM Hessian, Gaussian charge scheme
   Yang Guo               : DLPNO-NEVPT2, F12-NEVPT2, CIM, IAO-localization
   Andreas Hansen         : Spin unrestricted coupled pair/coupled cluster methods
   Benjamin Helmich-Paris : MC-RPA, TRAH-SCF, COSX integrals
   Lee Huntington         : MR-EOM, pCC
   Robert Izsak           : Overlap fitted RIJCOSX, COSX-SCS-MP3, EOM
   Marcus Kettner         : VPT2
   Christian Kollmar      : KDIIS, OOCD, Brueckner-CCSD(T), CCSD density, CASPT2, CASPT2-K
   Simone Kossmann        : Meta GGA functionals, TD-DFT gradient, OOMP2, MP2 Hessian
   Martin Krupicka        : Initial AUTO-CI
   Lucas Lang             : DCDCAS
   Marvin Lechner         : AUTO-CI (C++ implementation), FIC-MRCC
   Dagmar Lenk            : GEPOL surface, SMD
   Dimitrios Liakos       : Extrapolation schemes; Compound Job, initial MDCI parallelization
   Dimitrios Manganas     : Further ROCIS development; embedding schemes
   Dimitrios Pantazis     : SARC Basis sets
   Anastasios Papadopoulos: AUTO-CI, single reference methods and gradients
   Taras Petrenko         : DFT Hessian,TD-DFT gradient, ASA, ECA, R-Raman, ABS, FL, XAS/XES, NRVS
   Peter Pinski           : DLPNO-MP2, DLPNO-MP2 Gradient
   Christoph Reimann      : Effective Core Potentials
   Marius Retegan         : Local ZFS, SOC
   Christoph Riplinger    : Optimizer, TS searches, QM/MM, DLPNO-CCSD(T), (RO)-DLPNO pert. Triples
   Tobias Risthaus        : Range-separated hybrids, TD-DFT gradient, RPA, STAB
   Michael Roemelt        : Original ROCIS implementation
   Masaaki Saitow         : Open-shell DLPNO-CCSD energy and density
   Barbara Sandhoefer     : DKH picture change effects
   Avijit Sen             : IP-ROCIS
   Kantharuban Sivalingam : CASSCF convergence, NEVPT2, FIC-MRCI
   Bernardo de Souza      : ESD, SOC TD-DFT
   Georgi Stoychev        : AutoAux, RI-MP2 NMR
   Willem Van den Heuvel  : Paramagnetic NMR
   Boris Wezisla          : Elementary symmetry handling
   Frank Wennmohs         : Technical directorship


 We gratefully acknowledge several colleagues who have allowed us to
 interface, adapt or use parts of their codes:
   Stefan Grimme, W. Hujo, H. Kruse, P. Pracht,  : VdW corrections, initial TS optimization,
                  C. Bannwarth, S. Ehlert          DFT functionals, gCP, sTDA/sTD-DF
   Ed Valeev, F. Pavosevic, A. Kumar             : LibInt (2-el integral package), F12 methods
   Garnet Chan, S. Sharma, J. Yang, R. Olivares  : DMRG
   Ulf Ekstrom                                   : XCFun DFT Library
   Mihaly Kallay                                 : mrcc  (arbitrary order and MRCC methods)
   Jiri Pittner, Ondrej Demel                    : Mk-CCSD
   Frank Weinhold                                : gennbo (NPA and NBO analysis)
   Christopher J. Cramer and Donald G. Truhlar   : smd solvation model
   Lars Goerigk                                  : TD-DFT with DH, B97 family of functionals
   V. Asgeirsson, H. Jonsson                     : NEB implementation
   FAccTs GmbH                                   : IRC, NEB, NEB-TS, DLPNO-Multilevel, CI-OPT
                                                   MM, QMMM, 2- and 3-layer-ONIOM, Crystal-QMMM,
                                                   LR-CPCM, SF, NACMEs, symmetry and pop. for TD-DFT,
                                                   nearIR, NL-DFT gradient (VV10), updates on ESD,
                                                   ML-optimized integration grids
   S Lehtola, MJT Oliveira, MAL Marques          : LibXC Library
   Liviu Ungur et al                             : ANISO software


 Your calculation uses the libint2 library for the computation of 2-el integrals
 For citations please refer to: http://libint.valeyev.net

 Your ORCA version has been built with support for libXC version: 5.1.0
 For citations please refer to: https://tddft.org/programs/libxc/

 This ORCA versions uses:
   CBLAS   interface :  Fast vector & matrix operations
   LAPACKE interface :  Fast linear algebra routines
   SCALAPACK package :  Parallel linear algebra routines
   Shared memory     :  Shared parallel matrices
   BLAS/LAPACK       :  OpenBLAS 0.3.15  USE64BITINT DYNAMIC_ARCH NO_AFFINITY Haswell SINGLE_THREADED
        Core in use  :  Haswell
   Copyright (c) 2011-2014, The OpenBLAS Project




***************************************
The coordinates will be read from file: D8.xyz
***************************************


Your calculation utilizes the atom-pairwise dispersion correction
with the Becke-Johnson damping scheme (D3BJ)
Cite in your paper:
S.Grimme, S.Ehrlich, L.Goerigk, J Comput Chem, (2011), 32, 1456–1465 
S.Grimme, J.Antony, S.Ehrlich and H.Krieg, J.Chem.Phys., 132, (2010), 154104 
   

================================================================================

----- Orbital basis set information -----
Your calculation utilizes the basis: def2-SVPD
   F. Weigend and R. Ahlrichs, Phys. Chem. Chem. Phys. 7, 3297 (2005).
   D. Rappoport and F. Furche, J. Chem. Phys. 133 134105 (2010).

----- AuxJ basis set information -----
Your calculation utilizes the auxiliary basis: def2/J
   F. Weigend, Phys. Chem. Chem. Phys. 8, 1057 (2006).

================================================================================
                                        WARNINGS
                       Please study these warnings very carefully!
================================================================================



WARNING: Found flag for RIJCOSX approximation but no HF exchange needed!
  ===> : RIJCOSX  will be disabled and Split-RI-J is turned on

INFO   : the flag for use of the SHARK integral package has been found!

================================================================================
                                       INPUT FILE
================================================================================
NAME = 28Oct_SVPD_PBE_D8_wb97.com
|  1> !PBE D3BJ RIJCOSX def2-SVPD def2/J TightSCF xyzfile                                                                                         
|  2> 
|  3> *xyzfile 0 1 D8.xyz
|  4> 
|  5> %MaxCore 64000
|  6> 
|  7> %pal nprocs 4                                                                                                                                                  
|  8> end  
|  9> 
| 10> %scf
| 11>   MaxIter 150
| 12> end
| 13> 
| 14> 
| 15>                          ****END OF INPUT****
================================================================================

                       ****************************
                       * Single Point Calculation *
                       ****************************

---------------------------------
CARTESIAN COORDINATES (ANGSTROEM)
---------------------------------
  C      1.963365   -1.749150   -1.896887
  N      2.738490   -2.015170   -3.097113
  C      0.611877    1.657634   -4.500288
  C      1.694991    1.541794   -5.570447
  H      2.697326    1.734659   -5.183996
  H      1.506656    2.272239   -6.358076
  S      1.780287   -0.033128   -6.428739
  C      4.049736   -2.154717   -3.152044
  C      4.658206   -1.986293   -4.318655
  N      4.764231   -2.454435   -2.050491
  H      4.287363   -2.776259   -1.217496
  H      5.750825   -2.658351   -2.125988
  H      2.345176   -1.690274   -3.971447
  H      4.109004   -1.592677   -5.071760
  H      5.649095   -2.156462   -4.427237
  O      2.569287    0.213657   -7.607360
  O      0.416880   -0.462969   -6.618595
  C      2.088520   -0.300912   -1.415204
  H      2.231272   -2.451616   -1.102643
  H      0.930249   -1.977801   -2.155438
  C      0.680356    0.655418   -3.348038
  H     -0.356865    1.549231   -4.991128
  H      0.650228    2.675438   -4.096000
  C      1.968993    0.733582   -2.535654
  H      3.051356   -0.168602   -0.911868
  H      1.316501   -0.136231   -0.657252
  F      2.505129   -0.933263   -5.482570
  H      2.824195    0.624726   -3.208464
  H      2.058919    1.730331   -2.093112
  H      0.542252   -0.344731   -3.766662
  H     -0.174219    0.829692   -2.685182

----------------------------
CARTESIAN COORDINATES (A.U.)
----------------------------
  NO LB      ZA    FRAG     MASS         X           Y           Z
   0 C     6.0000    0    12.011    3.710222   -3.305415   -3.584597
   1 N     7.0000    0    14.007    5.174997   -3.808120   -5.852696
   2 C     6.0000    0    12.011    1.156280    3.132474   -8.504312
   3 C     6.0000    0    12.011    3.203068    2.913568  -10.526619
   4 H     1.0000    0     1.008    5.097208    3.278030   -9.796333
   5 H     1.0000    0     1.008    2.847167    4.293910  -12.015023
   6 S    16.0000    0    32.060    3.364256   -0.062603  -12.148556
   7 C     6.0000    0    12.011    7.652892   -4.071825   -5.956500
   8 C     6.0000    0    12.011    8.802733   -3.753550   -8.161076
   9 N     7.0000    0    14.007    9.003091   -4.638210   -3.874866
  10 H     1.0000    0     1.008    8.101942   -5.246370   -2.300735
  11 H     1.0000    0     1.008   10.867484   -5.023556   -4.017536
  12 H     1.0000    0     1.008    4.431741   -3.194155   -7.504948
  13 H     1.0000    0     1.008    7.764891   -3.009723   -9.584237
  14 H     1.0000    0     1.008   10.675243   -4.075122   -8.366265
  15 O     8.0000    0    15.999    4.855249    0.403753  -14.375827
  16 O     8.0000    0    15.999    0.787789   -0.874885  -12.507332
  17 C     6.0000    0    12.011    3.946732   -0.568641   -2.674348
  18 H     1.0000    0     1.008    4.216494   -4.632882   -2.083694
  19 H     1.0000    0     1.008    1.757916   -3.737502   -4.073188
  20 C     6.0000    0    12.011    1.285686    1.238561   -6.326874
  21 H     1.0000    0     1.008   -0.674378    2.927622   -9.431864
  22 H     1.0000    0     1.008    1.228753    5.055845   -7.740318
  23 C     6.0000    0    12.011    3.720857    1.386269   -4.791692
  24 H     1.0000    0     1.008    5.766228   -0.318612   -1.723180
  25 H     1.0000    0     1.008    2.487826   -0.257439   -1.242026
  26 F     9.0000    0    18.998    4.734008   -1.763612  -10.360556
  27 H     1.0000    0     1.008    5.336955    1.180561   -6.063119
  28 H     1.0000    0     1.008    3.890793    3.269851   -3.955409
  29 H     1.0000    0     1.008    1.024707   -0.651447   -7.117959
  30 H     1.0000    0     1.008   -0.329227    1.567891   -5.074259

--------------------------------
INTERNAL COORDINATES (ANGSTROEM)
--------------------------------
 C      0   0   0     0.000000000000     0.00000000     0.00000000
 N      1   0   0     1.453316573840     0.00000000     0.00000000
 C      2   1   0     4.469997209231    81.66861305     0.00000000
 C      3   2   1     1.527021216669    79.64251634   166.12135406
 H      4   3   2     1.091429426821   112.94516578   291.55283625
 H      4   3   2     1.090587222827   109.44091494   172.19645502
 S      4   3   2     1.795638661190   115.79861088    54.44719017
 C      2   1   3     1.319793651653   125.70564975   125.09350255
 C      8   2   1     1.326492940223   118.61448699   200.38152835
 N      8   2   1     1.346756797244   121.10322660    20.01725842
 H     10   8   2     1.012350189617   119.59467170    13.56884806
 H     10   8   2     1.010272041928   120.12521212   173.22938336
 H      2   1   3     1.012281232535   116.57273408   332.44021856
 H      9   8   2     1.011792023943   117.06639684    10.99993176
 H      9   8   2     1.011241515739   121.50281050   185.08038097
 O      7   4   3     1.439642608659   105.48622831   163.81969223
 O      7   4   3     1.442112520958   106.22702210    38.41533571
 C      1   2   3     1.531364370737   112.91008412   309.77008032
 H      1   2   3     1.093643007341   110.58150833   184.66977938
 H      1   2   3     1.089246810669   105.74823995    70.75156459
 C      3   2   1     1.528661675104    37.19169818   353.30733645
 H      3   2   1     1.091392203112   118.80650564   270.92486636
 H      3   2   1     1.095830634114   129.10111041    61.64766166
 C     21   3   2     1.525339804606   113.93485678    68.35194369
 H     18   1   2     1.094489175769   109.32195284   283.03662940
 H     18   1   2     1.094360929868   107.60847921   167.76527056
 F      7   4   3     1.493611307442   104.40877094   280.72723475
 H     24  21   3     1.093569726740   109.14128749   305.09838428
 H     24  21   3     1.094275188126   109.35928518    60.61257975
 H     21   3   2     1.092985565182   107.79245554   304.75322685
 H     21   3   2     1.095466463975   108.47249356   190.17892582

---------------------------
INTERNAL COORDINATES (A.U.)
---------------------------
 C      0   0   0     0.000000000000     0.00000000     0.00000000
 N      1   0   0     2.746370310446     0.00000000     0.00000000
 C      2   1   0     8.447070544838    81.66861305     0.00000000
 C      3   2   1     2.885651900191    79.64251634   166.12135406
 H      4   3   2     2.062502711195   112.94516578   291.55283625
 H      4   3   2     2.060911176296   109.44091494   172.19645502
 S      4   3   2     3.393265305130   115.79861088    54.44719017
 C      2   1   3     2.494048554913   125.70564975   125.09350255
 C      8   2   1     2.506708375602   118.61448699   200.38152835
 N      8   2   1     2.545001515788   121.10322660    20.01725842
 H     10   8   2     1.913064609999   119.59467170    13.56884806
 H     10   8   2     1.909137480001   120.12521212   173.22938336
 H      2   1   3     1.912934300000   116.57273408   332.44021856
 H      9   8   2     1.912009829738   117.06639684    10.99993176
 H      9   8   2     1.910969519999   121.50281050   185.08038097
 O      7   4   3     2.720530261090   105.48622831   163.81969223
 O      7   4   3     2.725197718909   106.22702210    38.41533571
 C      1   2   3     2.893859271938   112.91008412   309.77008032
 H      1   2   3     2.066685772153   110.58150833   184.66977938
 H      1   2   3     2.058378164411   105.74823995    70.75156459
 C      3   2   1     2.888751917368    37.19169818   353.30733645
 H      3   2   1     2.062432368579   118.80650564   270.92486636
 H      3   2   1     2.070819787638   129.10111041    61.64766166
 C     21   3   2     2.882474491874   113.93485678    68.35194369
 H     18   1   2     2.068284798745   109.32195284   283.03662940
 H     18   1   2     2.068042449114   107.60847921   167.76527056
 F      7   4   3     2.822516321593   104.40877094   280.72723475
 H     24  21   3     2.066547291886   109.14128749   305.09838428
 H     24  21   3     2.067880420702   109.35928518    60.61257975
 H     21   3   2     2.065443386523   107.79245554   304.75322685
 H     21   3   2     2.070131605807   108.47249356   190.17892582

---------------------
BASIS SET INFORMATION
---------------------
There are 6 groups of distinct atoms

 Group   1 Type C   : 8s4p2d contracted to 4s2p2d pattern {5111/31/11}
 Group   2 Type N   : 8s4p2d contracted to 4s2p2d pattern {5111/31/11}
 Group   3 Type H   : 4s2p contracted to 2s2p pattern {31/11}
 Group   4 Type S   : 11s8p2d contracted to 5s4p2d pattern {53111/5111/11}
 Group   5 Type O   : 8s5p2d contracted to 4s3p2d pattern {5111/311/11}
 Group   6 Type F   : 8s5p2d contracted to 4s3p2d pattern {5111/311/11}

Atom   0C    basis set group =>   1
Atom   1N    basis set group =>   2
Atom   2C    basis set group =>   1
Atom   3C    basis set group =>   1
Atom   4H    basis set group =>   3
Atom   5H    basis set group =>   3
Atom   6S    basis set group =>   4
Atom   7C    basis set group =>   1
Atom   8C    basis set group =>   1
Atom   9N    basis set group =>   2
Atom  10H    basis set group =>   3
Atom  11H    basis set group =>   3
Atom  12H    basis set group =>   3
Atom  13H    basis set group =>   3
Atom  14H    basis set group =>   3
Atom  15O    basis set group =>   5
Atom  16O    basis set group =>   5
Atom  17C    basis set group =>   1
Atom  18H    basis set group =>   3
Atom  19H    basis set group =>   3
Atom  20C    basis set group =>   1
Atom  21H    basis set group =>   3
Atom  22H    basis set group =>   3
Atom  23C    basis set group =>   1
Atom  24H    basis set group =>   3
Atom  25H    basis set group =>   3
Atom  26F    basis set group =>   6
Atom  27H    basis set group =>   3
Atom  28H    basis set group =>   3
Atom  29H    basis set group =>   3
Atom  30H    basis set group =>   3
---------------------------------
AUXILIARY/J BASIS SET INFORMATION
---------------------------------
There are 6 groups of distinct atoms

 Group   1 Type C   : 12s5p4d2f1g contracted to 6s4p3d1f1g pattern {711111/2111/211/2/1}
 Group   2 Type N   : 12s5p4d2f1g contracted to 6s4p3d1f1g pattern {711111/2111/211/2/1}
 Group   3 Type H   : 5s2p1d contracted to 3s1p1d pattern {311/2/1}
 Group   4 Type S   : 14s5p5d2f1g contracted to 8s4p3d1f1g pattern {71111111/2111/311/2/1}
 Group   5 Type O   : 12s5p4d2f1g contracted to 6s4p3d1f1g pattern {711111/2111/211/2/1}
 Group   6 Type F   : 12s5p4d2f1g contracted to 6s4p3d1f1g pattern {711111/2111/211/2/1}

Atom   0C    basis set group =>   1
Atom   1N    basis set group =>   2
Atom   2C    basis set group =>   1
Atom   3C    basis set group =>   1
Atom   4H    basis set group =>   3
Atom   5H    basis set group =>   3
Atom   6S    basis set group =>   4
Atom   7C    basis set group =>   1
Atom   8C    basis set group =>   1
Atom   9N    basis set group =>   2
Atom  10H    basis set group =>   3
Atom  11H    basis set group =>   3
Atom  12H    basis set group =>   3
Atom  13H    basis set group =>   3
Atom  14H    basis set group =>   3
Atom  15O    basis set group =>   5
Atom  16O    basis set group =>   5
Atom  17C    basis set group =>   1
Atom  18H    basis set group =>   3
Atom  19H    basis set group =>   3
Atom  20C    basis set group =>   1
Atom  21H    basis set group =>   3
Atom  22H    basis set group =>   3
Atom  23C    basis set group =>   1
Atom  24H    basis set group =>   3
Atom  25H    basis set group =>   3
Atom  26F    basis set group =>   6
Atom  27H    basis set group =>   3
Atom  28H    basis set group =>   3
Atom  29H    basis set group =>   3
Atom  30H    basis set group =>   3


           ************************************************************
           *        Program running with 4 parallel MPI-processes     *
           *              working on a common directory               *
           ************************************************************
------------------------------------------------------------------------------
                           ORCA GTO INTEGRAL CALCULATION
                           -- RI-GTO INTEGRALS CHOSEN --
------------------------------------------------------------------------------
------------------------------------------------------------------------------
                   ___                                                        
                  /   \      - P O W E R E D   B Y -                         
                 /     \                                                     
                 |  |  |   _    _      __       _____    __    __             
                 |  |  |  | |  | |    /  \     |  _  \  |  |  /  |          
                  \  \/   | |  | |   /    \    | | | |  |  | /  /          
                 / \  \   | |__| |  /  /\  \   | |_| |  |  |/  /          
                |  |  |   |  __  | /  /__\  \  |    /   |      \           
                |  |  |   | |  | | |   __   |  |    \   |  |\   \          
                \     /   | |  | | |  |  |  |  | |\  \  |  | \   \       
                 \___/    |_|  |_| |__|  |__|  |_| \__\ |__|  \__/        
                                                                              
                      - O R C A' S   B I G   F R I E N D -                    
                                      &                                       
                       - I N T E G R A L  F E E D E R -                       
                                                                              
 v1 FN, 2020, v2 2021                                                         
------------------------------------------------------------------------------


Reading SHARK input file 28Oct_SVPD_PBE_D8_wb97.SHARKINP.tmp ... ok
----------------------
SHARK INTEGRAL PACKAGE
----------------------

Number of atoms                             ...     31
Number of basis functions                   ...    432
Number of shells                            ...    186
Maximum angular momentum                    ...      2
Integral batch strategy                     ... SHARK/LIBINT Hybrid
RI-J (if used) integral strategy            ... SPLIT-RIJ (Revised 2003 algorithm where possible)
Printlevel                                  ...      1
Contraction scheme used                     ... SEGMENTED contraction
Coulomb Range Separation                    ... NOT USED
Exchange Range Separation                   ... NOT USED
Finite Nucleus Model                        ... NOT USED
Auxiliary Coulomb fitting basis             ... AVAILABLE
   # of basis functions in Aux-J            ...    875
   # of shells in Aux-J                     ...    297
   Maximum angular momentum in Aux-J        ...      4
Auxiliary J/K fitting basis                 ... NOT available
Auxiliary Correlation fitting basis         ... NOT available
Auxiliary 'external' fitting basis          ... NOT available
Integral threshold                          ...     2.500000e-11
Primitive cut-off                           ...     2.500000e-12
Primitive pair pre-selection threshold      ...     2.500000e-12

Calculating pre-screening integrals         ... done (  0.1 sec) Dimension = 186
Organizing shell pair data                  ... done (  0.1 sec)
Shell pair information
Total number of shell pairs                 ...     17391
Shell pairs after pre-screening             ...     16030
Total number of primitive shell pairs       ...     47829
Primitive shell pairs kept                  ...     33507
          la=0 lb=0:   3818 shell pairs
          la=1 lb=0:   5607 shell pairs
          la=1 lb=1:   2114 shell pairs
          la=2 lb=0:   2361 shell pairs
          la=2 lb=1:   1749 shell pairs
          la=2 lb=2:    381 shell pairs

Calculating one electron integrals          ... done (  0.0 sec)
Calculating RI/J V-Matrix + Cholesky decomp.... done (  0.1 sec)
Calculating Nuclear repulsion               ... done (  0.0 sec) ENN=   1191.412586120029 Eh

SHARK setup successfully completed in   0.4 seconds

Maximum memory used throughout the entire GTOINT-calculation: 24.9 MB


           ************************************************************
           *        Program running with 4 parallel MPI-processes     *
           *              working on a common directory               *
           ************************************************************
-------------------------------------------------------------------------------
                                 ORCA SCF
-------------------------------------------------------------------------------

------------
SCF SETTINGS
------------
Hamiltonian:
 Density Functional     Method          .... DFT(GTOs)
 Exchange Functional    Exchange        .... PBE
   PBE kappa parameter   XKappa         ....  0.804000
   PBE mue parameter    XMuePBE         ....  0.219520
 Correlation Functional Correlation     .... PBE
   PBE beta parameter  CBetaPBE         ....  0.066725
 LDA part of GGA corr.  LDAOpt          .... PW91-LDA
 Gradients option       PostSCFGGA      .... off
   Density functional embedding theory  .... OFF
   NL short-range parameter             ....  6.400000
 RI-approximation to the Coulomb term is turned on
   Number of AuxJ basis functions       .... 875


General Settings:
 Integral files         IntName         .... 28Oct_SVPD_PBE_D8_wb97
 Hartree-Fock type      HFTyp           .... RHF
 Total Charge           Charge          ....    0
 Multiplicity           Mult            ....    1
 Number of Electrons    NEL             ....  120
 Basis Dimension        Dim             ....  432
 Nuclear Repulsion      ENuc            ....   1191.4125861200 Eh

Convergence Acceleration:
 DIIS                   CNVDIIS         .... on
   Start iteration      DIISMaxIt       ....    12
   Startup error        DIISStart       ....  0.200000
   # of expansion vecs  DIISMaxEq       ....     5
   Bias factor          DIISBfac        ....   1.050
   Max. coefficient     DIISMaxC        ....  10.000
 Trust-Rad. Augm. Hess. CNVTRAH         .... auto
   Auto Start mean grad. ratio tolernc. ....  1.125000
   Auto Start start iteration           ....    20
   Auto Start num. interpolation iter.  ....    10
   Max. Number of Micro iterations      ....    16
   Max. Number of Macro iterations      .... Maxiter - #DIIS iter
   Number of Davidson start vectors     ....     2
   Converg. threshold I  (grad. norm)   ....   1.000e-05
   Converg. threshold II (energy diff.) ....   1.000e-08
   Grad. Scal. Fac. for Micro threshold ....   0.100
   Minimum threshold for Micro iter.    ....   0.010
   NR start threshold (gradient norm)   ....   0.001
   Initial trust radius                 ....   0.400
   Minimum AH scaling param. (alpha)    ....   1.000
   Maximum AH scaling param. (alpha)    .... 1000.000
   Orbital update algorithm             .... Taylor
   White noise on init. David. guess    .... on
   Maximum white noise                  ....   0.010
   Quad. conv. algorithm                .... NR
 SOSCF                  CNVSOSCF        .... on
   Start iteration      SOSCFMaxIt      ....   150
   Startup grad/error   SOSCFStart      ....  0.003300
 Level Shifting         CNVShift        .... on
   Level shift para.    LevelShift      ....    0.2500
   Turn off err/grad.   ShiftErr        ....    0.0010
 Zerner damping         CNVZerner       .... off
 Static damping         CNVDamp         .... on
   Fraction old density DampFac         ....    0.7000
   Max. Damping (<1)    DampMax         ....    0.9800
   Min. Damping (>=0)   DampMin         ....    0.0000
   Turn off err/grad.   DampErr         ....    0.1000
 Fernandez-Rico         CNVRico         .... off

SCF Procedure:
 Maximum # iterations   MaxIter         ....   150
 SCF integral mode      SCFMode         .... Direct
   Integral package                     .... SHARK and LIBINT hybrid scheme
 Reset frequency        DirectResetFreq ....    20
 Integral Threshold     Thresh          ....  2.500e-11 Eh
 Primitive CutOff       TCut            ....  2.500e-12 Eh

Convergence Tolerance:
 Convergence Check Mode ConvCheckMode   .... Total+1el-Energy
 Convergence forced     ConvForced      .... 0
 Energy Change          TolE            ....  1.000e-08 Eh
 1-El. energy change                    ....  1.000e-05 Eh
 Orbital Gradient       TolG            ....  1.000e-05
 Orbital Rotation angle TolX            ....  1.000e-05
 DIIS Error             TolErr          ....  5.000e-07


Diagonalization of the overlap matrix:
Smallest eigenvalue                        ... 2.016e-05
Time for diagonalization                   ...    0.035 sec
Threshold for overlap eigenvalues          ... 1.000e-08
Number of eigenvalues below threshold      ... 0
Time for construction of square roots      ...    0.027 sec
Total time needed                          ...    0.064 sec

Time for model grid setup =    0.367 sec

------------------------------
INITIAL GUESS: MODEL POTENTIAL
------------------------------
Loading Hartree-Fock densities                     ... done
Calculating cut-offs                               ... done
Initializing the effective Hamiltonian             ... done
Setting up the integral package (SHARK)            ... done
Starting the Coulomb interaction                   ... done (   0.4 sec)
Reading the grid                                   ... done
Mapping shells                                     ... done
Starting the XC term evaluation                    ... done (   0.5 sec)
  promolecular density results
     # of electrons  =    119.988202297
     EX              =   -110.510007469
     EC              =     -4.155214378
     EX+EC           =   -114.665221847
Transforming the Hamiltonian                       ... done (   0.0 sec)
Diagonalizing the Hamiltonian                      ... done (   0.0 sec)
Back transforming the eigenvectors                 ... done (   0.0 sec)
Now organizing SCF variables                       ... done
                      ------------------
                      INITIAL GUESS DONE (   1.3 sec)
                      ------------------
-------------------
DFT GRID GENERATION
-------------------

General Integration Accuracy     IntAcc      ... 4.388
Radial Grid Type                 RadialGrid  ... OptM3 with GC (2021)
Angular Grid (max. ang.)         AngularGrid ... 4 (Lebedev-302)
Angular grid pruning method      GridPruning ... 4 (adaptive)
Weight generation scheme         WeightScheme... Becke
Basis function cutoff            BFCut       ... 1.0000e-11
Integration weight cutoff        WCut        ... 1.0000e-14
Angular grids for H and He will be reduced by one unit
Partially contracted basis set               ... off
Rotationally invariant grid construction     ... off

Total number of grid points                  ...   142710
Total number of batches                      ...     2244
Average number of points per batch           ...       63
Average number of grid points per atom       ...     4604
Time for grid setup =    1.293 sec

--------------
SCF ITERATIONS
--------------
ITER       Energy         Delta-E        Max-DP      RMS-DP      [F,P]     Damp
               ***  Starting incremental Fock matrix formation  ***
  0  -1070.8030926321   0.000000000000 0.27344455  0.00318048  0.2646394 0.7000
  1  -1071.1138333569  -0.310740724812 0.22398148  0.00232460  0.1108825 0.7000
                               ***Turning on DIIS***
  2  -1071.2010971263  -0.087263769351 0.42330276  0.00436319  0.0313048 0.0000
  3  -1071.3703570259  -0.169259899615 0.17591135  0.00163993  0.0730592 0.0000
  4  -1071.4026274201  -0.032270394202 0.09753371  0.00085864  0.0319612 0.0000
                      *** Initiating the SOSCF procedure ***
                           *** Shutting down DIIS ***
                      *** Re-Reading the Fockian *** 
                      *** Removing any level shift *** 
ITER      Energy       Delta-E        Grad      Rot      Max-DP    RMS-DP
  5  -1071.40846294  -0.0058355164  0.000944  0.000944  0.057875  0.000427
               *** Restarting incremental Fock matrix formation ***
  6  -1071.40866508  -0.0002021457  0.000545  0.003545  0.042183  0.000420
  7  -1071.40854713   0.0001179505  0.001638  0.001396  0.003448  0.000066
  8  -1071.40870871  -0.0001615784  0.000102  0.000635  0.007787  0.000077
  9  -1071.40870755   0.0000011597  0.000101  0.000176  0.002251  0.000023
 10  -1071.40871061  -0.0000030592  0.000012  0.000082  0.001186  0.000011
 11  -1071.40871061   0.0000000028  0.000018  0.000030  0.000294  0.000003
 12  -1071.40871065  -0.0000000406  0.000016  0.000040  0.000605  0.000005
 13  -1071.40871064   0.0000000056  0.000014  0.000019  0.000270  0.000003
 14  -1071.40871068  -0.0000000347  0.000004  0.000022  0.000265  0.000003
 15  -1071.40871067   0.0000000040  0.000008  0.000017  0.000282  0.000002
                  ***Gradient check signals convergence***
              ***Rediagonalizing the Fockian in SOSCF/NRSCF***

               *****************************************************
               *                     SUCCESS                       *
               *           SCF CONVERGED AFTER  16 CYCLES          *
               *****************************************************


----------------
TOTAL SCF ENERGY
----------------

Total Energy       :        -1071.40871067 Eh          -29154.51320 eV

Components:
Nuclear Repulsion  :         1191.41258612 Eh           32419.98467 eV
Electronic Energy  :        -2262.82129679 Eh          -61574.49787 eV
One Electron Energy:        -3834.38691147 Eh         -104338.97235 eV
Two Electron Energy:         1571.56561468 Eh           42764.47448 eV

Virial components:
Potential Energy   :        -2136.14623898 Eh          -58127.49431 eV
Kinetic Energy     :         1064.73752831 Eh           28972.98110 eV
Virial Ratio       :            2.00626557


DFT components:
N(Alpha)           :       60.000008227873 electrons
N(Beta)            :       60.000008227873 electrons
N(Total)           :      120.000016455746 electrons
E(X)               :     -112.012498911540 Eh       
E(C)               :       -4.150417582065 Eh       
E(XC)              :     -116.162916493605 Eh       
DFET-embed. en.    :        0.000000000000 Eh       

---------------
SCF CONVERGENCE
---------------

  Last Energy change         ...    1.8258e-09  Tolerance :   1.0000e-08
  Last MAX-Density change    ...    6.1814e-04  Tolerance :   1.0000e-07
  Last RMS-Density change    ...    2.9707e-06  Tolerance :   5.0000e-09
  Last Orbital Gradient      ...    1.9352e-06  Tolerance :   1.0000e-05
  Last Orbital Rotation      ...    4.5336e-06  Tolerance :   1.0000e-05

             **** THE GBW FILE WAS UPDATED (28Oct_SVPD_PBE_D8_wb97.gbw) ****
             **** DENSITY 28Oct_SVPD_PBE_D8_wb97.scfp WAS UPDATED ****
             **** ENERGY FILE WAS UPDATED (28Oct_SVPD_PBE_D8_wb97.en.tmp) ****
             **** THE GBW FILE WAS UPDATED (28Oct_SVPD_PBE_D8_wb97.gbw) ****
             **** DENSITY 28Oct_SVPD_PBE_D8_wb97.scfp WAS UPDATED ****
----------------
ORBITAL ENERGIES
----------------

  NO   OCC          E(Eh)            E(eV) 
   0   2.0000     -88.311949     -2403.0903 
   1   2.0000     -24.375222      -663.2835 
   2   2.0000     -18.783930      -511.1367 
   3   2.0000     -18.782202      -511.0897 
   4   2.0000     -14.002183      -381.0188 
   5   2.0000     -13.998271      -380.9123 
   6   2.0000      -9.956237      -270.9230 
   7   2.0000      -9.935909      -270.3698 
   8   2.0000      -9.934452      -270.3302 
   9   2.0000      -9.927004      -270.1275 
  10   2.0000      -9.914398      -269.7845 
  11   2.0000      -9.907543      -269.5980 
  12   2.0000      -9.902991      -269.4741 
  13   2.0000      -9.807684      -266.8807 
  14   2.0000      -7.916118      -215.4085 
  15   2.0000      -5.947362      -161.8359 
  16   2.0000      -5.941062      -161.6645 
  17   2.0000      -5.939438      -161.6203 
  18   2.0000      -1.244291       -33.8589 
  19   2.0000      -1.034119       -28.1398 
  20   2.0000      -0.943387       -25.6709 
  21   2.0000      -0.881286       -23.9810 
  22   2.0000      -0.802363       -21.8334 
  23   2.0000      -0.766569       -20.8594 
  24   2.0000      -0.725161       -19.7326 
  25   2.0000      -0.694347       -18.8941 
  26   2.0000      -0.652876       -17.7657 
  27   2.0000      -0.643132       -17.5005 
  28   2.0000      -0.605201       -16.4684 
  29   2.0000      -0.573489       -15.6054 
  30   2.0000      -0.539678       -14.6854 
  31   2.0000      -0.536048       -14.5866 
  32   2.0000      -0.513595       -13.9756 
  33   2.0000      -0.508630       -13.8405 
  34   2.0000      -0.495671       -13.4879 
  35   2.0000      -0.481258       -13.0957 
  36   2.0000      -0.453785       -12.3481 
  37   2.0000      -0.449751       -12.2383 
  38   2.0000      -0.439533       -11.9603 
  39   2.0000      -0.436167       -11.8687 
  40   2.0000      -0.424072       -11.5396 
  41   2.0000      -0.414353       -11.2751 
  42   2.0000      -0.400786       -10.9059 
  43   2.0000      -0.392991       -10.6938 
  44   2.0000      -0.381633       -10.3848 
  45   2.0000      -0.361520        -9.8375 
  46   2.0000      -0.356441        -9.6992 
  47   2.0000      -0.351922        -9.5763 
  48   2.0000      -0.341573        -9.2947 
  49   2.0000      -0.333886        -9.0855 
  50   2.0000      -0.328188        -8.9304 
  51   2.0000      -0.320249        -8.7144 
  52   2.0000      -0.307133        -8.3575 
  53   2.0000      -0.304808        -8.2942 
  54   2.0000      -0.298160        -8.1133 
  55   2.0000      -0.293699        -7.9919 
  56   2.0000      -0.290714        -7.9107 
  57   2.0000      -0.281009        -7.6466 
  58   2.0000      -0.214792        -5.8448 
  59   2.0000      -0.134851        -3.6695 
  60   0.0000      -0.025498        -0.6938 
  61   0.0000      -0.011099        -0.3020 
  62   0.0000      -0.003687        -0.1003 
  63   0.0000       0.004096         0.1115 
  64   0.0000       0.007980         0.2171 
  65   0.0000       0.018222         0.4959 
  66   0.0000       0.028279         0.7695 
  67   0.0000       0.028497         0.7754 
  68   0.0000       0.037074         1.0088 
  69   0.0000       0.039587         1.0772 
  70   0.0000       0.041303         1.1239 
  71   0.0000       0.050151         1.3647 
  72   0.0000       0.055213         1.5024 
  73   0.0000       0.059856         1.6288 
  74   0.0000       0.066394         1.8067 
  75   0.0000       0.067849         1.8463 
  76   0.0000       0.074585         2.0296 
  77   0.0000       0.082255         2.2383 
  78   0.0000       0.086080         2.3423 
  79   0.0000       0.094059         2.5595 
  80   0.0000       0.096549         2.6272 
  81   0.0000       0.100273         2.7286 
  82   0.0000       0.103450         2.8150 
  83   0.0000       0.109745         2.9863 
  84   0.0000       0.118346         3.2204 
  85   0.0000       0.119979         3.2648 
  86   0.0000       0.126224         3.4347 
  87   0.0000       0.134140         3.6501 
  88   0.0000       0.136566         3.7162 
  89   0.0000       0.139251         3.7892 
  90   0.0000       0.145049         3.9470 
  91   0.0000       0.152568         4.1516 
  92   0.0000       0.155898         4.2422 
  93   0.0000       0.161536         4.3956 
  94   0.0000       0.165214         4.4957 
  95   0.0000       0.166574         4.5327 
  96   0.0000       0.172741         4.7005 
  97   0.0000       0.177968         4.8427 
  98   0.0000       0.182987         4.9793 
  99   0.0000       0.186489         5.0746 
 100   0.0000       0.191492         5.2108 
 101   0.0000       0.199139         5.4188 
 102   0.0000       0.204719         5.5707 
 103   0.0000       0.211134         5.7452 
 104   0.0000       0.216823         5.9000 
 105   0.0000       0.220337         5.9957 
 106   0.0000       0.222744         6.0612 
 107   0.0000       0.228013         6.2046 
 108   0.0000       0.234140         6.3713 
 109   0.0000       0.234602         6.3839 
 110   0.0000       0.241686         6.5766 
 111   0.0000       0.247520         6.7354 
 112   0.0000       0.249817         6.7979 
 113   0.0000       0.251666         6.8482 
 114   0.0000       0.260540         7.0897 
 115   0.0000       0.265282         7.2187 
 116   0.0000       0.271486         7.3875 
 117   0.0000       0.272691         7.4203 
 118   0.0000       0.279027         7.5927 
 119   0.0000       0.281210         7.6521 
 120   0.0000       0.288889         7.8611 
 121   0.0000       0.290731         7.9112 
 122   0.0000       0.292681         7.9643 
 123   0.0000       0.296428         8.0662 
 124   0.0000       0.297753         8.1023 
 125   0.0000       0.304765         8.2931 
 126   0.0000       0.309051         8.4097 
 127   0.0000       0.312521         8.5041 
 128   0.0000       0.317641         8.6435 
 129   0.0000       0.319598         8.6967 
 130   0.0000       0.326139         8.8747 
 131   0.0000       0.327839         8.9210 
 132   0.0000       0.330676         8.9982 
 133   0.0000       0.335980         9.1425 
 134   0.0000       0.341635         9.2964 
 135   0.0000       0.346950         9.4410 
 136   0.0000       0.348770         9.4905 
 137   0.0000       0.350585         9.5399 
 138   0.0000       0.353694         9.6245 
 139   0.0000       0.359377         9.7791 
 140   0.0000       0.367241         9.9931 
 141   0.0000       0.368527        10.0281 
 142   0.0000       0.375281        10.2119 
 143   0.0000       0.376840        10.2543 
 144   0.0000       0.378416        10.2972 
 145   0.0000       0.383269        10.4293 
 146   0.0000       0.391214        10.6455 
 147   0.0000       0.395546        10.7634 
 148   0.0000       0.398032        10.8310 
 149   0.0000       0.401682        10.9303 
 150   0.0000       0.409722        11.1491 
 151   0.0000       0.411577        11.1996 
 152   0.0000       0.417039        11.3482 
 153   0.0000       0.420434        11.4406 
 154   0.0000       0.425675        11.5832 
 155   0.0000       0.435165        11.8414 
 156   0.0000       0.438048        11.9199 
 157   0.0000       0.439169        11.9504 
 158   0.0000       0.442867        12.0510 
 159   0.0000       0.452040        12.3006 
 160   0.0000       0.454456        12.3664 
 161   0.0000       0.456443        12.4204 
 162   0.0000       0.459119        12.4933 
 163   0.0000       0.464981        12.6528 
 164   0.0000       0.468962        12.7611 
 165   0.0000       0.469864        12.7856 
 166   0.0000       0.478213        13.0129 
 167   0.0000       0.482117        13.1191 
 168   0.0000       0.486246        13.2314 
 169   0.0000       0.489645        13.3239 
 170   0.0000       0.491708        13.3801 
 171   0.0000       0.504852        13.7377 
 172   0.0000       0.507727        13.8160 
 173   0.0000       0.509296        13.8586 
 174   0.0000       0.512260        13.9393 
 175   0.0000       0.514749        14.0070 
 176   0.0000       0.522471        14.2172 
 177   0.0000       0.524437        14.2707 
 178   0.0000       0.526433        14.3250 
 179   0.0000       0.534565        14.5463 
 180   0.0000       0.538281        14.6474 
 181   0.0000       0.545944        14.8559 
 182   0.0000       0.551380        15.0038 
 183   0.0000       0.554061        15.0768 
 184   0.0000       0.560114        15.2415 
 185   0.0000       0.562641        15.3102 
 186   0.0000       0.570975        15.5370 
 187   0.0000       0.575891        15.6708 
 188   0.0000       0.579070        15.7573 
 189   0.0000       0.582336        15.8462 
 190   0.0000       0.589193        16.0327 
 191   0.0000       0.600396        16.3376 
 192   0.0000       0.603430        16.4202 
 193   0.0000       0.605788        16.4843 
 194   0.0000       0.612741        16.6735 
 195   0.0000       0.616866        16.7858 
 196   0.0000       0.622988        16.9524 
 197   0.0000       0.627570        17.0771 
 198   0.0000       0.635174        17.2840 
 199   0.0000       0.638224        17.3669 
 200   0.0000       0.640558        17.4305 
 201   0.0000       0.646387        17.5891 
 202   0.0000       0.651935        17.7401 
 203   0.0000       0.656857        17.8740 
 204   0.0000       0.658655        17.9229 
 205   0.0000       0.668452        18.1895 
 206   0.0000       0.671621        18.2757 
 207   0.0000       0.677456        18.4345 
 208   0.0000       0.688584        18.7373 
 209   0.0000       0.694689        18.9034 
 210   0.0000       0.700625        19.0650 
 211   0.0000       0.702772        19.1234 
 212   0.0000       0.707104        19.2413 
 213   0.0000       0.715109        19.4591 
 214   0.0000       0.721723        19.6391 
 215   0.0000       0.728220        19.8159 
 216   0.0000       0.736839        20.0504 
 217   0.0000       0.739945        20.1349 
 218   0.0000       0.753591        20.5062 
 219   0.0000       0.754993        20.5444 
 220   0.0000       0.763757        20.7829 
 221   0.0000       0.772446        21.0193 
 222   0.0000       0.779805        21.2196 
 223   0.0000       0.781175        21.2569 
 224   0.0000       0.794726        21.6256 
 225   0.0000       0.801196        21.8017 
 226   0.0000       0.816575        22.2201 
 227   0.0000       0.817369        22.2417 
 228   0.0000       0.826023        22.4772 
 229   0.0000       0.837105        22.7788 
 230   0.0000       0.842873        22.9357 
 231   0.0000       0.847290        23.0559 
 232   0.0000       0.853547        23.2262 
 233   0.0000       0.868366        23.6294 
 234   0.0000       0.870724        23.6936 
 235   0.0000       0.876209        23.8429 
 236   0.0000       0.886775        24.1304 
 237   0.0000       0.895333        24.3632 
 238   0.0000       0.913329        24.8529 
 239   0.0000       0.921342        25.0710 
 240   0.0000       0.934437        25.4273 
 241   0.0000       0.941022        25.6065 
 242   0.0000       0.942239        25.6396 
 243   0.0000       0.954807        25.9816 
 244   0.0000       0.960588        26.1389 
 245   0.0000       0.968551        26.3556 
 246   0.0000       0.969716        26.3873 
 247   0.0000       0.980084        26.6694 
 248   0.0000       0.994356        27.0578 
 249   0.0000       0.995532        27.0898 
 250   0.0000       1.007794        27.4235 
 251   0.0000       1.017025        27.6746 
 252   0.0000       1.021179        27.7877 
 253   0.0000       1.025588        27.9077 
 254   0.0000       1.033980        28.1360 
 255   0.0000       1.039934        28.2980 
 256   0.0000       1.048449        28.5297 
 257   0.0000       1.050693        28.5908 
 258   0.0000       1.059664        28.8349 
 259   0.0000       1.069944        29.1147 
 260   0.0000       1.075796        29.2739 
 261   0.0000       1.091483        29.7008 
 262   0.0000       1.106140        30.0996 
 263   0.0000       1.109323        30.1862 
 264   0.0000       1.115514        30.3547 
 265   0.0000       1.117413        30.4064 
 266   0.0000       1.136745        30.9324 
 267   0.0000       1.144090        31.1323 
 268   0.0000       1.156118        31.4596 
 269   0.0000       1.157413        31.4948 
 270   0.0000       1.175162        31.9778 
 271   0.0000       1.185109        32.2485 
 272   0.0000       1.196372        32.5549 
 273   0.0000       1.199138        32.6302 
 274   0.0000       1.206201        32.8224 
 275   0.0000       1.230721        33.4896 
 276   0.0000       1.234391        33.5895 
 277   0.0000       1.250364        34.0241 
 278   0.0000       1.254246        34.1298 
 279   0.0000       1.263182        34.3729 
 280   0.0000       1.275718        34.7140 
 281   0.0000       1.282282        34.8927 
 282   0.0000       1.298994        35.3474 
 283   0.0000       1.311455        35.6865 
 284   0.0000       1.329070        36.1658 
 285   0.0000       1.342441        36.5297 
 286   0.0000       1.356525        36.9129 
 287   0.0000       1.371417        37.3182 
 288   0.0000       1.378375        37.5075 
 289   0.0000       1.394278        37.9402 
 290   0.0000       1.405409        38.2431 
 291   0.0000       1.435366        39.0583 
 292   0.0000       1.456710        39.6391 
 293   0.0000       1.469310        39.9820 
 294   0.0000       1.477126        40.1947 
 295   0.0000       1.484107        40.3846 
 296   0.0000       1.509337        41.0712 
 297   0.0000       1.528242        41.5856 
 298   0.0000       1.534983        41.7690 
 299   0.0000       1.539560        41.8936 
 300   0.0000       1.545150        42.0457 
 301   0.0000       1.572127        42.7797 
 302   0.0000       1.576930        42.9104 
 303   0.0000       1.592847        43.3436 
 304   0.0000       1.605501        43.6879 
 305   0.0000       1.616790        43.9951 
 306   0.0000       1.624712        44.2107 
 307   0.0000       1.639199        44.6049 
 308   0.0000       1.654735        45.0276 
 309   0.0000       1.663190        45.2577 
 310   0.0000       1.674933        45.5772 
 311   0.0000       1.685496        45.8647 
 312   0.0000       1.698095        46.2075 
 313   0.0000       1.710701        46.5505 
 314   0.0000       1.723533        46.8997 
 315   0.0000       1.734927        47.2098 
 316   0.0000       1.748542        47.5802 
 317   0.0000       1.763315        47.9822 
 318   0.0000       1.778385        48.3923 
 319   0.0000       1.791156        48.7398 
 320   0.0000       1.798438        48.9380 
 321   0.0000       1.807558        49.1861 
 322   0.0000       1.823868        49.6300 
 323   0.0000       1.825714        49.6802 
 324   0.0000       1.842176        50.1282 
 325   0.0000       1.848939        50.3122 
 326   0.0000       1.857137        50.5353 
 327   0.0000       1.864322        50.7308 
 328   0.0000       1.871719        50.9321 
 329   0.0000       1.878445        51.1151 
 330   0.0000       1.890106        51.4324 
 331   0.0000       1.901014        51.7292 
 332   0.0000       1.905963        51.8639 
 333   0.0000       1.927628        52.4534 
 334   0.0000       1.934878        52.6507 
 335   0.0000       1.947566        52.9960 
 336   0.0000       1.956669        53.2437 
 337   0.0000       1.958884        53.3039 
 338   0.0000       1.966452        53.5099 
 339   0.0000       1.977314        53.8055 
 340   0.0000       1.985546        54.0294 
 341   0.0000       1.994907        54.2842 
 342   0.0000       1.998517        54.3824 
 343   0.0000       2.011331        54.7311 
 344   0.0000       2.018396        54.9234 
 345   0.0000       2.028985        55.2115 
 346   0.0000       2.034886        55.3721 
 347   0.0000       2.046840        55.6974 
 348   0.0000       2.053144        55.8689 
 349   0.0000       2.068180        56.2780 
 350   0.0000       2.071238        56.3613 
 351   0.0000       2.081584        56.6428 
 352   0.0000       2.095991        57.0348 
 353   0.0000       2.103696        57.2445 
 354   0.0000       2.144349        58.3507 
 355   0.0000       2.153953        58.6120 
 356   0.0000       2.169646        59.0391 
 357   0.0000       2.186954        59.5100 
 358   0.0000       2.194663        59.7198 
 359   0.0000       2.207472        60.0684 
 360   0.0000       2.229156        60.6584 
 361   0.0000       2.240339        60.9627 
 362   0.0000       2.253183        61.3122 
 363   0.0000       2.270890        61.7941 
 364   0.0000       2.284058        62.1524 
 365   0.0000       2.300220        62.5922 
 366   0.0000       2.341217        63.7077 
 367   0.0000       2.349321        63.9283 
 368   0.0000       2.376790        64.6757 
 369   0.0000       2.387229        64.9598 
 370   0.0000       2.395554        65.1863 
 371   0.0000       2.415270        65.7228 
 372   0.0000       2.421897        65.9032 
 373   0.0000       2.423328        65.9421 
 374   0.0000       2.446069        66.5609 
 375   0.0000       2.461790        66.9887 
 376   0.0000       2.462740        67.0146 
 377   0.0000       2.488370        67.7120 
 378   0.0000       2.505226        68.1707 
 379   0.0000       2.511983        68.3545 
 380   0.0000       2.524045        68.6827 
 381   0.0000       2.535838        69.0037 
 382   0.0000       2.561695        69.7073 
 383   0.0000       2.571923        69.9856 
 384   0.0000       2.585957        70.3675 
 385   0.0000       2.605360        70.8954 
 386   0.0000       2.612730        71.0960 
 387   0.0000       2.627213        71.4901 
 388   0.0000       2.666570        72.5611 
 389   0.0000       2.677176        72.8497 
 390   0.0000       2.699113        73.4466 
 391   0.0000       2.707996        73.6883 
 392   0.0000       2.737901        74.5021 
 393   0.0000       2.768085        75.3234 
 394   0.0000       2.772937        75.4554 
 395   0.0000       2.782930        75.7274 
 396   0.0000       2.790018        75.9203 
 397   0.0000       2.802961        76.2725 
 398   0.0000       2.814956        76.5989 
 399   0.0000       2.830081        77.0104 
 400   0.0000       2.846626        77.4606 
 401   0.0000       2.851346        77.5891 
 402   0.0000       2.875356        78.2424 
 403   0.0000       2.905821        79.0714 
 404   0.0000       2.941857        80.0520 
 405   0.0000       2.950587        80.2895 
 406   0.0000       2.957067        80.4659 
 407   0.0000       2.982703        81.1635 
 408   0.0000       3.022793        82.2544 
 409   0.0000       3.037322        82.6497 
 410   0.0000       3.052674        83.0675 
 411   0.0000       3.061633        83.3113 
 412   0.0000       3.100373        84.3654 
 413   0.0000       3.106852        84.5417 
 414   0.0000       3.128023        85.1178 
 415   0.0000       3.145225        85.5859 
 416   0.0000       3.168784        86.2270 
 417   0.0000       3.176666        86.4415 
 418   0.0000       3.206902        87.2642 
 419   0.0000       3.230698        87.9118 
 420   0.0000       3.254653        88.5636 
 421   0.0000       3.266173        88.8771 
 422   0.0000       3.296120        89.6920 
 423   0.0000       3.345099        91.0248 
 424   0.0000       3.350056        91.1597 
 425   0.0000       3.390514        92.2606 
 426   0.0000       3.471628        94.4678 
 427   0.0000       3.492827        95.0447 
 428   0.0000       3.548080        96.5482 
 429   0.0000       3.618787        98.4722 
 430   0.0000       3.695917       100.5710 
 431   0.0000       3.707550       100.8876 

                    ********************************
                    * MULLIKEN POPULATION ANALYSIS *
                    ********************************

-----------------------
MULLIKEN ATOMIC CHARGES
-----------------------
   0 C :    1.005880
   1 N :   -0.028569
   2 C :    0.491434
   3 C :    0.087629
   4 H :    0.152060
   5 H :   -0.161005
   6 S :    1.404806
   7 C :    0.796616
   8 C :    0.636612
   9 N :    0.180667
  10 H :   -0.071305
  11 H :   -0.228126
  12 H :   -0.592876
  13 H :   -0.309168
  14 H :   -0.629784
  15 O :   -0.631944
  16 O :   -0.671942
  17 C :    0.399821
  18 H :   -0.440822
  19 H :   -0.160778
  20 C :   -0.019682
  21 H :    0.004373
  22 H :   -0.039280
  23 C :   -0.026699
  24 H :   -0.025609
  25 H :   -0.108737
  26 F :   -0.551032
  27 H :    0.127558
  28 H :   -0.336963
  29 H :   -0.092470
  30 H :   -0.160665
Sum of atomic charges:    0.0000000

--------------------------------
MULLIKEN REDUCED ORBITAL CHARGES
--------------------------------
  0 C s       :     2.531278  s :     2.531278
      pz      :     0.721499  p :     2.413555
      px      :     0.794315
      py      :     0.897740
      dz2     :    -0.093924  d :     0.049287
      dxz     :    -0.015846
      dyz     :     0.133910
      dx2y2   :    -0.005583
      dxy     :     0.030729
  1 N s       :     3.030594  s :     3.030594
      pz      :     1.028062  p :     3.649525
      px      :     1.024924
      py      :     1.596540
      dz2     :     0.061836  d :     0.348450
      dxz     :     0.127461
      dyz     :     0.048566
      dx2y2   :     0.087716
      dxy     :     0.022870
  2 C s       :     2.507477  s :     2.507477
      pz      :     0.849920  p :     2.602684
      px      :     0.872648
      py      :     0.880116
      dz2     :     0.163166  d :     0.398405
      dxz     :     0.062923
      dyz     :     0.018454
      dx2y2   :     0.127869
      dxy     :     0.025994
  3 C s       :     2.805711  s :     2.805711
      pz      :     0.928629  p :     2.810595
      px      :     1.038556
      py      :     0.843410
      dz2     :     0.086702  d :     0.296066
      dxz     :     0.024252
      dyz     :     0.070258
      dx2y2   :     0.072098
      dxy     :     0.042757
  4 H s       :     0.816733  s :     0.816733
      pz      :    -0.016852  p :     0.031208
      px      :     0.019971
      py      :     0.028088
  5 H s       :     1.130146  s :     1.130146
      pz      :     0.013965  p :     0.030860
      px      :    -0.015118
      py      :     0.032012
  6 S s       :     4.904255  s :     4.904255
      pz      :     2.926958  p :     8.834251
      px      :     2.868648
      py      :     3.038644
      dz2     :     0.109267  d :     0.856689
      dxz     :     0.196571
      dyz     :     0.175482
      dx2y2   :     0.212345
      dxy     :     0.163024
  7 C s       :     2.729525  s :     2.729525
      pz      :     0.440501  p :     2.167488
      px      :     0.837110
      py      :     0.889877
      dz2     :     0.073809  d :     0.306371
      dxz     :     0.004516
      dyz     :     0.156096
      dx2y2   :     0.060898
      dxy     :     0.011052
  8 C s       :     2.791517  s :     2.791517
      pz      :     0.937837  p :     2.503064
      px      :     0.526129
      py      :     1.039099
      dz2     :     0.041900  d :     0.068806
      dxz     :    -0.015644
      dyz     :     0.019792
      dx2y2   :     0.001907
      dxy     :     0.020852
  9 N s       :     3.234537  s :     3.234537
      pz      :     1.043886  p :     3.582973
      px      :     0.962831
      py      :     1.576256
      dz2     :     0.007477  d :     0.001822
      dxz     :    -0.011663
      dyz     :     0.016542
      dx2y2   :    -0.011311
      dxy     :     0.000777
 10 H s       :     1.048380  s :     1.048380
      pz      :     0.017726  p :     0.022924
      px      :    -0.066245
      py      :     0.071444
 11 H s       :     1.195931  s :     1.195931
      pz      :    -0.020464  p :     0.032196
      px      :    -0.015194
      py      :     0.067854
 12 H s       :     1.547077  s :     1.547077
      pz      :     0.067131  p :     0.045799
      px      :    -0.085128
      py      :     0.063795
 13 H s       :     1.368301  s :     1.368301
      pz      :     0.012798  p :    -0.059133
      px      :    -0.112734
      py      :     0.040803
 14 H s       :     1.570112  s :     1.570112
      pz      :     0.024893  p :     0.059671
      px      :    -0.026304
      py      :     0.061083
 15 O s       :     3.950916  s :     3.950916
      pz      :     1.357820  p :     4.650151
      px      :     1.601909
      py      :     1.690421
      dz2     :     0.006639  d :     0.030877
      dxz     :     0.002467
      dyz     :     0.011637
      dx2y2   :     0.004456
      dxy     :     0.005678
 16 O s       :     3.978858  s :     3.978858
      pz      :     1.731943  p :     4.667920
      px      :     1.243985
      py      :     1.691991
      dz2     :     0.002421  d :     0.025164
      dxz     :     0.008029
      dyz     :     0.000894
      dx2y2   :     0.008371
      dxy     :     0.005450
 17 C s       :     2.732321  s :     2.732321
      pz      :     0.906242  p :     2.551300
      px      :     0.733209
      py      :     0.911849
      dz2     :     0.064733  d :     0.316558
      dxz     :     0.116664
      dyz     :     0.023423
      dx2y2   :     0.067319
      dxy     :     0.044419
 18 H s       :     1.388711  s :     1.388711
      pz      :     0.016540  p :     0.052110
      px      :     0.016693
      py      :     0.018877
 19 H s       :     1.163537  s :     1.163537
      pz      :     0.011377  p :    -0.002759
      px      :     0.031194
      py      :    -0.045330
 20 C s       :     2.832688  s :     2.832688
      pz      :     0.833752  p :     2.712546
      px      :     0.939963
      py      :     0.938832
      dz2     :     0.112586  d :     0.474448
      dxz     :     0.141627
      dyz     :     0.067143
      dx2y2   :     0.053748
      dxy     :     0.099344
 21 H s       :     0.992579  s :     0.992579
      pz      :    -0.014466  p :     0.003048
      px      :     0.051148
      py      :    -0.033635
 22 H s       :     1.059528  s :     1.059528
      pz      :    -0.010112  p :    -0.020248
      px      :    -0.046185
      py      :     0.036049
 23 C s       :     2.818146  s :     2.818146
      pz      :     0.938026  p :     2.689359
      px      :     0.975924
      py      :     0.775409
      dz2     :     0.121147  d :     0.519194
      dxz     :     0.160716
      dyz     :     0.027845
      dx2y2   :     0.107679
      dxy     :     0.101807
 24 H s       :     1.034987  s :     1.034987
      pz      :    -0.009998  p :    -0.009377
      px      :     0.023204
      py      :    -0.022583
 25 H s       :     1.105385  s :     1.105385
      pz      :     0.022032  p :     0.003352
      px      :    -0.014375
      py      :    -0.004305
 26 F s       :     4.040667  s :     4.040667
      pz      :     1.788049  p :     5.471036
      px      :     1.877211
      py      :     1.805776
      dz2     :     0.004588  d :     0.039329
      dxz     :     0.010711
      dyz     :     0.007253
      dx2y2   :     0.006998
      dxy     :     0.009778
 27 H s       :     0.834159  s :     0.834159
      pz      :     0.022991  p :     0.038283
      px      :     0.061451
      py      :    -0.046159
 28 H s       :     1.313782  s :     1.313782
      pz      :    -0.007611  p :     0.023181
      px      :    -0.017287
      py      :     0.048078
 29 H s       :     1.020354  s :     1.020354
      pz      :     0.005679  p :     0.072116
      px      :    -0.007158
      py      :     0.073595
 30 H s       :     1.157621  s :     1.157621
      pz      :     0.002741  p :     0.003044
      px      :     0.034566
      py      :    -0.034263


                     *******************************
                     * LOEWDIN POPULATION ANALYSIS *
                     *******************************

----------------------
LOEWDIN ATOMIC CHARGES
----------------------
   0 C :    0.055960
   1 N :    0.016452
   2 C :   -0.032456
   3 C :   -0.045205
   4 H :    0.021287
   5 H :    0.032148
   6 S :    1.090956
   7 C :   -0.232556
   8 C :    0.171059
   9 N :    0.214991
  10 H :   -0.026622
  11 H :    0.002319
  12 H :   -0.048611
  13 H :   -0.141363
  14 H :   -0.092528
  15 O :   -0.418009
  16 O :   -0.422734
  17 C :   -0.015963
  18 H :    0.009708
  19 H :    0.018803
  20 C :   -0.027990
  21 H :    0.030587
  22 H :    0.036969
  23 C :   -0.030154
  24 H :    0.019095
  25 H :    0.020438
  26 F :   -0.285333
  27 H :    0.008774
  28 H :    0.028498
  29 H :    0.004809
  30 H :    0.036671

-------------------------------
LOEWDIN REDUCED ORBITAL CHARGES
-------------------------------
  0 C s       :     2.663887  s :     2.663887
      pz      :     0.834835  p :     2.592724
      px      :     0.870716
      py      :     0.887173
      dz2     :     0.120531  d :     0.687429
      dxz     :     0.102093
      dyz     :     0.209319
      dx2y2   :     0.137477
      dxy     :     0.118009
  1 N s       :     2.893053  s :     2.893053
      pz      :     1.040154  p :     3.455096
      px      :     1.070047
      py      :     1.344894
      dz2     :     0.134815  d :     0.635399
      dxz     :     0.188775
      dyz     :     0.085042
      dx2y2   :     0.117590
      dxy     :     0.109177
  2 C s       :     2.678773  s :     2.678773
      pz      :     0.884757  p :     2.688458
      px      :     0.896912
      py      :     0.906789
      dz2     :     0.149837  d :     0.665225
      dxz     :     0.163202
      dyz     :     0.136927
      dx2y2   :     0.154394
      dxy     :     0.060865
  3 C s       :     2.715806  s :     2.715806
      pz      :     0.919975  p :     2.714495
      px      :     0.951220
      py      :     0.843301
      dz2     :     0.115853  d :     0.614904
      dxz     :     0.115243
      dyz     :     0.154258
      dx2y2   :     0.138793
      dxy     :     0.090757
  4 H s       :     0.707031  s :     0.707031
      pz      :     0.086363  p :     0.271682
      px      :     0.115595
      py      :     0.069724
  5 H s       :     0.705463  s :     0.705463
      pz      :     0.099317  p :     0.262389
      px      :     0.070310
      py      :     0.092762
  6 S s       :     4.667017  s :     4.667017
      pz      :     2.799606  p :     8.406635
      px      :     2.808741
      py      :     2.798289
      dz2     :     0.321491  d :     1.835391
      dxz     :     0.421778
      dyz     :     0.373939
      dx2y2   :     0.377978
      dxy     :     0.340206
  7 C s       :     2.625515  s :     2.625515
      pz      :     0.908104  p :     2.527887
      px      :     0.869333
      py      :     0.750450
      dz2     :     0.247248  d :     1.079155
      dxz     :     0.273120
      dyz     :     0.215295
      dx2y2   :     0.147868
      dxy     :     0.195624
  8 C s       :     2.714622  s :     2.714622
      pz      :     0.918646  p :     2.776760
      px      :     0.914429
      py      :     0.943685
      dz2     :     0.095351  d :     0.337559
      dxz     :     0.094562
      dyz     :     0.061576
      dx2y2   :     0.052031
      dxy     :     0.034039
  9 N s       :     2.931425  s :     2.931425
      pz      :     1.096093  p :     3.509135
      px      :     1.052021
      py      :     1.361021
      dz2     :     0.111216  d :     0.344449
      dxz     :     0.080744
      dyz     :     0.075776
      dx2y2   :     0.047591
      dxy     :     0.029123
 10 H s       :     0.656549  s :     0.656549
      pz      :     0.122995  p :     0.370072
      px      :     0.116204
      py      :     0.130873
 11 H s       :     0.655328  s :     0.655328
      pz      :     0.080341  p :     0.342353
      px      :     0.143658
      py      :     0.118354
 12 H s       :     0.602970  s :     0.602970
      pz      :     0.200312  p :     0.445641
      px      :     0.105664
      py      :     0.139665
 13 H s       :     0.719354  s :     0.719354
      pz      :     0.119218  p :     0.422009
      px      :     0.160101
      py      :     0.142690
 14 H s       :     0.769282  s :     0.769282
      pz      :     0.076341  p :     0.323246
      px      :     0.127490
      py      :     0.119415
 15 O s       :     3.566094  s :     3.566094
      pz      :     1.456603  p :     4.609735
      px      :     1.571028
      py      :     1.582104
      dz2     :     0.065191  d :     0.242180
      dxz     :     0.067079
      dyz     :     0.053864
      dx2y2   :     0.029227
      dxy     :     0.026820
 16 O s       :     3.565633  s :     3.565633
      pz      :     1.610393  p :     4.613341
      px      :     1.408113
      py      :     1.594834
      dz2     :     0.025572  d :     0.243760
      dxz     :     0.063950
      dyz     :     0.018138
      dx2y2   :     0.066612
      dxy     :     0.069488
 17 C s       :     2.698016  s :     2.698016
      pz      :     0.893786  p :     2.683459
      px      :     0.909842
      py      :     0.879832
      dz2     :     0.103490  d :     0.634487
      dxz     :     0.135438
      dyz     :     0.140062
      dx2y2   :     0.153536
      dxy     :     0.101961
 18 H s       :     0.728829  s :     0.728829
      pz      :     0.086133  p :     0.261463
      px      :     0.088786
      py      :     0.086545
 19 H s       :     0.723177  s :     0.723177
      pz      :     0.071241  p :     0.258020
      px      :     0.116196
      py      :     0.070583
 20 C s       :     2.678301  s :     2.678301
      pz      :     0.880351  p :     2.672914
      px      :     0.901761
      py      :     0.890802
      dz2     :     0.123278  d :     0.676775
      dxz     :     0.173951
      dyz     :     0.131770
      dx2y2   :     0.157720
      dxy     :     0.090055
 21 H s       :     0.706303  s :     0.706303
      pz      :     0.080054  p :     0.263110
      px      :     0.109324
      py      :     0.073731
 22 H s       :     0.713938  s :     0.713938
      pz      :     0.071584  p :     0.249093
      px      :     0.065478
      py      :     0.112031
 23 C s       :     2.681728  s :     2.681728
      pz      :     0.884912  p :     2.673427
      px      :     0.898316
      py      :     0.890198
      dz2     :     0.124504  d :     0.674999
      dxz     :     0.177119
      dyz     :     0.130869
      dx2y2   :     0.152616
      dxy     :     0.089890
 24 H s       :     0.721610  s :     0.721610
      pz      :     0.075578  p :     0.259295
      px      :     0.120015
      py      :     0.063702
 25 H s       :     0.725353  s :     0.725353
      pz      :     0.090122  p :     0.254208
      px      :     0.102229
      py      :     0.061858
 26 F s       :     3.658600  s :     3.658600
      pz      :     1.740802  p :     5.298881
      px      :     1.802562
      py      :     1.755516
      dz2     :     0.077354  d :     0.327852
      dxz     :     0.056962
      dyz     :     0.074996
      dx2y2   :     0.062190
      dxy     :     0.056350
 27 H s       :     0.701878  s :     0.701878
      pz      :     0.104262  p :     0.289348
      px      :     0.101324
      py      :     0.083762
 28 H s       :     0.722061  s :     0.722061
      pz      :     0.072180  p :     0.249442
      px      :     0.063282
      py      :     0.113980
 29 H s       :     0.700905  s :     0.700905
      pz      :     0.094783  p :     0.294286
      px      :     0.074985
      py      :     0.124517
 30 H s       :     0.718918  s :     0.718918
      pz      :     0.084910  p :     0.244411
      px      :     0.095297
      py      :     0.064204


                      *****************************
                      * MAYER POPULATION ANALYSIS *
                      *****************************

  NA   - Mulliken gross atomic population
  ZA   - Total nuclear charge
  QA   - Mulliken gross atomic charge
  VA   - Mayer's total valence
  BVA  - Mayer's bonded valence
  FA   - Mayer's free valence

  ATOM       NA         ZA         QA         VA         BVA        FA
  0 C      4.9941     6.0000     1.0059     3.5146     3.5146     0.0000
  1 N      7.0286     7.0000    -0.0286     4.0000     4.0000    -0.0000
  2 C      5.5086     6.0000     0.4914     4.3646     4.3646     0.0000
  3 C      5.9124     6.0000     0.0876     4.5533     4.5533     0.0000
  4 H      0.8479     1.0000     0.1521     1.0031     1.0031     0.0000
  5 H      1.1610     1.0000    -0.1610     1.1193     1.1193     0.0000
  6 S     14.5952    16.0000     1.4048     4.9190     4.9190     0.0000
  7 C      5.2034     6.0000     0.7966     3.1571     3.1571    -0.0000
  8 C      5.3634     6.0000     0.6366     3.1342     3.1342    -0.0000
  9 N      6.8193     7.0000     0.1807     3.8391     3.8391    -0.0000
 10 H      1.0713     1.0000    -0.0713     0.9039     0.9039     0.0000
 11 H      1.2281     1.0000    -0.2281     0.8915     0.8915    -0.0000
 12 H      1.5929     1.0000    -0.5929     0.5415     0.5415    -0.0000
 13 H      1.3092     1.0000    -0.3092     0.6744     0.6744     0.0000
 14 H      1.6298     1.0000    -0.6298     0.7070     0.7070    -0.0000
 15 O      8.6319     8.0000    -0.6319     1.7049     1.7049    -0.0000
 16 O      8.6719     8.0000    -0.6719     1.7830     1.7830     0.0000
 17 C      5.6002     6.0000     0.3998     4.4330     4.4330     0.0000
 18 H      1.4408     1.0000    -0.4408     0.9694     0.9694     0.0000
 19 H      1.1608     1.0000    -0.1608     0.9153     0.9153    -0.0000
 20 C      6.0197     6.0000    -0.0197     5.0255     5.0255    -0.0000
 21 H      0.9956     1.0000     0.0044     1.0503     1.0503    -0.0000
 22 H      1.0393     1.0000    -0.0393     0.9465     0.9465     0.0000
 23 C      6.0267     6.0000    -0.0267     4.9873     4.9873     0.0000
 24 H      1.0256     1.0000    -0.0256     0.9496     0.9496    -0.0000
 25 H      1.1087     1.0000    -0.1087     1.0474     1.0474    -0.0000
 26 F      9.5510     9.0000    -0.5510     1.2148     1.2148    -0.0000
 27 H      0.8724     1.0000     0.1276     1.0520     1.0520     0.0000
 28 H      1.3370     1.0000    -0.3370     1.0599     1.0599     0.0000
 29 H      1.0925     1.0000    -0.0925     1.1662     1.1662    -0.0000
 30 H      1.1607     1.0000    -0.1607     1.0019     1.0019    -0.0000

  Mayer bond orders larger than 0.100000
B(  0-C ,  1-N ) :   0.9153 B(  0-C , 12-H ) :  -0.3290 B(  0-C , 17-C ) :   1.0571 
B(  0-C , 18-H ) :   0.8597 B(  0-C , 19-H ) :   0.6049 B(  0-C , 23-C ) :   0.1272 
B(  0-C , 25-H ) :   0.1236 B(  1-N ,  7-C ) :   1.0520 B(  1-N ,  8-C ) :   0.2623 
B(  1-N ,  9-N ) :   0.2639 B(  1-N , 12-H ) :   1.1147 B(  1-N , 18-H ) :   0.1120 
B(  1-N , 19-H ) :   0.1612 B(  2-C ,  3-C ) :   1.2783 B(  2-C ,  4-H ) :   0.1228 
B(  2-C ,  5-H ) :   0.1808 B(  2-C , 20-C ) :   1.2774 B(  2-C , 21-H ) :   0.6320 
B(  2-C , 22-H ) :   0.7320 B(  2-C , 29-H ) :   0.1001 B(  3-C ,  4-H ) :   0.8526 
B(  3-C ,  5-H ) :   0.8040 B(  3-C ,  6-S ) :   1.0345 B(  3-C , 21-H ) :   0.1412 
B(  3-C , 22-H ) :   0.1443 B(  5-H ,  6-S ) :   0.1004 B(  6-S , 15-O ) :   1.5366 
B(  6-S , 16-O ) :   1.4527 B(  6-S , 26-F ) :   0.6301 B(  7-C ,  8-C ) :   1.2415 
B(  7-C ,  9-N ) :   0.8991 B(  7-C , 11-H ) :  -0.1509 B(  7-C , 12-H ) :  -0.3618 
B(  7-C , 13-H ) :   0.1098 B(  7-C , 14-H ) :   0.2998 B(  8-C ,  9-N ) :   0.3231 
B(  8-C , 13-H ) :   0.5240 B(  8-C , 14-H ) :   0.6809 B(  9-N , 10-H ) :   0.9576 
B(  9-N , 11-H ) :   1.2835 B(  9-N , 18-H ) :   0.1059 B( 10-H , 11-H ) :  -0.2172 
B( 12-H , 13-H ) :  -0.1128 B( 12-H , 19-H ) :   0.1912 B( 12-H , 24-H ) :   0.1262 
B( 12-H , 27-H ) :   0.1004 B( 12-H , 28-H ) :  -0.1040 B( 13-H , 14-H ) :  -0.2450 
B( 13-H , 26-F ) :   0.3526 B( 16-O , 26-F ) :   0.1081 B( 17-C , 18-H ) :   0.1423 
B( 17-C , 19-H ) :   0.1113 B( 17-C , 23-C ) :   1.2605 B( 17-C , 24-H ) :   0.7349 
B( 17-C , 25-H ) :   0.8718 B( 17-C , 27-H ) :   0.1031 B( 18-H , 19-H ) :  -0.1582 
B( 20-C , 21-H ) :   0.2895 B( 20-C , 22-H ) :   0.1071 B( 20-C , 23-C ) :   1.2036 
B( 20-C , 28-H ) :   0.1557 B( 20-C , 29-H ) :   0.9371 B( 20-C , 30-H ) :   0.8129 
B( 23-C , 24-H ) :   0.2226 B( 23-C , 25-H ) :   0.1390 B( 23-C , 27-H ) :   0.8285 
B( 23-C , 28-H ) :   0.9236 B( 23-C , 30-H ) :   0.1553 

-------
TIMINGS
-------

Total SCF time: 0 days 0 hours 0 min 41 sec 

Total time                  ....      41.621 sec
Sum of individual times     ....      41.080 sec  ( 98.7%)

Fock matrix formation       ....      37.360 sec  ( 89.8%)
  Split-RI-J                ....      12.158 sec  ( 32.5% of F)
  XC integration            ....      25.010 sec  ( 66.9% of F)
    Basis function eval.    ....       6.929 sec  ( 27.7% of XC)
    Density eval.           ....       8.255 sec  ( 33.0% of XC)
    XC-Functional eval.     ....       0.613 sec  (  2.5% of XC)
    XC-Potential eval.      ....       8.437 sec  ( 33.7% of XC)
Diagonalization             ....       0.355 sec  (  0.9%)
Density matrix formation    ....       0.036 sec  (  0.1%)
Population analysis         ....       0.053 sec  (  0.1%)
Initial guess               ....       0.912 sec  (  2.2%)
Orbital Transformation      ....       0.000 sec  (  0.0%)
Orbital Orthonormalization  ....       0.000 sec  (  0.0%)
DIIS solution               ....       0.194 sec  (  0.5%)
SOSCF solution              ....       0.510 sec  (  1.2%)
Grid generation             ....       1.660 sec  (  4.0%)

Maximum memory used throughout the entire SCF-calculation: 66.7 MB


-------------------------------------------------------------------------------
                          DFT DISPERSION CORRECTION                            
                                                                               
                              DFTD3 V3.1  Rev 1                                
                          USING Becke-Johnson damping                          
-------------------------------------------------------------------------------
The PBE functional is recognized
Active option DFTDOPT                   ...         4   

molecular C6(AA) [au] = 8841.153339 


            DFT-D V3
 parameters
 s6 scaling factor         :     1.0000 
 a1 scaling factor         :     0.4289 
 s8 scaling factor         :     0.7875 
 a2 scaling factor         :     4.4407 
 ad hoc parameters k1-k3   :    16.0000     1.3333    -4.0000 

 Edisp/kcal,au: -23.336789506883  -0.037189537341 
 E6   /kcal   : -16.710594080 
 E8   /kcal   :  -6.626195427 
 % E8         :  28.393774667 

-------------------------   ----------------
Dispersion correction           -0.037189537
-------------------------   ----------------


-------------------------   --------------------
FINAL SINGLE POINT ENERGY     -1071.445900208038
-------------------------   --------------------


                            ***************************************
                            *     ORCA property calculations      *
                            ***************************************

                                    ---------------------
                                    Active property flags
                                    ---------------------
   (+) Dipole Moment


------------------------------------------------------------------------------
                       ORCA ELECTRIC PROPERTIES CALCULATION
------------------------------------------------------------------------------

Dipole Moment Calculation                       ... on
Quadrupole Moment Calculation                   ... off
Polarizability Calculation                      ... off
GBWName                                         ... 28Oct_SVPD_PBE_D8_wb97.gbw
Electron density file                           ... 28Oct_SVPD_PBE_D8_wb97.scfp
The origin for moment calculation is the CENTER OF MASS  = ( 4.297341, -0.920110 -8.303588)

-------------
DIPOLE MOMENT
-------------
                                X             Y             Z
Electronic contribution:     -0.85944      -2.96623     -18.39340
Nuclear contribution   :      0.50676       3.90127      20.40426
                        -----------------------------------------
Total Dipole Moment    :     -0.35269       0.93505       2.01086
                        -----------------------------------------
Magnitude (a.u.)       :      2.24550
Magnitude (Debye)      :      5.70759



--------------------
Rotational spectrum 
--------------------
 
Rotational constants in cm-1:     0.029548     0.014706     0.011197 
Rotational constants in MHz :   885.834387   440.871746   335.667619 

 Dipole components along the rotational axes: 
x,y,z [a.u.] :     1.096263     1.881354    -0.548601 
x,y,z [Debye]:     2.786480     4.782021    -1.394433 

 

Timings for individual modules:

Sum of individual times         ...       42.721 sec (=   0.712 min)
GTO integral calculation        ...        0.749 sec (=   0.012 min)   1.8 %
SCF iterations                  ...       41.971 sec (=   0.700 min)  98.2 %
                             ****ORCA TERMINATED NORMALLY****
TOTAL RUN TIME: 0 days 0 hours 0 minutes 43 seconds 272 msec
