
                                        *****************
                                        * O   R   C   A *
                                        *****************

                                            #,                                       
                                            ###                                      
                                            ####                                     
                                            #####                                    
                                            ######                                   
                                           ########,                                 
                                     ,,################,,,,,                         
                               ,,#################################,,                 
                          ,,##########################################,,             
                       ,#########################################, ''#####,          
                    ,#############################################,,   '####,        
                  ,##################################################,,,,####,       
                ,###########''''           ''''###############################       
              ,#####''   ,,,,##########,,,,          '''####'''          '####       
            ,##' ,,,,###########################,,,                        '##       
           ' ,,###''''                  '''############,,,                           
         ,,##''                                '''############,,,,        ,,,,,,###''
      ,#''                                            '''#######################'''  
     '                                                          ''''####''''         
             ,#######,   #######,   ,#######,      ##                                
            ,#'     '#,  ##    ##  ,#'     '#,    #''#        ######   ,####,        
            ##       ##  ##   ,#'  ##            #'  '#       #        #'  '#        
            ##       ##  #######   ##           ,######,      #####,   #    #        
            '#,     ,#'  ##    ##  '#,     ,#' ,#      #,         ##   #,  ,#        
             '#######'   ##     ##  '#######'  #'      '#     #####' # '####'        



                  #######################################################
                  #                        -***-                        #
                  #          Department of theory and spectroscopy      #
                  #    Directorship and core code : Frank Neese         #
                  #        Max Planck Institute fuer Kohlenforschung    #
                  #                Kaiser Wilhelm Platz 1               #
                  #                 D-45470 Muelheim/Ruhr               #
                  #                      Germany                        #
                  #                                                     #
                  #                  All rights reserved                #
                  #                        -***-                        #
                  #######################################################


                         Program Version 5.0.0 -  RELEASE  -
                                (SVN: $Rev: 19529$)
                ($Date: 2021-06-28 11:36:33 +0200 (Mo, 28 Jun 2021) $)


 With contributions from (in alphabetic order):
   Daniel Aravena         : Magnetic Suceptibility
   Michael Atanasov       : Ab Initio Ligand Field Theory (pilot matlab implementation)
   Alexander A. Auer      : GIAO ZORA, VPT2 properties, NMR spectrum
   Ute Becker             : Parallelization
   Giovanni Bistoni       : ED, misc. LED, open-shell LED, HFLD
   Martin Brehm           : Molecular dynamics
   Dmytro Bykov           : SCF Hessian
   Vijay G. Chilkuri      : MRCI spin determinant printing, contributions to CSF-ICE
   Dipayan Datta          : RHF DLPNO-CCSD density
   Achintya Kumar Dutta   : EOM-CC, STEOM-CC
   Dmitry Ganyushin       : Spin-Orbit,Spin-Spin,Magnetic field MRCI
   Miquel Garcia          : C-PCM Hessian, Gaussian charge scheme
   Yang Guo               : DLPNO-NEVPT2, F12-NEVPT2, CIM, IAO-localization
   Andreas Hansen         : Spin unrestricted coupled pair/coupled cluster methods
   Benjamin Helmich-Paris : MC-RPA, TRAH-SCF, COSX integrals
   Lee Huntington         : MR-EOM, pCC
   Robert Izsak           : Overlap fitted RIJCOSX, COSX-SCS-MP3, EOM
   Marcus Kettner         : VPT2
   Christian Kollmar      : KDIIS, OOCD, Brueckner-CCSD(T), CCSD density, CASPT2, CASPT2-K
   Simone Kossmann        : Meta GGA functionals, TD-DFT gradient, OOMP2, MP2 Hessian
   Martin Krupicka        : Initial AUTO-CI
   Lucas Lang             : DCDCAS
   Marvin Lechner         : AUTO-CI (C++ implementation), FIC-MRCC
   Dagmar Lenk            : GEPOL surface, SMD
   Dimitrios Liakos       : Extrapolation schemes; Compound Job, initial MDCI parallelization
   Dimitrios Manganas     : Further ROCIS development; embedding schemes
   Dimitrios Pantazis     : SARC Basis sets
   Anastasios Papadopoulos: AUTO-CI, single reference methods and gradients
   Taras Petrenko         : DFT Hessian,TD-DFT gradient, ASA, ECA, R-Raman, ABS, FL, XAS/XES, NRVS
   Peter Pinski           : DLPNO-MP2, DLPNO-MP2 Gradient
   Christoph Reimann      : Effective Core Potentials
   Marius Retegan         : Local ZFS, SOC
   Christoph Riplinger    : Optimizer, TS searches, QM/MM, DLPNO-CCSD(T), (RO)-DLPNO pert. Triples
   Tobias Risthaus        : Range-separated hybrids, TD-DFT gradient, RPA, STAB
   Michael Roemelt        : Original ROCIS implementation
   Masaaki Saitow         : Open-shell DLPNO-CCSD energy and density
   Barbara Sandhoefer     : DKH picture change effects
   Avijit Sen             : IP-ROCIS
   Kantharuban Sivalingam : CASSCF convergence, NEVPT2, FIC-MRCI
   Bernardo de Souza      : ESD, SOC TD-DFT
   Georgi Stoychev        : AutoAux, RI-MP2 NMR
   Willem Van den Heuvel  : Paramagnetic NMR
   Boris Wezisla          : Elementary symmetry handling
   Frank Wennmohs         : Technical directorship


 We gratefully acknowledge several colleagues who have allowed us to
 interface, adapt or use parts of their codes:
   Stefan Grimme, W. Hujo, H. Kruse, P. Pracht,  : VdW corrections, initial TS optimization,
                  C. Bannwarth, S. Ehlert          DFT functionals, gCP, sTDA/sTD-DF
   Ed Valeev, F. Pavosevic, A. Kumar             : LibInt (2-el integral package), F12 methods
   Garnet Chan, S. Sharma, J. Yang, R. Olivares  : DMRG
   Ulf Ekstrom                                   : XCFun DFT Library
   Mihaly Kallay                                 : mrcc  (arbitrary order and MRCC methods)
   Jiri Pittner, Ondrej Demel                    : Mk-CCSD
   Frank Weinhold                                : gennbo (NPA and NBO analysis)
   Christopher J. Cramer and Donald G. Truhlar   : smd solvation model
   Lars Goerigk                                  : TD-DFT with DH, B97 family of functionals
   V. Asgeirsson, H. Jonsson                     : NEB implementation
   FAccTs GmbH                                   : IRC, NEB, NEB-TS, DLPNO-Multilevel, CI-OPT
                                                   MM, QMMM, 2- and 3-layer-ONIOM, Crystal-QMMM,
                                                   LR-CPCM, SF, NACMEs, symmetry and pop. for TD-DFT,
                                                   nearIR, NL-DFT gradient (VV10), updates on ESD,
                                                   ML-optimized integration grids
   S Lehtola, MJT Oliveira, MAL Marques          : LibXC Library
   Liviu Ungur et al                             : ANISO software


 Your calculation uses the libint2 library for the computation of 2-el integrals
 For citations please refer to: http://libint.valeyev.net

 Your ORCA version has been built with support for libXC version: 5.1.0
 For citations please refer to: https://tddft.org/programs/libxc/

 This ORCA versions uses:
   CBLAS   interface :  Fast vector & matrix operations
   LAPACKE interface :  Fast linear algebra routines
   SCALAPACK package :  Parallel linear algebra routines
   Shared memory     :  Shared parallel matrices
   BLAS/LAPACK       :  OpenBLAS 0.3.15  USE64BITINT DYNAMIC_ARCH NO_AFFINITY Haswell SINGLE_THREADED
        Core in use  :  Haswell
   Copyright (c) 2011-2014, The OpenBLAS Project




***************************************
The coordinates will be read from file: D2.xyz
***************************************


Your calculation utilizes the atom-pairwise dispersion correction
with the Becke-Johnson damping scheme (D3BJ)
Cite in your paper:
S.Grimme, S.Ehrlich, L.Goerigk, J Comput Chem, (2011), 32, 1456–1465 
S.Grimme, J.Antony, S.Ehrlich and H.Krieg, J.Chem.Phys., 132, (2010), 154104 
   

================================================================================

----- Orbital basis set information -----
Your calculation utilizes the basis: def2-TZVP
   F. Weigend and R. Ahlrichs, Phys. Chem. Chem. Phys. 7, 3297 (2005).

----- AuxJ basis set information -----
Your calculation utilizes the auxiliary basis: def2/J
   F. Weigend, Phys. Chem. Chem. Phys. 8, 1057 (2006).

================================================================================
                                        WARNINGS
                       Please study these warnings very carefully!
================================================================================


INFO   : the flag for use of the SHARK integral package has been found!

================================================================================
                                       INPUT FILE
================================================================================
NAME = PBE0_D2_wb97.com
|  1> !PBE0 D3BJ RIJCOSX def2-TZVP def2/J TightSCF xyzfile                                                                                         
|  2> 
|  3> *xyzfile 0 1 D2.xyz
|  4> 
|  5> %MaxCore 64000
|  6> 
|  7> %pal nprocs 18                                                                                                                                                  
|  8> end  
|  9> 
| 10> %scf
| 11>   MaxIter 150
| 12> end
| 13> 
| 14> 
| 15>                          ****END OF INPUT****
================================================================================

                       ****************************
                       * Single Point Calculation *
                       ****************************

---------------------------------
CARTESIAN COORDINATES (ANGSTROEM)
---------------------------------
  C     -2.160376   -1.369486   -3.467104
  C     -3.030108   -1.910857   -4.541074
  C     -2.047717    0.146583   -3.511774
  C     -7.330440   -2.678991   -3.206811
  S     -6.019659   -2.926965   -4.419128
  H     -3.477443   -2.791513   -4.257096
  H     -2.538013   -2.017860   -5.438075
  H     -3.891589   -1.376039   -4.714365
  O     -5.645830   -1.588384   -4.919307
  F     -4.881961   -3.503697   -3.667235
  H     -1.184438   -1.843997   -3.566393
  H     -2.598195   -1.708376   -2.528477
  O     -6.549267   -3.805150   -5.425071
  C     -3.328755    0.875037   -3.103669
  H     -1.740034    0.452343   -4.517126
  H     -1.232611    0.434938   -2.842208
  C     -3.628487    0.771601   -1.609363
  H     -4.175106    0.490791   -3.682203
  H     -3.237812    1.928663   -3.381480
  C     -4.975718    1.361432   -1.190644
  H     -2.830700    1.276234   -1.054766
  H     -3.594312   -0.275838   -1.294603
  C     -6.184720    0.784347   -1.926464
  H     -4.956292    2.445725   -1.342200
  H     -5.097256    1.205252   -0.114136
  C     -6.286921   -0.735882   -1.893531
  H     -6.163994    1.100199   -2.974250
  H     -7.094530    1.223459   -1.504509
  C     -7.468999   -1.246153   -2.713833
  H     -6.360641   -1.090347   -0.859176
  H     -5.369848   -1.171853   -2.295982
  H     -7.601914   -0.601349   -3.585329
  H     -8.389791   -1.173436   -2.126922
  H     -7.118254   -3.379818   -2.398055
  H     -8.241838   -3.004745   -3.706513

----------------------------
CARTESIAN COORDINATES (A.U.)
----------------------------
  NO LB      ZA    FRAG     MASS         X           Y           Z
   0 C     6.0000    0    12.011   -4.082518   -2.587954   -6.551877
   1 C     6.0000    0    12.011   -5.726074   -3.610996   -8.581386
   2 C     6.0000    0    12.011   -3.869623    0.277002   -6.636292
   3 C     6.0000    0    12.011  -13.852524   -5.062559   -6.059995
   4 S    16.0000    0    32.060  -11.375507   -5.531163   -8.350943
   5 H     1.0000    0     1.008   -6.571415   -5.275195   -8.044745
   6 H     1.0000    0     1.008   -4.796150   -3.813203  -10.276473
   7 H     1.0000    0     1.008   -7.354037   -2.600336   -8.908859
   8 O     8.0000    0    15.999  -10.669072   -3.001610   -9.296143
   9 F     9.0000    0    18.998   -9.225569   -6.621027   -6.930070
  10 H     1.0000    0     1.008   -2.238264   -3.484650   -6.739505
  11 H     1.0000    0     1.008   -4.909877   -3.228363   -4.778129
  12 O     8.0000    0    15.999  -12.376322   -7.190690  -10.251898
  13 C     6.0000    0    12.011   -6.290435    1.653581   -5.865085
  14 H     1.0000    0     1.008   -3.288188    0.854804   -8.536131
  15 H     1.0000    0     1.008   -2.329296    0.821914   -5.370995
  16 C     6.0000    0    12.011   -6.856848    1.458114   -3.041255
  17 H     1.0000    0     1.008   -7.889807    0.927461   -6.958355
  18 H     1.0000    0     1.008   -6.118579    3.644644   -6.390072
  19 C     6.0000    0    12.011   -9.402744    2.572734   -2.249990
  20 H     1.0000    0     1.008   -5.349249    2.411732   -1.993218
  21 H     1.0000    0     1.008   -6.792265   -0.521259   -2.446444
  22 C     6.0000    0    12.011  -11.687426    1.482200   -3.640489
  23 H     1.0000    0     1.008   -9.366034    4.621751   -2.536390
  24 H     1.0000    0     1.008   -9.632418    2.277595   -0.215686
  25 C     6.0000    0    12.011  -11.880560   -1.390615   -3.578255
  26 H     1.0000    0     1.008  -11.648260    2.079075   -5.620517
  27 H     1.0000    0     1.008  -13.406719    2.312003   -2.843110
  28 C     6.0000    0    12.011  -14.114362   -2.354887   -5.128401
  29 H     1.0000    0     1.008  -12.019870   -2.060457   -1.623607
  30 H     1.0000    0     1.008  -10.147543   -2.214481   -4.338777
  31 H     1.0000    0     1.008  -14.365535   -1.136385   -6.775290
  32 H     1.0000    0     1.008  -15.854408   -2.217473   -4.019300
  33 H     1.0000    0     1.008  -13.451551   -6.386931   -4.531667
  34 H     1.0000    0     1.008  -15.574817   -5.678144   -7.004294

--------------------------------
INTERNAL COORDINATES (ANGSTROEM)
--------------------------------
 C      0   0   0     0.000000000000     0.00000000     0.00000000
 C      1   0   0     1.484226581495     0.00000000     0.00000000
 C      1   2   0     1.520905750528   112.68986798     0.00000000
 C      2   1   3     4.567618736384   113.68216683   263.81603785
 S      4   2   1     1.802595963950    30.91452866   194.59383350
 H      2   1   3     1.027767820417   111.57120593   208.68726322
 H      2   1   3     1.028697553107   112.86611894    82.75220501
 H      2   1   3     1.028693208574   115.02372528   318.31408853
 O      5   4   2     1.477067148400   106.68507953   299.62597852
 F      5   4   2     1.480648261716   105.71156573    55.90342764
 H      1   2   3     1.089712185385   107.46022800   236.88738252
 H      1   2   3     1.089748661171   105.92561004   122.05716888
 O      5   4   2     1.436527814876   106.67629747   177.15957963
 C      3   1   2     1.529135300842   113.88949220    70.59640687
 H      3   1   2     1.094938120430   109.03484389   306.90098892
 H      3   1   2     1.093556158802   107.46216848   192.19019489
 C     14   3   1     1.527576732566   113.15347637    71.26668089
 H     14   3   1     1.094831575636   109.84013188   307.96048514
 H     14   3   1     1.093424107174   108.75708755   192.89364962
 C     17  14   3     1.529136080547   114.49521460   186.13753798
 H     17  14   3     1.094850074113   108.74351633    63.97481107
 H     17  14   3     1.094243868612   109.88138487   308.57258014
 C     20  17  14     1.528445198311   114.79932259    55.82149932
 H     20  17  14     1.095005972231   109.17320643   293.45363113
 H     20  17  14     1.094546662157   108.18615316   178.26632771
 C     23  20  17     1.524015703976   114.78835580    53.03073762
 H     23  20  17     1.094553324327   109.68915562   291.18092961
 H     23  20  17     1.094815721863   108.68448619   176.18552485
 C      4   2   1     1.521594700151    91.26142952    54.36790626
 H     26  23  20     1.095888358777   110.33775009    60.06699795
 H     26  23  20     1.092272961399   109.50461690   303.79776510
 H     29   4   2     1.092219950072   107.96835357    76.34033964
 H     29   4   2     1.094354019520   108.23696290   191.41281199
 H      4   2   1     1.090994494309    98.13260579   301.44031108
 H      4   2   1     1.089249417897   134.75221821   175.73446304

---------------------------
INTERNAL COORDINATES (A.U.)
---------------------------
 C      0   0   0     0.000000000000     0.00000000     0.00000000
 C      1   0   0     2.804781759712     0.00000000     0.00000000
 C      1   2   0     2.874095344004   112.68986798     0.00000000
 C      2   1   3     8.631548495934   113.68216683   263.81603785
 S      4   2   1     3.406412701977    30.91452866   194.59383350
 H      2   1   3     1.942199709846   111.57120593   208.68726322
 H      2   1   3     1.943956650006   112.86611894    82.75220501
 H      2   1   3     1.943948440030   115.02372528   318.31408853
 O      5   4   2     2.791252391888   106.68507953   299.62597852
 F      5   4   2     2.798019715310   105.71156573    55.90342764
 H      1   2   3     2.059257595174   107.46022800   236.88738252
 H      1   2   3     2.059326524421   105.92561004   122.05716888
 O      5   4   2     2.714644153876   106.67629747   177.15957963
 C      3   1   2     2.889646940303   113.88949220    70.59640687
 H      3   1   2     2.069133181204   109.03484389   306.90098892
 H      3   1   2     2.066521652198   107.46216848   192.19019489
 C     14   3   1     2.886701673100   113.15347637    71.26668089
 H     14   3   1     2.068931840722   109.84013188   307.96048514
 H     14   3   1     2.066272110786   108.75708755   192.89364962
 C     17  14   3     2.889648413732   114.49521460   186.13753798
 H     17  14   3     2.068966797776   108.74351633    63.97481107
 H     17  14   3     2.067821235399   109.88138487   308.57258014
 C     20  17  14     2.888342835514   114.79932259    55.82149932
 H     20  17  14     2.069261402524   109.17320643   293.45363113
 H     20  17  14     2.068393432275   108.18615316   178.26632771
 C     23  20  17     2.879972304309   114.78835580    53.03073762
 H     23  20  17     2.068406021952   109.68915562   291.18092961
 H     23  20  17     2.068901881432   108.68448619   176.18552485
 C      4   2   1     2.875397270111    91.26142952    54.36790626
 H     26  23  20     2.070928871442   110.33775009    60.06699795
 H     26  23  20     2.064096760532   109.50461690   303.79776510
 H     29   4   2     2.063996583642   107.96835357    76.34033964
 H     29   4   2     2.068029390448   108.23696290   191.41281199
 H      4   2   1     2.061680807860    98.13260579   301.44031108
 H      4   2   1     2.058383091359   134.75221821   175.73446304

---------------------
BASIS SET INFORMATION
---------------------
There are 5 groups of distinct atoms

 Group   1 Type C   : 11s6p2d1f contracted to 5s3p2d1f pattern {62111/411/11/1}
 Group   2 Type S   : 14s9p3d1f contracted to 5s5p2d1f pattern {73211/51111/21/1}
 Group   3 Type H   : 5s1p contracted to 3s1p pattern {311/1}
 Group   4 Type O   : 11s6p2d1f contracted to 5s3p2d1f pattern {62111/411/11/1}
 Group   5 Type F   : 11s6p2d1f contracted to 5s3p2d1f pattern {62111/411/11/1}

Atom   0C    basis set group =>   1
Atom   1C    basis set group =>   1
Atom   2C    basis set group =>   1
Atom   3C    basis set group =>   1
Atom   4S    basis set group =>   2
Atom   5H    basis set group =>   3
Atom   6H    basis set group =>   3
Atom   7H    basis set group =>   3
Atom   8O    basis set group =>   4
Atom   9F    basis set group =>   5
Atom  10H    basis set group =>   3
Atom  11H    basis set group =>   3
Atom  12O    basis set group =>   4
Atom  13C    basis set group =>   1
Atom  14H    basis set group =>   3
Atom  15H    basis set group =>   3
Atom  16C    basis set group =>   1
Atom  17H    basis set group =>   3
Atom  18H    basis set group =>   3
Atom  19C    basis set group =>   1
Atom  20H    basis set group =>   3
Atom  21H    basis set group =>   3
Atom  22C    basis set group =>   1
Atom  23H    basis set group =>   3
Atom  24H    basis set group =>   3
Atom  25C    basis set group =>   1
Atom  26H    basis set group =>   3
Atom  27H    basis set group =>   3
Atom  28C    basis set group =>   1
Atom  29H    basis set group =>   3
Atom  30H    basis set group =>   3
Atom  31H    basis set group =>   3
Atom  32H    basis set group =>   3
Atom  33H    basis set group =>   3
Atom  34H    basis set group =>   3
---------------------------------
AUXILIARY/J BASIS SET INFORMATION
---------------------------------
There are 5 groups of distinct atoms

 Group   1 Type C   : 12s5p4d2f1g contracted to 6s4p3d1f1g pattern {711111/2111/211/2/1}
 Group   2 Type S   : 14s5p5d2f1g contracted to 8s4p3d1f1g pattern {71111111/2111/311/2/1}
 Group   3 Type H   : 5s2p1d contracted to 3s1p1d pattern {311/2/1}
 Group   4 Type O   : 12s5p4d2f1g contracted to 6s4p3d1f1g pattern {711111/2111/211/2/1}
 Group   5 Type F   : 12s5p4d2f1g contracted to 6s4p3d1f1g pattern {711111/2111/211/2/1}

Atom   0C    basis set group =>   1
Atom   1C    basis set group =>   1
Atom   2C    basis set group =>   1
Atom   3C    basis set group =>   1
Atom   4S    basis set group =>   2
Atom   5H    basis set group =>   3
Atom   6H    basis set group =>   3
Atom   7H    basis set group =>   3
Atom   8O    basis set group =>   4
Atom   9F    basis set group =>   5
Atom  10H    basis set group =>   3
Atom  11H    basis set group =>   3
Atom  12O    basis set group =>   4
Atom  13C    basis set group =>   1
Atom  14H    basis set group =>   3
Atom  15H    basis set group =>   3
Atom  16C    basis set group =>   1
Atom  17H    basis set group =>   3
Atom  18H    basis set group =>   3
Atom  19C    basis set group =>   1
Atom  20H    basis set group =>   3
Atom  21H    basis set group =>   3
Atom  22C    basis set group =>   1
Atom  23H    basis set group =>   3
Atom  24H    basis set group =>   3
Atom  25C    basis set group =>   1
Atom  26H    basis set group =>   3
Atom  27H    basis set group =>   3
Atom  28C    basis set group =>   1
Atom  29H    basis set group =>   3
Atom  30H    basis set group =>   3
Atom  31H    basis set group =>   3
Atom  32H    basis set group =>   3
Atom  33H    basis set group =>   3
Atom  34H    basis set group =>   3


           ************************************************************
           *        Program running with 18 parallel MPI-processes    *
           *              working on a common directory               *
           ************************************************************
------------------------------------------------------------------------------
                           ORCA GTO INTEGRAL CALCULATION
                           -- RI-GTO INTEGRALS CHOSEN --
------------------------------------------------------------------------------
------------------------------------------------------------------------------
                   ___                                                        
                  /   \      - P O W E R E D   B Y -                         
                 /     \                                                     
                 |  |  |   _    _      __       _____    __    __             
                 |  |  |  | |  | |    /  \     |  _  \  |  |  /  |          
                  \  \/   | |  | |   /    \    | | | |  |  | /  /          
                 / \  \   | |__| |  /  /\  \   | |_| |  |  |/  /          
                |  |  |   |  __  | /  /__\  \  |    /   |      \           
                |  |  |   | |  | | |   __   |  |    \   |  |\   \          
                \     /   | |  | | |  |  |  |  | |\  \  |  | \   \       
                 \___/    |_|  |_| |__|  |__|  |_| \__\ |__|  \__/        
                                                                              
                      - O R C A' S   B I G   F R I E N D -                    
                                      &                                       
                       - I N T E G R A L  F E E D E R -                       
                                                                              
 v1 FN, 2020, v2 2021                                                         
------------------------------------------------------------------------------


Reading SHARK input file PBE0_D2_wb97.SHARKINP.tmp ... ok
----------------------
SHARK INTEGRAL PACKAGE
----------------------

Number of atoms                             ...     35
Number of basis functions                   ...    566
Number of shells                            ...    240
Maximum angular momentum                    ...      3
Integral batch strategy                     ... SHARK/LIBINT Hybrid
RI-J (if used) integral strategy            ... SPLIT-RIJ (Revised 2003 algorithm where possible)
Printlevel                                  ...      1
Contraction scheme used                     ... SEGMENTED contraction
Coulomb Range Separation                    ... NOT USED
Exchange Range Separation                   ... NOT USED
Finite Nucleus Model                        ... NOT USED
Auxiliary Coulomb fitting basis             ... AVAILABLE
   # of basis functions in Aux-J            ...    919
   # of shells in Aux-J                     ...    317
   Maximum angular momentum in Aux-J        ...      4
Auxiliary J/K fitting basis                 ... NOT available
Auxiliary Correlation fitting basis         ... NOT available
Auxiliary 'external' fitting basis          ... NOT available
Integral threshold                          ...     2.500000e-11
Primitive cut-off                           ...     2.500000e-12
Primitive pair pre-selection threshold      ...     2.500000e-12

Calculating pre-screening integrals         ... done (  0.4 sec) Dimension = 240
Organizing shell pair data                  ... done (  0.3 sec)
Shell pair information
Total number of shell pairs                 ...     28920
Shell pairs after pre-screening             ...     23534
Total number of primitive shell pairs       ...     85876
Primitive shell pairs kept                  ...     48404
          la=0 lb=0:   7158 shell pairs
          la=1 lb=0:   7101 shell pairs
          la=1 lb=1:   1813 shell pairs
          la=2 lb=0:   3026 shell pairs
          la=2 lb=1:   1520 shell pairs
          la=2 lb=2:    342 shell pairs
          la=3 lb=0:   1432 shell pairs
          la=3 lb=1:    737 shell pairs
          la=3 lb=2:    320 shell pairs
          la=3 lb=3:     85 shell pairs

Calculating one electron integrals          ... done (  0.0 sec)
Calculating RI/J V-Matrix + Cholesky decomp.... done (  0.1 sec)
Calculating Nuclear repulsion               ... done (  0.0 sec) ENN=   1207.154685178926 Eh

SHARK setup successfully completed in   0.9 seconds

Maximum memory used throughout the entire GTOINT-calculation: 35.6 MB


           ************************************************************
           *        Program running with 18 parallel MPI-processes    *
           *              working on a common directory               *
           ************************************************************
-------------------------------------------------------------------------------
                                 ORCA SCF
-------------------------------------------------------------------------------

------------
SCF SETTINGS
------------
Hamiltonian:
 Density Functional     Method          .... DFT(GTOs)
 Exchange Functional    Exchange        .... PBE
   PBE kappa parameter   XKappa         ....  0.804000
   PBE mue parameter    XMuePBE         ....  0.219520
 Correlation Functional Correlation     .... PBE
   PBE beta parameter  CBetaPBE         ....  0.066725
 LDA part of GGA corr.  LDAOpt          .... PW91-LDA
 Gradients option       PostSCFGGA      .... off
 Hybrid DFT is turned on
   Fraction HF Exchange ScalHFX         ....  0.250000
   Scaling of DF-GGA-X  ScalDFX         ....  0.750000
   Scaling of DF-GGA-C  ScalDFC         ....  1.000000
   Scaling of DF-LDA-C  ScalLDAC        ....  1.000000
   Perturbative correction              ....  0.000000
   Density functional embedding theory  .... OFF
   NL short-range parameter             ....  6.900000
 RI-approximation to the Coulomb term is turned on
   Number of AuxJ basis functions       .... 919
   RIJ-COSX (HFX calculated with COS-X)).... on


General Settings:
 Integral files         IntName         .... PBE0_D2_wb97
 Hartree-Fock type      HFTyp           .... RHF
 Total Charge           Charge          ....    0
 Multiplicity           Mult            ....    1
 Number of Electrons    NEL             ....  122
 Basis Dimension        Dim             ....  566
 Nuclear Repulsion      ENuc            ....   1207.1546851789 Eh

Convergence Acceleration:
 DIIS                   CNVDIIS         .... on
   Start iteration      DIISMaxIt       ....    12
   Startup error        DIISStart       ....  0.200000
   # of expansion vecs  DIISMaxEq       ....     5
   Bias factor          DIISBfac        ....   1.050
   Max. coefficient     DIISMaxC        ....  10.000
 Trust-Rad. Augm. Hess. CNVTRAH         .... auto
   Auto Start mean grad. ratio tolernc. ....  1.125000
   Auto Start start iteration           ....    20
   Auto Start num. interpolation iter.  ....    10
   Max. Number of Micro iterations      ....    16
   Max. Number of Macro iterations      .... Maxiter - #DIIS iter
   Number of Davidson start vectors     ....     2
   Converg. threshold I  (grad. norm)   ....   1.000e-05
   Converg. threshold II (energy diff.) ....   1.000e-08
   Grad. Scal. Fac. for Micro threshold ....   0.100
   Minimum threshold for Micro iter.    ....   0.010
   NR start threshold (gradient norm)   ....   0.001
   Initial trust radius                 ....   0.400
   Minimum AH scaling param. (alpha)    ....   1.000
   Maximum AH scaling param. (alpha)    .... 1000.000
   Orbital update algorithm             .... Taylor
   White noise on init. David. guess    .... on
   Maximum white noise                  ....   0.010
   Quad. conv. algorithm                .... NR
 SOSCF                  CNVSOSCF        .... on
   Start iteration      SOSCFMaxIt      ....   150
   Startup grad/error   SOSCFStart      ....  0.003300
 Level Shifting         CNVShift        .... on
   Level shift para.    LevelShift      ....    0.2500
   Turn off err/grad.   ShiftErr        ....    0.0010
 Zerner damping         CNVZerner       .... off
 Static damping         CNVDamp         .... on
   Fraction old density DampFac         ....    0.7000
   Max. Damping (<1)    DampMax         ....    0.9800
   Min. Damping (>=0)   DampMin         ....    0.0000
   Turn off err/grad.   DampErr         ....    0.1000
 Fernandez-Rico         CNVRico         .... off

SCF Procedure:
 Maximum # iterations   MaxIter         ....   150
 SCF integral mode      SCFMode         .... Direct
   Integral package                     .... SHARK and LIBINT hybrid scheme
 Reset frequency        DirectResetFreq ....    20
 Integral Threshold     Thresh          ....  2.500e-11 Eh
 Primitive CutOff       TCut            ....  2.500e-12 Eh

Convergence Tolerance:
 Convergence Check Mode ConvCheckMode   .... Total+1el-Energy
 Convergence forced     ConvForced      .... 0
 Energy Change          TolE            ....  1.000e-08 Eh
 1-El. energy change                    ....  1.000e-05 Eh
 Orbital Gradient       TolG            ....  1.000e-05
 Orbital Rotation angle TolX            ....  1.000e-05
 DIIS Error             TolErr          ....  5.000e-07


Diagonalization of the overlap matrix:
Smallest eigenvalue                        ... 8.353e-05
Time for diagonalization                   ...    0.093 sec
Threshold for overlap eigenvalues          ... 1.000e-08
Number of eigenvalues below threshold      ... 0
Time for construction of square roots      ...    0.250 sec
Total time needed                          ...    0.346 sec

Time for model grid setup =    0.227 sec

------------------------------
INITIAL GUESS: MODEL POTENTIAL
------------------------------
Loading Hartree-Fock densities                     ... done
Calculating cut-offs                               ... done
Initializing the effective Hamiltonian             ... done
Setting up the integral package (SHARK)            ... done
Starting the Coulomb interaction                   ... done (   0.3 sec)
Reading the grid                                   ... done
Mapping shells                                     ... done
Starting the XC term evaluation                    ... done (   0.2 sec)
  promolecular density results
     # of electrons  =    121.986115163
     EX              =   -108.811972462
     EC              =     -4.202131923
     EX+EC           =   -113.014104385
Transforming the Hamiltonian                       ... done (   0.1 sec)
Diagonalizing the Hamiltonian                      ... done (   0.1 sec)
Back transforming the eigenvectors                 ... done (   0.0 sec)
Now organizing SCF variables                       ... done
                      ------------------
                      INITIAL GUESS DONE (   0.9 sec)
                      ------------------
-------------------
DFT GRID GENERATION
-------------------

General Integration Accuracy     IntAcc      ... 4.388
Radial Grid Type                 RadialGrid  ... OptM3 with GC (2021)
Angular Grid (max. ang.)         AngularGrid ... 4 (Lebedev-302)
Angular grid pruning method      GridPruning ... 4 (adaptive)
Weight generation scheme         WeightScheme... Becke
Basis function cutoff            BFCut       ... 1.0000e-11
Integration weight cutoff        WCut        ... 1.0000e-14
Angular grids for H and He will be reduced by one unit
Partially contracted basis set               ... off
Rotationally invariant grid construction     ... off

Total number of grid points                  ...   151045
Total number of batches                      ...     2380
Average number of points per batch           ...       63
Average number of grid points per atom       ...     4316
Time for grid setup =    1.222 sec

--------------------
COSX GRID GENERATION
--------------------

GRIDX 1
-------
General Integration Accuracy     IntAcc      ... 3.816
Radial Grid Type                 RadialGrid  ... OptM3 with GC (2021)
Angular Grid (max. ang.)         AngularGrid ... 1 (Lebedev-50)
Angular grid pruning method      GridPruning ... 4 (adaptive)
Weight generation scheme         WeightScheme... Becke
Basis function cutoff            BFCut       ... 1.0000e-11
Integration weight cutoff        WCut        ... 1.0000e-14
Angular grids for H and He will be reduced by one unit
Partially contracted basis set               ... on
Rotationally invariant grid construction     ... off

Total number of grid points                  ...    19177
Total number of batches                      ...      323
Average number of points per batch           ...       59
Average number of grid points per atom       ...      548
UseSFitting                                  ... on

GRIDX 2
-------
General Integration Accuracy     IntAcc      ... 4.020
Radial Grid Type                 RadialGrid  ... OptM3 with GC (2021)
Angular Grid (max. ang.)         AngularGrid ... 2 (Lebedev-110)
Angular grid pruning method      GridPruning ... 4 (adaptive)
Weight generation scheme         WeightScheme... Becke
Basis function cutoff            BFCut       ... 1.0000e-11
Integration weight cutoff        WCut        ... 1.0000e-14
Angular grids for H and He will be reduced by one unit
Partially contracted basis set               ... on
Rotationally invariant grid construction     ... off

Total number of grid points                  ...    40088
Total number of batches                      ...      646
Average number of points per batch           ...       62
Average number of grid points per atom       ...     1145
UseSFitting                                  ... on

GRIDX 3
-------
General Integration Accuracy     IntAcc      ... 4.338
Radial Grid Type                 RadialGrid  ... OptM3 with GC (2021)
Angular Grid (max. ang.)         AngularGrid ... 3 (Lebedev-194)
Angular grid pruning method      GridPruning ... 4 (adaptive)
Weight generation scheme         WeightScheme... Becke
Basis function cutoff            BFCut       ... 1.0000e-11
Integration weight cutoff        WCut        ... 1.0000e-14
Angular grids for H and He will be reduced by one unit
Partially contracted basis set               ... on
Rotationally invariant grid construction     ... off

Total number of grid points                  ...    87622
Total number of batches                      ...     1388
Average number of points per batch           ...       63
Average number of grid points per atom       ...     2503
UseSFitting                                  ... on

Time for X-Grid setup             =    1.285 sec

--------------
SCF ITERATIONS
--------------
ITER       Energy         Delta-E        Max-DP      RMS-DP      [F,P]     Damp
               ***  Starting incremental Fock matrix formation  ***
  0  -1040.8927323557   0.000000000000 0.14897181  0.00089928  0.2885781 0.7000
  1  -1041.1935906887  -0.300858332929 0.05836116  0.00060227  0.1098433 0.7000
                               ***Turning on DIIS***
  2  -1041.3015752086  -0.107984519960 0.04390047  0.00092558  0.0448057 0.0000
  3  -1041.4847853841  -0.183210175472 0.04873802  0.00044069  0.0578264 0.0000
  4  -1041.5210708127  -0.036285428619 0.02089068  0.00015296  0.0166055 0.0000
  5  -1041.5235954085  -0.002524595818 0.00517537  0.00005678  0.0094712 0.0000
                      *** Initiating the SOSCF procedure ***
                           *** Shutting down DIIS ***
                      *** Re-Reading the Fockian *** 
                      *** Removing any level shift *** 
ITER      Energy       Delta-E        Grad      Rot      Max-DP    RMS-DP
  6  -1041.52383030  -0.0002348865  0.000230  0.000230  0.001633  0.000023
               *** Restarting incremental Fock matrix formation ***
  7  -1041.52380654   0.0000237581  0.000133  0.000413  0.000914  0.000015
  8  -1041.52380746  -0.0000009235  0.000078  0.000129  0.000374  0.000006
  9  -1041.52380812  -0.0000006617  0.000042  0.000078  0.000298  0.000004
 10  -1041.52380821  -0.0000000904  0.000019  0.000025  0.000054  0.000001
 11  -1041.52380826  -0.0000000504  0.000014  0.000028  0.000065  0.000001
 12  -1041.52380827  -0.0000000026  0.000006  0.000005  0.000019  0.000000
 13  -1041.52380827   0.0000000002  0.000003  0.000003  0.000016  0.000000
 14  -1041.52380827  -0.0000000003  0.000003  0.000002  0.000008  0.000000
                  ***Gradient check signals convergence***
              ***Rediagonalizing the Fockian in SOSCF/NRSCF***

               *****************************************************
               *                     SUCCESS                       *
               *           SCF CONVERGED AFTER  15 CYCLES          *
               *****************************************************

Old exchange energy                            =    -27.807396384 Eh
New exchange energy                            =    -27.807378729 Eh
Exchange energy change after final integration =      0.000017654 Eh
Total energy after final integration           =  -1041.523790625 Eh
Final COS-X integration done in                =     6.688 sec

----------------
TOTAL SCF ENERGY
----------------

Total Energy       :        -1041.52379062 Eh          -28341.30319 eV

Components:
Nuclear Repulsion  :         1207.15468518 Eh           32848.34896 eV
Electronic Energy  :        -2248.67847580 Eh          -61189.65215 eV
One Electron Energy:        -3825.28393412 Eh         -104091.26775 eV
Two Electron Energy:         1576.60545832 Eh           42901.61560 eV
Max COSX asymmetry :            0.00000234 Eh               0.00006 eV

Virial components:
Potential Energy   :        -2080.03069956 Eh          -56600.51285 eV
Kinetic Energy     :         1038.50690893 Eh           28259.20966 eV
Virial Ratio       :            2.00290502


DFT components:
N(Alpha)           :       61.000049793544 electrons
N(Beta)            :       61.000049793544 electrons
N(Total)           :      122.000099587089 electrons
E(X)               :      -83.080125852508 Eh       
E(C)               :       -4.183571644399 Eh       
E(XC)              :      -87.263697496907 Eh       
DFET-embed. en.    :        0.000000000000 Eh       

---------------
SCF CONVERGENCE
---------------

  Last Energy change         ...   -1.3395e-08  Tolerance :   1.0000e-08
  Last MAX-Density change    ...    3.1086e-15  Tolerance :   1.0000e-07
  Last RMS-Density change    ...    1.5598e-17  Tolerance :   5.0000e-09
  Last Orbital Gradient      ...    9.4315e-07  Tolerance :   1.0000e-05
  Last Orbital Rotation      ...    1.9533e-06  Tolerance :   1.0000e-05

             **** THE GBW FILE WAS UPDATED (PBE0_D2_wb97.gbw) ****
             **** DENSITY PBE0_D2_wb97.scfp WAS UPDATED ****
             **** ENERGY FILE WAS UPDATED (PBE0_D2_wb97.en.tmp) ****
             **** THE GBW FILE WAS UPDATED (PBE0_D2_wb97.gbw) ****
             **** DENSITY PBE0_D2_wb97.scfp WAS UPDATED ****
----------------
ORBITAL ENERGIES
----------------

  NO   OCC          E(Eh)            E(eV) 
   0   2.0000     -89.265113     -2429.0272 
   1   2.0000     -24.878560      -676.9800 
   2   2.0000     -19.225647      -523.1565 
   3   2.0000     -19.214699      -522.8585 
   4   2.0000     -10.285674      -279.8874 
   5   2.0000     -10.247616      -278.8518 
   6   2.0000     -10.229940      -278.3708 
   7   2.0000     -10.220197      -278.1057 
   8   2.0000     -10.215328      -277.9732 
   9   2.0000     -10.209370      -277.8111 
  10   2.0000     -10.203886      -277.6618 
  11   2.0000     -10.201036      -277.5843 
  12   2.0000     -10.194561      -277.4081 
  13   2.0000     -10.145739      -276.0796 
  14   2.0000      -8.211500      -223.4463 
  15   2.0000      -6.151839      -167.4000 
  16   2.0000      -6.145619      -167.2308 
  17   2.0000      -6.145186      -167.2190 
  18   2.0000      -1.394613       -37.9493 
  19   2.0000      -1.142731       -31.0953 
  20   2.0000      -1.047938       -28.5158 
  21   2.0000      -0.866170       -23.5697 
  22   2.0000      -0.837190       -22.7811 
  23   2.0000      -0.810252       -22.0481 
  24   2.0000      -0.783412       -21.3177 
  25   2.0000      -0.743132       -20.2216 
  26   2.0000      -0.727320       -19.7914 
  27   2.0000      -0.688142       -18.7253 
  28   2.0000      -0.653125       -17.7724 
  29   2.0000      -0.638037       -17.3619 
  30   2.0000      -0.599287       -16.3074 
  31   2.0000      -0.594168       -16.1681 
  32   2.0000      -0.589337       -16.0367 
  33   2.0000      -0.575634       -15.6638 
  34   2.0000      -0.560315       -15.2470 
  35   2.0000      -0.517407       -14.0794 
  36   2.0000      -0.499715       -13.5979 
  37   2.0000      -0.490468       -13.3463 
  38   2.0000      -0.484247       -13.1770 
  39   2.0000      -0.478152       -13.0112 
  40   2.0000      -0.458607       -12.4793 
  41   2.0000      -0.447014       -12.1639 
  42   2.0000      -0.444409       -12.0930 
  43   2.0000      -0.440128       -11.9765 
  44   2.0000      -0.419393       -11.4123 
  45   2.0000      -0.412015       -11.2115 
  46   2.0000      -0.401300       -10.9199 
  47   2.0000      -0.394708       -10.7405 
  48   2.0000      -0.385647       -10.4940 
  49   2.0000      -0.376407       -10.2426 
  50   2.0000      -0.369528       -10.0554 
  51   2.0000      -0.356930        -9.7126 
  52   2.0000      -0.349935        -9.5222 
  53   2.0000      -0.345947        -9.4137 
  54   2.0000      -0.340107        -9.2548 
  55   2.0000      -0.337143        -9.1741 
  56   2.0000      -0.329985        -8.9793 
  57   2.0000      -0.324182        -8.8214 
  58   2.0000      -0.312454        -8.5023 
  59   2.0000      -0.310258        -8.4425 
  60   2.0000      -0.297661        -8.0998 
  61   0.0000       0.023024         0.6265 
  62   0.0000       0.029701         0.8082 
  63   0.0000       0.048781         1.3274 
  64   0.0000       0.052135         1.4187 
  65   0.0000       0.059375         1.6157 
  66   0.0000       0.062911         1.7119 
  67   0.0000       0.073459         1.9989 
  68   0.0000       0.079740         2.1698 
  69   0.0000       0.083957         2.2846 
  70   0.0000       0.092208         2.5091 
  71   0.0000       0.096756         2.6329 
  72   0.0000       0.103529         2.8172 
  73   0.0000       0.112474         3.0606 
  74   0.0000       0.116504         3.1702 
  75   0.0000       0.118947         3.2367 
  76   0.0000       0.129767         3.5311 
  77   0.0000       0.133780         3.6403 
  78   0.0000       0.136210         3.7065 
  79   0.0000       0.139852         3.8056 
  80   0.0000       0.143517         3.9053 
  81   0.0000       0.154468         4.2033 
  82   0.0000       0.161348         4.3905 
  83   0.0000       0.178204         4.8492 
  84   0.0000       0.183219         4.9856 
  85   0.0000       0.185795         5.0557 
  86   0.0000       0.187590         5.1046 
  87   0.0000       0.193910         5.2766 
  88   0.0000       0.203799         5.5457 
  89   0.0000       0.208979         5.6866 
  90   0.0000       0.225607         6.1391 
  91   0.0000       0.228007         6.2044 
  92   0.0000       0.232939         6.3386 
  93   0.0000       0.236524         6.4361 
  94   0.0000       0.239318         6.5122 
  95   0.0000       0.248247         6.7551 
  96   0.0000       0.253899         6.9089 
  97   0.0000       0.262127         7.1328 
  98   0.0000       0.265429         7.2227 
  99   0.0000       0.271687         7.3930 
 100   0.0000       0.279821         7.6143 
 101   0.0000       0.288767         7.8578 
 102   0.0000       0.303295         8.2531 
 103   0.0000       0.307923         8.3790 
 104   0.0000       0.312524         8.5042 
 105   0.0000       0.320036         8.7086 
 106   0.0000       0.327443         8.9102 
 107   0.0000       0.334726         9.1084 
 108   0.0000       0.338166         9.2020 
 109   0.0000       0.349091         9.4993 
 110   0.0000       0.360625         9.8131 
 111   0.0000       0.368950        10.0396 
 112   0.0000       0.378488        10.2992 
 113   0.0000       0.385531        10.4908 
 114   0.0000       0.397209        10.8086 
 115   0.0000       0.406760        11.0685 
 116   0.0000       0.412290        11.2190 
 117   0.0000       0.412879        11.2350 
 118   0.0000       0.415586        11.3087 
 119   0.0000       0.421085        11.4583 
 120   0.0000       0.423392        11.5211 
 121   0.0000       0.433604        11.7990 
 122   0.0000       0.438612        11.9352 
 123   0.0000       0.442317        12.0360 
 124   0.0000       0.448079        12.1929 
 125   0.0000       0.450435        12.2569 
 126   0.0000       0.454780        12.3752 
 127   0.0000       0.457424        12.4471 
 128   0.0000       0.460990        12.5442 
 129   0.0000       0.462296        12.5797 
 130   0.0000       0.467011        12.7080 
 131   0.0000       0.473035        12.8719 
 132   0.0000       0.478304        13.0153 
 133   0.0000       0.480846        13.0845 
 134   0.0000       0.483080        13.1453 
 135   0.0000       0.484756        13.1909 
 136   0.0000       0.491002        13.3608 
 137   0.0000       0.496069        13.4987 
 138   0.0000       0.500522        13.6199 
 139   0.0000       0.505868        13.7654 
 140   0.0000       0.509726        13.8703 
 141   0.0000       0.515339        14.0231 
 142   0.0000       0.516903        14.0656 
 143   0.0000       0.527068        14.3422 
 144   0.0000       0.532410        14.4876 
 145   0.0000       0.534855        14.5541 
 146   0.0000       0.541835        14.7441 
 147   0.0000       0.552410        15.0319 
 148   0.0000       0.564550        15.3622 
 149   0.0000       0.573421        15.6036 
 150   0.0000       0.581020        15.8103 
 151   0.0000       0.601348        16.3635 
 152   0.0000       0.608360        16.5543 
 153   0.0000       0.617518        16.8035 
 154   0.0000       0.622033        16.9264 
 155   0.0000       0.628323        17.0975 
 156   0.0000       0.634489        17.2653 
 157   0.0000       0.642932        17.4951 
 158   0.0000       0.655405        17.8345 
 159   0.0000       0.664973        18.0948 
 160   0.0000       0.671985        18.2856 
 161   0.0000       0.684162        18.6170 
 162   0.0000       0.697371        18.9764 
 163   0.0000       0.716053        19.4848 
 164   0.0000       0.728071        19.8118 
 165   0.0000       0.736639        20.0450 
 166   0.0000       0.747717        20.3464 
 167   0.0000       0.761762        20.7286 
 168   0.0000       0.771191        20.9852 
 169   0.0000       0.783446        21.3186 
 170   0.0000       0.797267        21.6948 
 171   0.0000       0.802555        21.8386 
 172   0.0000       0.803861        21.8742 
 173   0.0000       0.812433        22.1074 
 174   0.0000       0.842545        22.9268 
 175   0.0000       0.851868        23.1805 
 176   0.0000       0.858233        23.3537 
 177   0.0000       0.867277        23.5998 
 178   0.0000       0.879249        23.9256 
 179   0.0000       0.887361        24.1463 
 180   0.0000       0.888418        24.1751 
 181   0.0000       0.893092        24.3023 
 182   0.0000       0.906863        24.6770 
 183   0.0000       0.917364        24.9627 
 184   0.0000       0.920232        25.0408 
 185   0.0000       0.937780        25.5183 
 186   0.0000       0.945338        25.7239 
 187   0.0000       0.956501        26.0277 
 188   0.0000       0.965103        26.2618 
 189   0.0000       0.974221        26.5099 
 190   0.0000       0.981844        26.7173 
 191   0.0000       0.993209        27.0266 
 192   0.0000       1.001271        27.2460 
 193   0.0000       1.018020        27.7017 
 194   0.0000       1.040454        28.3122 
 195   0.0000       1.048370        28.5276 
 196   0.0000       1.059680        28.8353 
 197   0.0000       1.064482        28.9660 
 198   0.0000       1.083938        29.4954 
 199   0.0000       1.089325        29.6420 
 200   0.0000       1.090354        29.6701 
 201   0.0000       1.104228        30.0476 
 202   0.0000       1.118514        30.4363 
 203   0.0000       1.124508        30.5994 
 204   0.0000       1.138603        30.9830 
 205   0.0000       1.143668        31.1208 
 206   0.0000       1.159406        31.5490 
 207   0.0000       1.166027        31.7292 
 208   0.0000       1.173844        31.9419 
 209   0.0000       1.184091        32.2208 
 210   0.0000       1.206178        32.8218 
 211   0.0000       1.215614        33.0785 
 212   0.0000       1.220889        33.2221 
 213   0.0000       1.238009        33.6879 
 214   0.0000       1.247289        33.9405 
 215   0.0000       1.250744        34.0345 
 216   0.0000       1.255903        34.1749 
 217   0.0000       1.265690        34.4412 
 218   0.0000       1.284936        34.9649 
 219   0.0000       1.298002        35.3204 
 220   0.0000       1.308538        35.6071 
 221   0.0000       1.318776        35.8857 
 222   0.0000       1.326172        36.0870 
 223   0.0000       1.341275        36.4979 
 224   0.0000       1.352204        36.7953 
 225   0.0000       1.375405        37.4267 
 226   0.0000       1.384206        37.6662 
 227   0.0000       1.397211        38.0200 
 228   0.0000       1.406088        38.2616 
 229   0.0000       1.436523        39.0898 
 230   0.0000       1.446978        39.3743 
 231   0.0000       1.475656        40.1547 
 232   0.0000       1.484757        40.4023 
 233   0.0000       1.513735        41.1908 
 234   0.0000       1.526122        41.5279 
 235   0.0000       1.541062        41.9344 
 236   0.0000       1.543411        41.9984 
 237   0.0000       1.553082        42.2615 
 238   0.0000       1.568424        42.6790 
 239   0.0000       1.571767        42.7700 
 240   0.0000       1.575504        42.8716 
 241   0.0000       1.581750        43.0416 
 242   0.0000       1.592348        43.3300 
 243   0.0000       1.599514        43.5250 
 244   0.0000       1.605383        43.6847 
 245   0.0000       1.612022        43.8654 
 246   0.0000       1.614978        43.9458 
 247   0.0000       1.625579        44.2343 
 248   0.0000       1.626079        44.2479 
 249   0.0000       1.633208        44.4418 
 250   0.0000       1.645774        44.7838 
 251   0.0000       1.651186        44.9310 
 252   0.0000       1.659313        45.1522 
 253   0.0000       1.663766        45.2734 
 254   0.0000       1.675136        45.5828 
 255   0.0000       1.681350        45.7519 
 256   0.0000       1.692491        46.0550 
 257   0.0000       1.695336        46.1324 
 258   0.0000       1.708743        46.4973 
 259   0.0000       1.715638        46.6849 
 260   0.0000       1.734792        47.2061 
 261   0.0000       1.747399        47.5491 
 262   0.0000       1.757877        47.8343 
 263   0.0000       1.768286        48.1175 
 264   0.0000       1.786758        48.6201 
 265   0.0000       1.790717        48.7279 
 266   0.0000       1.800173        48.9852 
 267   0.0000       1.812220        49.3130 
 268   0.0000       1.813933        49.3596 
 269   0.0000       1.829936        49.7951 
 270   0.0000       1.841082        50.0984 
 271   0.0000       1.859675        50.6043 
 272   0.0000       1.865625        50.7662 
 273   0.0000       1.878721        51.1226 
 274   0.0000       1.893526        51.5255 
 275   0.0000       1.897741        51.6402 
 276   0.0000       1.904326        51.8194 
 277   0.0000       1.918721        52.2110 
 278   0.0000       1.937028        52.7092 
 279   0.0000       1.943914        52.8966 
 280   0.0000       1.955737        53.2183 
 281   0.0000       1.968794        53.5736 
 282   0.0000       1.986493        54.0552 
 283   0.0000       1.995089        54.2891 
 284   0.0000       2.003289        54.5123 
 285   0.0000       2.014315        54.8123 
 286   0.0000       2.026103        55.1331 
 287   0.0000       2.036509        55.4162 
 288   0.0000       2.059730        56.0481 
 289   0.0000       2.060703        56.0746 
 290   0.0000       2.071780        56.3760 
 291   0.0000       2.082354        56.6637 
 292   0.0000       2.098456        57.1019 
 293   0.0000       2.109894        57.4131 
 294   0.0000       2.112023        57.4711 
 295   0.0000       2.123619        57.7866 
 296   0.0000       2.137533        58.1652 
 297   0.0000       2.151042        58.5328 
 298   0.0000       2.164189        58.8906 
 299   0.0000       2.192024        59.6480 
 300   0.0000       2.201898        59.9167 
 301   0.0000       2.209983        60.1367 
 302   0.0000       2.239735        60.9463 
 303   0.0000       2.241915        61.0056 
 304   0.0000       2.258466        61.4560 
 305   0.0000       2.262520        61.5663 
 306   0.0000       2.268435        61.7272 
 307   0.0000       2.296059        62.4789 
 308   0.0000       2.297310        62.5130 
 309   0.0000       2.320524        63.1447 
 310   0.0000       2.333336        63.4933 
 311   0.0000       2.337649        63.6107 
 312   0.0000       2.358043        64.1656 
 313   0.0000       2.365286        64.3627 
 314   0.0000       2.372024        64.5460 
 315   0.0000       2.384949        64.8978 
 316   0.0000       2.394502        65.1577 
 317   0.0000       2.399364        65.2900 
 318   0.0000       2.413247        65.6678 
 319   0.0000       2.434391        66.2431 
 320   0.0000       2.447689        66.6050 
 321   0.0000       2.454597        66.7930 
 322   0.0000       2.456603        66.8476 
 323   0.0000       2.464835        67.0716 
 324   0.0000       2.478881        67.4538 
 325   0.0000       2.486069        67.6494 
 326   0.0000       2.498066        67.9758 
 327   0.0000       2.505038        68.1656 
 328   0.0000       2.512663        68.3730 
 329   0.0000       2.523700        68.6734 
 330   0.0000       2.535177        68.9857 
 331   0.0000       2.544638        69.2431 
 332   0.0000       2.565400        69.8081 
 333   0.0000       2.571646        69.9780 
 334   0.0000       2.572736        70.0077 
 335   0.0000       2.576911        70.1213 
 336   0.0000       2.582898        70.2842 
 337   0.0000       2.597913        70.6928 
 338   0.0000       2.603061        70.8329 
 339   0.0000       2.613189        71.1085 
 340   0.0000       2.621885        71.3451 
 341   0.0000       2.635670        71.7202 
 342   0.0000       2.642964        71.9187 
 343   0.0000       2.646785        72.0227 
 344   0.0000       2.653825        72.2142 
 345   0.0000       2.663540        72.4786 
 346   0.0000       2.669259        72.6342 
 347   0.0000       2.678569        72.8876 
 348   0.0000       2.681268        72.9610 
 349   0.0000       2.686801        73.1116 
 350   0.0000       2.695196        73.3400 
 351   0.0000       2.702817        73.5474 
 352   0.0000       2.709968        73.7420 
 353   0.0000       2.718999        73.9877 
 354   0.0000       2.726786        74.1996 
 355   0.0000       2.729986        74.2867 
 356   0.0000       2.733057        74.3703 
 357   0.0000       2.747446        74.7618 
 358   0.0000       2.754657        74.9580 
 359   0.0000       2.760094        75.1060 
 360   0.0000       2.769211        75.3541 
 361   0.0000       2.779739        75.6405 
 362   0.0000       2.788846        75.8884 
 363   0.0000       2.797010        76.1105 
 364   0.0000       2.800768        76.2128 
 365   0.0000       2.812367        76.5284 
 366   0.0000       2.815135        76.6037 
 367   0.0000       2.822881        76.8145 
 368   0.0000       2.830852        77.0314 
 369   0.0000       2.841347        77.3170 
 370   0.0000       2.854039        77.6624 
 371   0.0000       2.861288        77.8596 
 372   0.0000       2.877575        78.3028 
 373   0.0000       2.888836        78.6092 
 374   0.0000       2.907222        79.1095 
 375   0.0000       2.929780        79.7234 
 376   0.0000       2.934692        79.8570 
 377   0.0000       2.944905        80.1349 
 378   0.0000       2.967063        80.7379 
 379   0.0000       2.988621        81.3245 
 380   0.0000       2.996132        81.5289 
 381   0.0000       3.010983        81.9330 
 382   0.0000       3.022751        82.2532 
 383   0.0000       3.041855        82.7731 
 384   0.0000       3.060098        83.2695 
 385   0.0000       3.084079        83.9220 
 386   0.0000       3.102727        84.4295 
 387   0.0000       3.110450        84.6396 
 388   0.0000       3.115711        84.7828 
 389   0.0000       3.117222        84.8239 
 390   0.0000       3.131820        85.2212 
 391   0.0000       3.143204        85.5309 
 392   0.0000       3.153436        85.8093 
 393   0.0000       3.163179        86.0745 
 394   0.0000       3.174763        86.3897 
 395   0.0000       3.190761        86.8250 
 396   0.0000       3.201556        87.1188 
 397   0.0000       3.216069        87.5137 
 398   0.0000       3.223066        87.7041 
 399   0.0000       3.228044        87.8396 
 400   0.0000       3.239080        88.1398 
 401   0.0000       3.243178        88.2513 
 402   0.0000       3.256385        88.6107 
 403   0.0000       3.271065        89.0102 
 404   0.0000       3.281601        89.2969 
 405   0.0000       3.285283        89.3971 
 406   0.0000       3.292125        89.5833 
 407   0.0000       3.305216        89.9395 
 408   0.0000       3.315127        90.2092 
 409   0.0000       3.325268        90.4851 
 410   0.0000       3.338072        90.8336 
 411   0.0000       3.345050        91.0234 
 412   0.0000       3.355795        91.3158 
 413   0.0000       3.365652        91.5841 
 414   0.0000       3.371189        91.7347 
 415   0.0000       3.385549        92.1255 
 416   0.0000       3.395982        92.4094 
 417   0.0000       3.398327        92.4732 
 418   0.0000       3.404141        92.6314 
 419   0.0000       3.427669        93.2716 
 420   0.0000       3.431852        93.3854 
 421   0.0000       3.440147        93.6112 
 422   0.0000       3.452399        93.9446 
 423   0.0000       3.458665        94.1151 
 424   0.0000       3.466963        94.3409 
 425   0.0000       3.472234        94.4843 
 426   0.0000       3.489104        94.9433 
 427   0.0000       3.497456        95.1706 
 428   0.0000       3.507787        95.4517 
 429   0.0000       3.513651        95.6113 
 430   0.0000       3.529099        96.0317 
 431   0.0000       3.540554        96.3434 
 432   0.0000       3.550367        96.6104 
 433   0.0000       3.562233        96.9333 
 434   0.0000       3.569817        97.1397 
 435   0.0000       3.580982        97.4435 
 436   0.0000       3.587718        97.6268 
 437   0.0000       3.603536        98.0572 
 438   0.0000       3.613307        98.3231 
 439   0.0000       3.615257        98.3762 
 440   0.0000       3.623568        98.6023 
 441   0.0000       3.644276        99.1658 
 442   0.0000       3.655288        99.4654 
 443   0.0000       3.671191        99.8982 
 444   0.0000       3.691060       100.4388 
 445   0.0000       3.696942       100.5989 
 446   0.0000       3.719298       101.2072 
 447   0.0000       3.741391       101.8084 
 448   0.0000       3.750735       102.0627 
 449   0.0000       3.769335       102.5688 
 450   0.0000       3.794537       103.2546 
 451   0.0000       3.820016       103.9479 
 452   0.0000       3.824990       104.0833 
 453   0.0000       3.860398       105.0468 
 454   0.0000       3.885206       105.7218 
 455   0.0000       3.904365       106.2432 
 456   0.0000       3.909693       106.3881 
 457   0.0000       3.917406       106.5980 
 458   0.0000       3.933293       107.0304 
 459   0.0000       3.941296       107.2481 
 460   0.0000       3.954108       107.5968 
 461   0.0000       3.972284       108.0914 
 462   0.0000       3.981008       108.3287 
 463   0.0000       4.001179       108.8776 
 464   0.0000       4.010442       109.1297 
 465   0.0000       4.030081       109.6641 
 466   0.0000       4.033976       109.7701 
 467   0.0000       4.042115       109.9915 
 468   0.0000       4.056773       110.3904 
 469   0.0000       4.075233       110.8927 
 470   0.0000       4.084027       111.1320 
 471   0.0000       4.101127       111.5973 
 472   0.0000       4.123310       112.2010 
 473   0.0000       4.141197       112.6877 
 474   0.0000       4.172188       113.5310 
 475   0.0000       4.194478       114.1375 
 476   0.0000       4.218604       114.7941 
 477   0.0000       4.228398       115.0605 
 478   0.0000       4.249555       115.6363 
 479   0.0000       4.262590       115.9910 
 480   0.0000       4.319264       117.5331 
 481   0.0000       4.331965       117.8788 
 482   0.0000       4.345117       118.2366 
 483   0.0000       4.400692       119.7489 
 484   0.0000       4.418814       120.2420 
 485   0.0000       4.428125       120.4954 
 486   0.0000       4.460660       121.3807 
 487   0.0000       4.483764       122.0094 
 488   0.0000       4.511144       122.7545 
 489   0.0000       4.521991       123.0496 
 490   0.0000       4.574017       124.4653 
 491   0.0000       4.585590       124.7802 
 492   0.0000       4.603111       125.2570 
 493   0.0000       4.627382       125.9175 
 494   0.0000       4.644349       126.3792 
 495   0.0000       4.657948       126.7492 
 496   0.0000       4.691030       127.6494 
 497   0.0000       4.707129       128.0875 
 498   0.0000       4.711935       128.2183 
 499   0.0000       4.736384       128.8836 
 500   0.0000       4.753172       129.3404 
 501   0.0000       4.793239       130.4307 
 502   0.0000       4.801784       130.6632 
 503   0.0000       4.820880       131.1828 
 504   0.0000       4.860092       132.2498 
 505   0.0000       4.892646       133.1357 
 506   0.0000       4.899902       133.3331 
 507   0.0000       4.935174       134.2929 
 508   0.0000       4.993408       135.8775 
 509   0.0000       5.017569       136.5350 
 510   0.0000       5.036936       137.0620 
 511   0.0000       5.134416       139.7146 
 512   0.0000       5.145653       140.0203 
 513   0.0000       5.150927       140.1638 
 514   0.0000       5.156739       140.3220 
 515   0.0000       5.166649       140.5917 
 516   0.0000       5.193021       141.3093 
 517   0.0000       5.193315       141.3173 
 518   0.0000       5.211592       141.8146 
 519   0.0000       5.235318       142.4603 
 520   0.0000       5.329431       145.0212 
 521   0.0000       5.384430       146.5178 
 522   0.0000       5.481365       149.1555 
 523   0.0000       5.508023       149.8809 
 524   0.0000       5.574371       151.6864 
 525   0.0000       5.624026       153.0375 
 526   0.0000       5.692547       154.9021 
 527   0.0000       6.329280       172.2285 
 528   0.0000       6.337215       172.4444 
 529   0.0000       6.423677       174.7971 
 530   0.0000       6.536969       177.8800 
 531   0.0000       6.639495       180.6699 
 532   0.0000       6.691418       182.0828 
 533   0.0000       6.732353       183.1966 
 534   0.0000       6.785777       184.6504 
 535   0.0000       6.810347       185.3190 
 536   0.0000       6.815717       185.4651 
 537   0.0000       6.843292       186.2154 
 538   0.0000       6.883620       187.3128 
 539   0.0000       6.896496       187.6632 
 540   0.0000       6.926553       188.4811 
 541   0.0000       6.969951       189.6620 
 542   0.0000       6.977796       189.8755 
 543   0.0000       7.052542       191.9094 
 544   0.0000       8.312926       226.2062 
 545   0.0000       8.423669       229.2197 
 546   0.0000       8.632986       234.9155 
 547   0.0000       8.674531       236.0460 
 548   0.0000       8.751253       238.1337 
 549   0.0000       9.403250       255.8754 
 550   0.0000       9.605006       261.3655 
 551   0.0000       9.701769       263.9986 
 552   0.0000      22.146221       602.6293 
 553   0.0000      22.504778       612.3861 
 554   0.0000      22.525039       612.9375 
 555   0.0000      22.577260       614.3585 
 556   0.0000      22.587849       614.6466 
 557   0.0000      22.616953       615.4386 
 558   0.0000      22.629691       615.7852 
 559   0.0000      22.642615       616.1369 
 560   0.0000      22.663668       616.7097 
 561   0.0000      22.680243       617.1608 
 562   0.0000      22.851090       621.8098 
 563   0.0000      43.758242      1190.7223 
 564   0.0000      43.874132      1193.8758 
 565   0.0000      57.203287      1556.5806 

                    ********************************
                    * MULLIKEN POPULATION ANALYSIS *
                    ********************************

-----------------------
MULLIKEN ATOMIC CHARGES
-----------------------
   0 C :   -0.169882
   1 C :   -0.438974
   2 C :   -0.106602
   3 C :   -0.283714
   4 S :    0.865514
   5 H :    0.099288
   6 H :    0.113266
   7 H :    0.163187
   8 O :   -0.440352
   9 F :   -0.111019
  10 H :    0.096162
  11 H :    0.077435
  12 O :   -0.405309
  13 C :   -0.264280
  14 H :    0.095591
  15 H :    0.084420
  16 C :   -0.252265
  17 H :    0.133725
  18 H :    0.098514
  19 C :   -0.131861
  20 H :    0.105581
  21 H :    0.107823
  22 C :   -0.236713
  23 H :    0.099396
  24 H :    0.098135
  25 C :   -0.283124
  26 H :    0.129109
  27 H :    0.104915
  28 C :   -0.139200
  29 H :    0.105362
  30 H :    0.102498
  31 H :    0.134068
  32 H :    0.122456
  33 H :    0.145541
  34 H :    0.181309
Sum of atomic charges:    0.0000000

--------------------------------
MULLIKEN REDUCED ORBITAL CHARGES
--------------------------------
  0 C s       :     3.150465  s :     3.150465
      pz      :     0.977579  p :     2.907896
      px      :     0.999372
      py      :     0.930945
      dz2     :     0.022364  d :     0.105557
      dxz     :     0.011481
      dyz     :     0.024361
      dx2y2   :     0.017997
      dxy     :     0.029353
      f0      :     0.000872  f :     0.005964
      f+1     :     0.000937
      f-1     :     0.000671
      f+2     :     0.001158
      f-2     :     0.000319
      f+3     :     0.001036
      f-3     :     0.000971
  1 C s       :     3.216910  s :     3.216910
      pz      :     1.013580  p :     3.160381
      px      :     1.061961
      py      :     1.084840
      dz2     :     0.023963  d :     0.058521
      dxz     :     0.008505
      dyz     :     0.006256
      dx2y2   :     0.010709
      dxy     :     0.009088
      f0      :     0.000578  f :     0.003163
      f+1     :     0.000944
      f-1     :     0.000073
      f+2     :     0.000584
      f-2     :     0.000593
      f+3     :     0.000205
      f-3     :     0.000186
  2 C s       :     3.117096  s :     3.117096
      pz      :     1.001107  p :     2.884818
      px      :     0.956310
      py      :     0.927402
      dz2     :     0.012807  d :     0.099127
      dxz     :     0.017281
      dyz     :     0.018743
      dx2y2   :     0.024034
      dxy     :     0.026262
      f0      :     0.000752  f :     0.005561
      f+1     :     0.000696
      f-1     :     0.000423
      f+2     :     0.000831
      f-2     :     0.000358
      f+3     :     0.001584
      f-3     :     0.000917
  3 C s       :     3.208299  s :     3.208299
      pz      :     0.986322  p :     2.980277
      px      :     0.968795
      py      :     1.025160
      dz2     :     0.006494  d :     0.090389
      dxz     :     0.020804
      dyz     :     0.027357
      dx2y2   :     0.014981
      dxy     :     0.020753
      f0      :     0.000231  f :     0.004750
      f+1     :     0.000360
      f-1     :     0.000808
      f+2     :     0.001429
      f-2     :     0.000610
      f+3     :     0.000825
      f-3     :     0.000487
  4 S s       :     5.372541  s :     5.372541
      pz      :     2.880315  p :     8.519155
      px      :     2.845499
      py      :     2.793340
      dz2     :     0.192036  d :     1.121651
      dxz     :     0.248403
      dyz     :     0.230101
      dx2y2   :     0.224990
      dxy     :     0.226120
      f0      :     0.012967  f :     0.121139
      f+1     :     0.016266
      f-1     :     0.020374
      f+2     :     0.019511
      f-2     :     0.016057
      f+3     :     0.018245
      f-3     :     0.017718
  5 H s       :     0.868653  s :     0.868653
      pz      :     0.006748  p :     0.032060
      px      :     0.011622
      py      :     0.013690
  6 H s       :     0.863170  s :     0.863170
      pz      :     0.010633  p :     0.023564
      px      :     0.007055
      py      :     0.005876
  7 H s       :     0.803988  s :     0.803988
      pz      :     0.006110  p :     0.032825
      px      :     0.018504
      py      :     0.008211
  8 O s       :     3.863217  s :     3.863217
      pz      :     1.617148  p :     4.540810
      px      :     1.629002
      py      :     1.294660
      dz2     :     0.004985  d :     0.034431
      dxz     :     0.002010
      dyz     :     0.009304
      dx2y2   :     0.009843
      dxy     :     0.008288
      f0      :     0.000172  f :     0.001895
      f+1     :     0.000046
      f-1     :     0.000378
      f+2     :     0.000333
      f-2     :     0.000213
      f+3     :     0.000365
      f-3     :     0.000387
  9 F s       :     3.903277  s :     3.903277
      pz      :     1.760162  p :     5.186258
      px      :     1.618992
      py      :     1.807104
      dz2     :     0.003060  d :     0.020664
      dxz     :     0.005719
      dyz     :     0.002561
      dx2y2   :     0.004401
      dxy     :     0.004923
      f0      :     0.000080  f :     0.000820
      f+1     :     0.000137
      f-1     :     0.000040
      f+2     :     0.000142
      f-2     :     0.000174
      f+3     :     0.000113
      f-3     :     0.000133
 10 H s       :     0.882466  s :     0.882466
      pz      :     0.004499  p :     0.021373
      px      :     0.010756
      py      :     0.006117
 11 H s       :     0.900558  s :     0.900558
      pz      :     0.010776  p :     0.022007
      px      :     0.005764
      py      :     0.005467
 12 O s       :     3.838764  s :     3.838764
      pz      :     1.440718  p :     4.527881
      px      :     1.553825
      py      :     1.533337
      dz2     :     0.009410  d :     0.036573
      dxz     :     0.007245
      dyz     :     0.009028
      dx2y2   :     0.005460
      dxy     :     0.005430
      f0      :     0.000311  f :     0.002091
      f+1     :     0.000246
      f-1     :     0.000425
      f+2     :     0.000405
      f-2     :     0.000416
      f+3     :     0.000130
      f-3     :     0.000158
 13 C s       :     3.200591  s :     3.200591
      pz      :     0.933789  p :     2.961366
      px      :     0.993689
      py      :     1.033887
      dz2     :     0.017217  d :     0.096825
      dxz     :     0.030637
      dyz     :     0.017358
      dx2y2   :     0.022538
      dxy     :     0.009076
      f0      :     0.001233  f :     0.005498
      f+1     :     0.001152
      f-1     :     0.000918
      f+2     :     0.000347
      f-2     :     0.000352
      f+3     :     0.000731
      f-3     :     0.000765
 14 H s       :     0.883074  s :     0.883074
      pz      :     0.011076  p :     0.021334
      px      :     0.005209
      py      :     0.005049
 15 H s       :     0.894144  s :     0.894144
      pz      :     0.007063  p :     0.021436
      px      :     0.009220
      py      :     0.005153
 16 C s       :     3.194010  s :     3.194010
      pz      :     0.947526  p :     2.954431
      px      :     0.984917
      py      :     1.021988
      dz2     :     0.018258  d :     0.098370
      dxz     :     0.030568
      dyz     :     0.018340
      dx2y2   :     0.018869
      dxy     :     0.012334
      f0      :     0.001225  f :     0.005454
      f+1     :     0.001196
      f-1     :     0.000877
      f+2     :     0.000300
      f-2     :     0.000373
      f+3     :     0.000694
      f-3     :     0.000789
 17 H s       :     0.843729  s :     0.843729
      pz      :     0.007026  p :     0.022546
      px      :     0.009908
      py      :     0.005612
 18 H s       :     0.880111  s :     0.880111
      pz      :     0.004996  p :     0.021375
      px      :     0.004558
      py      :     0.011821
 19 C s       :     3.133795  s :     3.133795
      pz      :     0.989257  p :     2.893136
      px      :     0.902824
      py      :     1.001055
      dz2     :     0.028341  d :     0.099460
      dxz     :     0.017723
      dyz     :     0.003114
      dx2y2   :     0.033262
      dxy     :     0.017021
      f0      :     0.000796  f :     0.005470
      f+1     :     0.001065
      f-1     :     0.000314
      f+2     :     0.000584
      f-2     :     0.000538
      f+3     :     0.001132
      f-3     :     0.001041
 20 H s       :     0.873128  s :     0.873128
      pz      :     0.006526  p :     0.021291
      px      :     0.008885
      py      :     0.005880
 21 H s       :     0.870063  s :     0.870063
      pz      :     0.005276  p :     0.022115
      px      :     0.004640
      py      :     0.012199
 22 C s       :     3.191602  s :     3.191602
      pz      :     1.027203  p :     2.939031
      px      :     0.997958
      py      :     0.913870
      dz2     :     0.022461  d :     0.100497
      dxz     :     0.010341
      dyz     :     0.019447
      dx2y2   :     0.021555
      dxy     :     0.026694
      f0      :     0.000887  f :     0.005583
      f+1     :     0.000643
      f-1     :     0.000492
      f+2     :     0.001028
      f-2     :     0.000280
      f+3     :     0.001306
      f-3     :     0.000948
 23 H s       :     0.879349  s :     0.879349
      pz      :     0.004470  p :     0.021255
      px      :     0.004303
      py      :     0.012481
 24 H s       :     0.880662  s :     0.880662
      pz      :     0.012264  p :     0.021202
      px      :     0.004433
      py      :     0.004505
 25 C s       :     3.208604  s :     3.208604
      pz      :     1.021910  p :     2.971680
      px      :     0.977348
      py      :     0.972422
      dz2     :     0.018380  d :     0.097208
      dxz     :     0.009750
      dyz     :     0.024238
      dx2y2   :     0.018929
      dxy     :     0.025910
      f0      :     0.000795  f :     0.005632
      f+1     :     0.000728
      f-1     :     0.000516
      f+2     :     0.001129
      f-2     :     0.000311
      f+3     :     0.001198
      f-3     :     0.000955
 26 H s       :     0.849333  s :     0.849333
      pz      :     0.011996  p :     0.021558
      px      :     0.004586
      py      :     0.004975
 27 H s       :     0.873798  s :     0.873798
      pz      :     0.005452  p :     0.021287
      px      :     0.010077
      py      :     0.005758
 28 C s       :     3.125431  s :     3.125431
      pz      :     1.015224  p :     2.908922
      px      :     0.981364
      py      :     0.912334
      dz2     :     0.016709  d :     0.099144
      dxz     :     0.015832
      dyz     :     0.023570
      dx2y2   :     0.024154
      dxy     :     0.018879
      f0      :     0.000335  f :     0.005704
      f+1     :     0.000658
      f-1     :     0.000879
      f+2     :     0.001487
      f-2     :     0.000593
      f+3     :     0.001121
      f-3     :     0.000631
 29 H s       :     0.873443  s :     0.873443
      pz      :     0.011661  p :     0.021195
      px      :     0.004264
      py      :     0.005269
 30 H s       :     0.875102  s :     0.875102
      pz      :     0.005663  p :     0.022401
      px      :     0.011069
      py      :     0.005669
 31 H s       :     0.843861  s :     0.843861
      pz      :     0.010052  p :     0.022071
      px      :     0.004586
      py      :     0.007433
 32 H s       :     0.856186  s :     0.856186
      pz      :     0.006660  p :     0.021357
      px      :     0.010464
      py      :     0.004234
 33 H s       :     0.832286  s :     0.832286
      pz      :     0.009345  p :     0.022174
      px      :     0.004481
      py      :     0.008347
 34 H s       :     0.796156  s :     0.796156
      pz      :     0.006003  p :     0.022535
      px      :     0.010880
      py      :     0.005652


                     *******************************
                     * LOEWDIN POPULATION ANALYSIS *
                     *******************************

----------------------
LOEWDIN ATOMIC CHARGES
----------------------
   0 C :   -0.306807
   1 C :   -0.339866
   2 C :   -0.268754
   3 C :   -0.365098
   4 S :    0.562295
   5 H :    0.094501
   6 H :    0.106330
   7 H :    0.105674
   8 O :   -0.267317
   9 F :    0.069006
[...]
  20 H :    0.137695
  21 H :    0.133083
  22 C :   -0.273284
  23 H :    0.138840
  24 H :    0.136687
  25 C :   -0.273682
  26 H :    0.142128
  27 H :    0.138120
  28 C :   -0.284381
  29 H :    0.137169
  30 H :    0.136879
  31 H :    0.151230
  32 H :    0.146118
  33 H :    0.140829
  34 H :    0.151805

-------------------------------
LOEWDIN REDUCED ORBITAL CHARGES
-------------------------------
  0 C s       :     2.764051  s :     2.764051
      pz      :     1.031692  p :     3.067414
      px      :     1.024788
      py      :     1.010934
      dz2     :     0.099663  d :     0.432132
      dxz     :     0.054178
      dyz     :     0.090629
      dx2y2   :     0.087530
      dxy     :     0.100132
      f0      :     0.005280  f :     0.043210
      f+1     :     0.006112
      f-1     :     0.005892
      f+2     :     0.008327
      f-2     :     0.004893
      f+3     :     0.006518
      f-3     :     0.006187
  1 C s       :     2.782395  s :     2.782395
      pz      :     1.066932  p :     3.236739
      px      :     1.080277
      py      :     1.089531
      dz2     :     0.086500  d :     0.291027
      dxz     :     0.061471
      dyz     :     0.032688
      dx2y2   :     0.046875
      dxy     :     0.063493
      f0      :     0.004755  f :     0.029705
      f+1     :     0.006276
      f-1     :     0.003122
      f+2     :     0.005251
      f-2     :     0.003600
      f+3     :     0.003354
      f-3     :     0.003347
  2 C s       :     2.775086  s :     2.775086
      pz      :     1.017382  p :     3.049217
      px      :     1.012384
      py      :     1.019451
      dz2     :     0.059941  d :     0.405742
      dxz     :     0.077844
      dyz     :     0.070567
      dx2y2   :     0.098679
      dxy     :     0.098710
      f0      :     0.004559  f :     0.038708
      f+1     :     0.003687
      f-1     :     0.003980
      f+2     :     0.006297
      f-2     :     0.004521
      f+3     :     0.010102
      f-3     :     0.005563
  3 C s       :     2.846118  s :     2.846118
      pz      :     1.034312  p :     3.125082
      px      :     1.016962
      py      :     1.073809
      dz2     :     0.032477  d :     0.362067
      dxz     :     0.089030
      dyz     :     0.096157
      dx2y2   :     0.074343
      dxy     :     0.070060
      f0      :     0.003176  f :     0.031831
      f+1     :     0.002944
      f-1     :     0.006168
      f+2     :     0.005609
      f-2     :     0.003793
      f+3     :     0.006249
      f-3     :     0.003892
  4 S s       :     4.759931  s :     4.759931
      pz      :     2.880353  p :     8.558466
      px      :     2.828114
      py      :     2.849999
      dz2     :     0.278456  d :     1.749421
      dxz     :     0.411435
      dyz     :     0.369029
      dx2y2   :     0.348886
      dxy     :     0.341615
      f0      :     0.041576  f :     0.369888
      f+1     :     0.045758
      f-1     :     0.056742
      f+2     :     0.060743
      f-2     :     0.055997
      f+3     :     0.053673
      f-3     :     0.055399
  5 H s       :     0.811049  s :     0.811049
      pz      :     0.021643  p :     0.094450
      px      :     0.032904
      py      :     0.039903
  6 H s       :     0.820582  s :     0.820582
      pz      :     0.031162  p :     0.073087
      px      :     0.022729
      py      :     0.019197
  7 H s       :     0.796220  s :     0.796220
      pz      :     0.019281  p :     0.098106
      px      :     0.051972
      py      :     0.026853
  8 O s       :     3.568853  s :     3.568853
      pz      :     1.586831  p :     4.626018
      px      :     1.577979
      py      :     1.461209
      dz2     :     0.009091  d :     0.068119
      dxz     :     0.003343
      dyz     :     0.018444
      dx2y2   :     0.023050
      dxy     :     0.014191
      f0      :     0.000494  f :     0.004328
      f+1     :     0.000094
      f-1     :     0.000649
      f+2     :     0.000826
      f-2     :     0.000505
      f+3     :     0.000903
      f-3     :     0.000856
  9 F s       :     3.669724  s :     3.669724
      pz      :     1.756996  p :     5.220009
      px      :     1.678009
      py      :     1.785003
      dz2     :     0.004438  d :     0.039635
      dxz     :     0.012346
      dyz     :     0.004903
      dx2y2   :     0.008183
      dxy     :     0.009766
      f0      :     0.000184  f :     0.001626
      f+1     :     0.000221
      f-1     :     0.000064
      f+2     :     0.000290
      f-2     :     0.000365
      f+3     :     0.000193
      f-3     :     0.000308
 10 H s       :     0.806096  s :     0.806096
      pz      :     0.014038  p :     0.059383
      px      :     0.028664
      py      :     0.016681
 11 H s       :     0.810352  s :     0.810352
      pz      :     0.027630  p :     0.060002
      px      :     0.017503
      py      :     0.014868
 12 O s       :     3.562118  s :     3.562118
      pz      :     1.510982  p :     4.611955
      px      :     1.538688
      py      :     1.562285
      dz2     :     0.013553  d :     0.069808
      dxz     :     0.013662
      dyz     :     0.024164
      dx2y2   :     0.007791
      dxy     :     0.010638
      f0      :     0.000531  f :     0.004698
      f+1     :     0.000534
      f-1     :     0.001159
      f+2     :     0.000730
      f-2     :     0.001145
      f+3     :     0.000339
      f-3     :     0.000259
 13 C s       :     2.772391  s :     2.772391
      pz      :     1.016626  p :     3.057850
      px      :     1.021713
      py      :     1.019511
      dz2     :     0.085470  d :     0.400167
      dxz     :     0.111813
      dyz     :     0.066777
      dx2y2   :     0.088679
      dxy     :     0.047428
      f0      :     0.006568  f :     0.038514
      f+1     :     0.006752
      f-1     :     0.006908
      f+2     :     0.004470
      f-2     :     0.004950
      f+3     :     0.004387
      f-3     :     0.004478
 14 H s       :     0.802706  s :     0.802706
      pz      :     0.030547  p :     0.059051
      px      :     0.014246
      py      :     0.014258
 15 H s       :     0.805811  s :     0.805811
      pz      :     0.021143  p :     0.059201
      px      :     0.023553
      py      :     0.014505
 16 C s       :     2.773653  s :     2.773653
      pz      :     1.020762  p :     3.056593
      px      :     1.010298
      py      :     1.025533
      dz2     :     0.084208  d :     0.405962
      dxz     :     0.112667
      dyz     :     0.072583
      dx2y2   :     0.082014
      dxy     :     0.054490
      f0      :     0.006409  f :     0.038381
      f+1     :     0.007259
      f-1     :     0.006285
      f+2     :     0.004322
      f-2     :     0.005341
      f+3     :     0.004082
      f-3     :     0.004684
 17 H s       :     0.797792  s :     0.797792
      pz      :     0.018893  p :     0.061747
      px      :     0.026087
      py      :     0.016767
 18 H s       :     0.803919  s :     0.803919
      pz      :     0.014306  p :     0.059628
      px      :     0.013732
      py      :     0.031589
 19 C s       :     2.776084  s :     2.776084
      pz      :     1.018542  p :     3.053787
      px      :     1.015220
      py      :     1.020025
      dz2     :     0.112623  d :     0.403624
      dxz     :     0.075516
      dyz     :     0.018550
      dx2y2   :     0.125561
      dxy     :     0.071375
      f0      :     0.004175  f :     0.037927
      f+1     :     0.006289
      f-1     :     0.002993
      f+2     :     0.005198
      f-2     :     0.006000
      f+3     :     0.006797
      f-3     :     0.006475
 20 H s       :     0.802988  s :     0.802988
      pz      :     0.017913  p :     0.059317
      px      :     0.023492
      py      :     0.017912
 21 H s       :     0.806029  s :     0.806029
      pz      :     0.014701  p :     0.060888
      px      :     0.013534
      py      :     0.032653
 22 C s       :     2.773553  s :     2.773553
      pz      :     1.032275  p :     3.054880
      px      :     1.016242
      py      :     1.006362
      dz2     :     0.089609  d :     0.406505
      dxz     :     0.048635
      dyz     :     0.075152
      dx2y2   :     0.092472
      dxy     :     0.100637
      f0      :     0.004953  f :     0.038347
      f+1     :     0.003833
      f-1     :     0.004238
      f+2     :     0.006862
      f-2     :     0.004413
      f+3     :     0.007987
      f-3     :     0.006060
 23 H s       :     0.801948  s :     0.801948
      pz      :     0.013663  p :     0.059212
      px      :     0.012805
      py      :     0.032744
 24 H s       :     0.804078  s :     0.804078
      pz      :     0.032271  p :     0.059235
      px      :     0.013125
      py      :     0.013838
 25 C s       :     2.772440  s :     2.772440
      pz      :     1.022950  p :     3.058193
      px      :     1.013273
      py      :     1.021971
      dz2     :     0.082770  d :     0.403663
      dxz     :     0.051450
      dyz     :     0.083473
      dx2y2   :     0.088055
      dxy     :     0.097914
      f0      :     0.004684  f :     0.039387
      f+1     :     0.004405
      f-1     :     0.004263
      f+2     :     0.007655
      f-2     :     0.004585
      f+3     :     0.007585
      f-3     :     0.006209
 26 H s       :     0.797595  s :     0.797595
      pz      :     0.032730  p :     0.060277
      px      :     0.013438
      py      :     0.014109
 27 H s       :     0.802498  s :     0.802498
      pz      :     0.016806  p :     0.059381
      px      :     0.026694
      py      :     0.015881
 28 C s       :     2.778840  s :     2.778840
      pz      :     1.034053  p :     3.060989
      px      :     1.028325
      py      :     0.998610
      dz2     :     0.056937  d :     0.405169
      dxz     :     0.074670
      dyz     :     0.099409
      dx2y2   :     0.105958
      dxy     :     0.068194
      f0      :     0.003927  f :     0.039384
      f+1     :     0.004564
      f-1     :     0.007029
      f+2     :     0.006376
      f-2     :     0.003862
      f+3     :     0.008514
      f-3     :     0.005111
 29 H s       :     0.803296  s :     0.803296
      pz      :     0.031297  p :     0.059535
      px      :     0.013174
      py      :     0.015064
 30 H s       :     0.801526  s :     0.801526
      pz      :     0.016906  p :     0.061595
      px      :     0.028693
      py      :     0.015995
 31 H s       :     0.787508  s :     0.787508
      pz      :     0.028002  p :     0.061263
      px      :     0.013179
      py      :     0.020081
 32 H s       :     0.793854  s :     0.793854
      pz      :     0.019778  p :     0.060028
      px      :     0.027687
      py      :     0.012563
 33 H s       :     0.794554  s :     0.794554
      pz      :     0.027985  p :     0.064617
      px      :     0.013732
      py      :     0.022900
 34 H s       :     0.783540  s :     0.783540
      pz      :     0.017660  p :     0.064655
      px      :     0.031466
      py      :     0.015528


                      *****************************
                      * MAYER POPULATION ANALYSIS *
                      *****************************

  NA   - Mulliken gross atomic population
  ZA   - Total nuclear charge
  QA   - Mulliken gross atomic charge
  VA   - Mayer's total valence
  BVA  - Mayer's bonded valence
  FA   - Mayer's free valence

  ATOM       NA         ZA         QA         VA         BVA        FA
  0 C      6.1699     6.0000    -0.1699     3.9327     3.9327     0.0000
  1 C      6.4390     6.0000    -0.4390     3.9107     3.9107    -0.0000
  2 C      6.1066     6.0000    -0.1066     3.9359     3.9359     0.0000
  3 C      6.2837     6.0000    -0.2837     3.9150     3.9150     0.0000
  4 S     15.1345    16.0000     0.8655     5.8673     5.8673     0.0000
  5 H      0.9007     1.0000     0.0993     0.9983     0.9983    -0.0000
  6 H      0.8867     1.0000     0.1133     0.9775     0.9775     0.0000
  7 H      0.8368     1.0000     0.1632     0.9781     0.9781    -0.0000
  8 O      8.4404     8.0000    -0.4404     1.9853     1.9853    -0.0000
  9 F      9.1110     9.0000    -0.1110     1.1887     1.1887    -0.0000
 10 H      0.9038     1.0000     0.0962     0.9694     0.9694    -0.0000
 11 H      0.9226     1.0000     0.0774     0.9779     0.9779     0.0000
 12 O      8.4053     8.0000    -0.4053     2.1171     2.1171     0.0000
 13 C      6.2643     6.0000    -0.2643     4.0037     4.0037     0.0000
 14 H      0.9044     1.0000     0.0956     0.9701     0.9701     0.0000
 15 H      0.9156     1.0000     0.0844     0.9720     0.9720     0.0000
 16 C      6.2523     6.0000    -0.2523     3.9502     3.9502     0.0000
 17 H      0.8663     1.0000     0.1337     0.9689     0.9689     0.0000
 18 H      0.9015     1.0000     0.0985     0.9698     0.9698     0.0000
 19 C      6.1319     6.0000    -0.1319     3.9250     3.9250     0.0000
 20 H      0.8944     1.0000     0.1056     0.9717     0.9717     0.0000
 21 H      0.8922     1.0000     0.1078     0.9703     0.9703     0.0000
 22 C      6.2367     6.0000    -0.2367     3.9639     3.9639     0.0000
 23 H      0.9006     1.0000     0.0994     0.9746     0.9746     0.0000
 24 H      0.9019     1.0000     0.0981     0.9712     0.9712     0.0000
 25 C      6.2831     6.0000    -0.2831     4.0148     4.0148     0.0000
 26 H      0.8709     1.0000     0.1291     0.9702     0.9702     0.0000
 27 H      0.8951     1.0000     0.1049     0.9689     0.9689     0.0000
 28 C      6.1392     6.0000    -0.1392     3.8687     3.8687     0.0000
 29 H      0.8946     1.0000     0.1054     0.9720     0.9720     0.0000
 30 H      0.8975     1.0000     0.1025     0.9778     0.9778    -0.0000
 31 H      0.8659     1.0000     0.1341     0.9860     0.9860     0.0000
 32 H      0.8775     1.0000     0.1225     0.9673     0.9673    -0.0000
 33 H      0.8545     1.0000     0.1455     0.9729     0.9729     0.0000
 34 H      0.8187     1.0000     0.1813     0.9664     0.9664     0.0000

  Mayer bond orders larger than 0.100000
B(  0-C ,  1-C ) :   0.9778 B(  0-C ,  2-C ) :   0.9995 B(  0-C , 10-H ) :   0.9589 
B(  0-C , 11-H ) :   0.9788 B(  1-C ,  5-H ) :   0.9792 B(  1-C ,  6-H ) :   0.9590 
B(  1-C ,  7-H ) :   0.9842 B(  2-C , 13-C ) :   1.0094 B(  2-C , 14-H ) :   0.9527 
B(  2-C , 15-H ) :   0.9571 B(  3-C ,  4-S ) :   0.9061 B(  3-C , 28-C ) :   0.9804 
B(  3-C , 33-H ) :   0.9404 B(  3-C , 34-H ) :   0.9388 B(  4-S ,  8-O ) :   1.8164 
B(  4-S ,  9-F ) :   1.0843 B(  4-S , 12-O ) :   1.9858 B( 13-C , 16-C ) :   0.9971 
B( 13-C , 17-H ) :   0.9699 B( 13-C , 18-H ) :   0.9517 B( 16-C , 19-C ) :   0.9933 
B( 16-C , 20-H ) :   0.9525 B( 16-C , 21-H ) :   0.9747 B( 19-C , 22-C ) :   1.0024 
B( 19-C , 23-H ) :   0.9586 B( 19-C , 24-H ) :   0.9623 B( 22-C , 25-C ) :   1.0006 
B( 22-C , 26-H ) :   0.9692 B( 22-C , 27-H ) :   0.9551 B( 25-C , 28-C ) :   0.9916 
B( 25-C , 29-H ) :   0.9482 B( 25-C , 30-H ) :   0.9775 B( 28-C , 31-H ) :   0.9539 
B( 28-C , 32-H ) :   0.9357 

-------
TIMINGS
-------

Total SCF time: 0 days 0 hours 1 min 14 sec 

Total time                  ....      74.762 sec
Sum of individual times     ....      73.346 sec  ( 98.1%)

Fock matrix formation       ....      67.527 sec  ( 90.3%)
  Split-RI-J                ....       7.191 sec  ( 10.6% of F)
  Chain of spheres X        ....      52.481 sec  ( 77.7% of F)
  XC integration            ....       7.414 sec  ( 11.0% of F)
    Basis function eval.    ....       1.519 sec  ( 20.5% of XC)
    Density eval.           ....       1.687 sec  ( 22.8% of XC)
    XC-Functional eval.     ....       0.133 sec  (  1.8% of XC)
    XC-Potential eval.      ....       1.466 sec  ( 19.8% of XC)
Diagonalization             ....       0.847 sec  (  1.1%)
Density matrix formation    ....       0.078 sec  (  0.1%)
Population analysis         ....       0.100 sec  (  0.1%)
Initial guess               ....       0.715 sec  (  1.0%)
Orbital Transformation      ....       0.000 sec  (  0.0%)
Orbital Orthonormalization  ....       0.000 sec  (  0.0%)
DIIS solution               ....       0.512 sec  (  0.7%)
SOSCF solution              ....       0.834 sec  (  1.1%)
Grid generation             ....       2.734 sec  (  3.7%)

Maximum memory used throughout the entire SCF-calculation: 119.7 MB


-------------------------------------------------------------------------------
                          DFT DISPERSION CORRECTION                            
                                                                               
                              DFTD3 V3.1  Rev 1                                
                          USING Becke-Johnson damping                          
-------------------------------------------------------------------------------
The PBE0 functional is recognized
Active option DFTDOPT                   ...         4   

molecular C6(AA) [au] = 10040.560193 


            DFT-D V3
 parameters
 s6 scaling factor         :     1.0000 
 a1 scaling factor         :     0.4145 
 s8 scaling factor         :     1.2177 
 a2 scaling factor         :     4.8593 
 ad hoc parameters k1-k3   :    16.0000     1.3333    -4.0000 

 Edisp/kcal,au: -22.595230808456  -0.036007788459 
 E6   /kcal   : -14.645024740 
 E8   /kcal   :  -7.950206068 
 % E8         :  35.185327983 

-------------------------   ----------------
Dispersion correction           -0.036007788
-------------------------   ----------------


-------------------------   --------------------
FINAL SINGLE POINT ENERGY     -1041.559798413047
-------------------------   --------------------


                            ***************************************
                            *     ORCA property calculations      *
                            ***************************************

                                    ---------------------
                                    Active property flags
                                    ---------------------
   (+) Dipole Moment


------------------------------------------------------------------------------
                       ORCA ELECTRIC PROPERTIES CALCULATION
------------------------------------------------------------------------------

Dipole Moment Calculation                       ... on
Quadrupole Moment Calculation                   ... off
Polarizability Calculation                      ... off
GBWName                                         ... PBE0_D2_wb97.gbw
Electron density file                           ... PBE0_D2_wb97.scfp
The origin for moment calculation is the CENTER OF MASS  = (-9.572161, -2.566891 -6.416905)

-------------
DIPOLE MOMENT
-------------
                                X             Y             Z
Electronic contribution:     -9.52805     -19.51938     -11.11667
Nuclear contribution   :      8.71934      19.48829      12.54264
                        -----------------------------------------
Total Dipole Moment    :     -0.80871      -0.03109       1.42597
                        -----------------------------------------
Magnitude (a.u.)       :      1.63963
Magnitude (Debye)      :      4.16760



--------------------
Rotational spectrum 
--------------------
 
Rotational constants in cm-1:     0.025810     0.015137     0.010647 
Rotational constants in MHz :   773.773140   453.802427   319.195213 

 Dipole components along the rotational axes: 
x,y,z [a.u.] :     0.143060    -1.336830     0.938510 
x,y,z [Debye]:     0.363630    -3.397953     2.385503 

 

Timings for individual modules:

Sum of individual times         ...       76.616 sec (=   1.277 min)
GTO integral calculation        ...        1.391 sec (=   0.023 min)   1.8 %
SCF iterations                  ...       75.226 sec (=   1.254 min)  98.2 %
                             ****ORCA TERMINATED NORMALLY****
TOTAL RUN TIME: 0 days 0 hours 1 minutes 17 seconds 322 msec
