
                                        *****************
                                        * O   R   C   A *
                                        *****************

                                            #,                                       
                                            ###                                      
                                            ####                                     
                                            #####                                    
                                            ######                                   
                                           ########,                                 
                                     ,,################,,,,,                         
                               ,,#################################,,                 
                          ,,##########################################,,             
                       ,#########################################, ''#####,          
                    ,#############################################,,   '####,        
                  ,##################################################,,,,####,       
                ,###########''''           ''''###############################       
              ,#####''   ,,,,##########,,,,          '''####'''          '####       
            ,##' ,,,,###########################,,,                        '##       
           ' ,,###''''                  '''############,,,                           
         ,,##''                                '''############,,,,        ,,,,,,###''
      ,#''                                            '''#######################'''  
     '                                                          ''''####''''         
             ,#######,   #######,   ,#######,      ##                                
            ,#'     '#,  ##    ##  ,#'     '#,    #''#        ######   ,####,        
            ##       ##  ##   ,#'  ##            #'  '#       #        #'  '#        
            ##       ##  #######   ##           ,######,      #####,   #    #        
            '#,     ,#'  ##    ##  '#,     ,#' ,#      #,         ##   #,  ,#        
             '#######'   ##     ##  '#######'  #'      '#     #####' # '####'        



                  #######################################################
                  #                        -***-                        #
                  #          Department of theory and spectroscopy      #
                  #    Directorship and core code : Frank Neese         #
                  #        Max Planck Institute fuer Kohlenforschung    #
                  #                Kaiser Wilhelm Platz 1               #
                  #                 D-45470 Muelheim/Ruhr               #
                  #                      Germany                        #
                  #                                                     #
                  #                  All rights reserved                #
                  #                        -***-                        #
                  #######################################################


                         Program Version 5.0.0 -  RELEASE  -
                                (SVN: $Rev: 19529$)
                ($Date: 2021-06-28 11:36:33 +0200 (Mo, 28 Jun 2021) $)


 With contributions from (in alphabetic order):
   Daniel Aravena         : Magnetic Suceptibility
   Michael Atanasov       : Ab Initio Ligand Field Theory (pilot matlab implementation)
   Alexander A. Auer      : GIAO ZORA, VPT2 properties, NMR spectrum
   Ute Becker             : Parallelization
   Giovanni Bistoni       : ED, misc. LED, open-shell LED, HFLD
   Martin Brehm           : Molecular dynamics
   Dmytro Bykov           : SCF Hessian
   Vijay G. Chilkuri      : MRCI spin determinant printing, contributions to CSF-ICE
   Dipayan Datta          : RHF DLPNO-CCSD density
   Achintya Kumar Dutta   : EOM-CC, STEOM-CC
   Dmitry Ganyushin       : Spin-Orbit,Spin-Spin,Magnetic field MRCI
   Miquel Garcia          : C-PCM Hessian, Gaussian charge scheme
   Yang Guo               : DLPNO-NEVPT2, F12-NEVPT2, CIM, IAO-localization
   Andreas Hansen         : Spin unrestricted coupled pair/coupled cluster methods
   Benjamin Helmich-Paris : MC-RPA, TRAH-SCF, COSX integrals
   Lee Huntington         : MR-EOM, pCC
   Robert Izsak           : Overlap fitted RIJCOSX, COSX-SCS-MP3, EOM
   Marcus Kettner         : VPT2
   Christian Kollmar      : KDIIS, OOCD, Brueckner-CCSD(T), CCSD density, CASPT2, CASPT2-K
   Simone Kossmann        : Meta GGA functionals, TD-DFT gradient, OOMP2, MP2 Hessian
   Martin Krupicka        : Initial AUTO-CI
   Lucas Lang             : DCDCAS
   Marvin Lechner         : AUTO-CI (C++ implementation), FIC-MRCC
   Dagmar Lenk            : GEPOL surface, SMD
   Dimitrios Liakos       : Extrapolation schemes; Compound Job, initial MDCI parallelization
   Dimitrios Manganas     : Further ROCIS development; embedding schemes
   Dimitrios Pantazis     : SARC Basis sets
   Anastasios Papadopoulos: AUTO-CI, single reference methods and gradients
   Taras Petrenko         : DFT Hessian,TD-DFT gradient, ASA, ECA, R-Raman, ABS, FL, XAS/XES, NRVS
   Peter Pinski           : DLPNO-MP2, DLPNO-MP2 Gradient
   Christoph Reimann      : Effective Core Potentials
   Marius Retegan         : Local ZFS, SOC
   Christoph Riplinger    : Optimizer, TS searches, QM/MM, DLPNO-CCSD(T), (RO)-DLPNO pert. Triples
   Tobias Risthaus        : Range-separated hybrids, TD-DFT gradient, RPA, STAB
   Michael Roemelt        : Original ROCIS implementation
   Masaaki Saitow         : Open-shell DLPNO-CCSD energy and density
   Barbara Sandhoefer     : DKH picture change effects
   Avijit Sen             : IP-ROCIS
   Kantharuban Sivalingam : CASSCF convergence, NEVPT2, FIC-MRCI
   Bernardo de Souza      : ESD, SOC TD-DFT
   Georgi Stoychev        : AutoAux, RI-MP2 NMR
   Willem Van den Heuvel  : Paramagnetic NMR
   Boris Wezisla          : Elementary symmetry handling
   Frank Wennmohs         : Technical directorship


 We gratefully acknowledge several colleagues who have allowed us to
 interface, adapt or use parts of their codes:
   Stefan Grimme, W. Hujo, H. Kruse, P. Pracht,  : VdW corrections, initial TS optimization,
                  C. Bannwarth, S. Ehlert          DFT functionals, gCP, sTDA/sTD-DF
   Ed Valeev, F. Pavosevic, A. Kumar             : LibInt (2-el integral package), F12 methods
   Garnet Chan, S. Sharma, J. Yang, R. Olivares  : DMRG
   Ulf Ekstrom                                   : XCFun DFT Library
   Mihaly Kallay                                 : mrcc  (arbitrary order and MRCC methods)
   Jiri Pittner, Ondrej Demel                    : Mk-CCSD
   Frank Weinhold                                : gennbo (NPA and NBO analysis)
   Christopher J. Cramer and Donald G. Truhlar   : smd solvation model
   Lars Goerigk                                  : TD-DFT with DH, B97 family of functionals
   V. Asgeirsson, H. Jonsson                     : NEB implementation
   FAccTs GmbH                                   : IRC, NEB, NEB-TS, DLPNO-Multilevel, CI-OPT
                                                   MM, QMMM, 2- and 3-layer-ONIOM, Crystal-QMMM,
                                                   LR-CPCM, SF, NACMEs, symmetry and pop. for TD-DFT,
                                                   nearIR, NL-DFT gradient (VV10), updates on ESD,
                                                   ML-optimized integration grids
   S Lehtola, MJT Oliveira, MAL Marques          : LibXC Library
   Liviu Ungur et al                             : ANISO software


 Your calculation uses the libint2 library for the computation of 2-el integrals
 For citations please refer to: http://libint.valeyev.net

 Your ORCA version has been built with support for libXC version: 5.1.0
 For citations please refer to: https://tddft.org/programs/libxc/

 This ORCA versions uses:
   CBLAS   interface :  Fast vector & matrix operations
   LAPACKE interface :  Fast linear algebra routines
   SCALAPACK package :  Parallel linear algebra routines
   Shared memory     :  Shared parallel matrices
   BLAS/LAPACK       :  OpenBLAS 0.3.15  USE64BITINT DYNAMIC_ARCH NO_AFFINITY Haswell SINGLE_THREADED
        Core in use  :  Haswell
   Copyright (c) 2011-2014, The OpenBLAS Project


Your calculation utilizes the atom-pairwise dispersion correction
with the Becke-Johnson damping scheme (D3BJ)
Cite in your paper:
S.Grimme, S.Ehrlich, L.Goerigk, J Comput Chem, (2011), 32, 1456–1465 
S.Grimme, J.Antony, S.Ehrlich and H.Krieg, J.Chem.Phys., 132, (2010), 154104 
   

================================================================================

----- Orbital basis set information -----
Your calculation utilizes the basis: def2-TZVP
   F. Weigend and R. Ahlrichs, Phys. Chem. Chem. Phys. 7, 3297 (2005).

----- AuxJ basis set information -----
Your calculation utilizes the auxiliary basis: def2/J
   F. Weigend, Phys. Chem. Chem. Phys. 8, 1057 (2006).

================================================================================
                                        WARNINGS
                       Please study these warnings very carefully!
================================================================================


INFO   : the flag for use of the SHARK integral package has been found!

================================================================================
                                       INPUT FILE
================================================================================
NAME = TZVP_PBE0_C1_wt_dlpno_neg.com
|  1> !PBE0 D3BJ RIJCOSX def2-TZVP def2/J TightSCF
|  2> *xyz 0 1 
|  3> C          4.90646       -3.10282       -5.95484
|  4> C          3.51177       -2.80621       -6.49228
|  5> H          2.73604       -3.37345       -5.97374
|  6> H          3.44490       -3.04083       -7.55528
|  7> S          3.00462       -1.09621       -6.38926
|  8> F          4.12886       -0.32965       -6.95372
|  9> O          1.78128       -1.00078       -7.13640
| 10> O          2.85155       -0.78368       -4.95679
| 11> H          5.62703       -2.52424       -6.49422
| 12> H          5.12164       -4.14387       -6.07654
| 13> H          4.95004       -2.84862       -4.91639
| 14> *
| 15> 
| 16> %MaxCore 64000
| 17> 
| 18> %pal nprocs 4
| 19> end  
| 20> 
| 21> %scf
| 22>   MaxIter 150
| 23> end
| 24> 
| 25> 
| 26>                          ****END OF INPUT****
================================================================================

                       ****************************
                       * Single Point Calculation *
                       ****************************

---------------------------------
CARTESIAN COORDINATES (ANGSTROEM)
---------------------------------
  C      4.906460   -3.102820   -5.954840
  C      3.511770   -2.806210   -6.492280
  H      2.736040   -3.373450   -5.973740
  H      3.444900   -3.040830   -7.555280
  S      3.004620   -1.096210   -6.389260
  F      4.128860   -0.329650   -6.953720
  O      1.781280   -1.000780   -7.136400
  O      2.851550   -0.783680   -4.956790
  H      5.627030   -2.524240   -6.494220
  H      5.121640   -4.143870   -6.076540
  H      4.950040   -2.848620   -4.916390

----------------------------
CARTESIAN COORDINATES (A.U.)
----------------------------
  NO LB      ZA    FRAG     MASS         X           Y           Z
   0 C     6.0000    0    12.011    9.271866   -5.863480  -11.253017
   1 C     6.0000    0    12.011    6.636284   -5.302968  -12.268631
   2 H     1.0000    0     1.008    5.170366   -6.374897  -11.288733
   3 H     1.0000    0     1.008    6.509918   -5.746336  -14.277410
   4 S    16.0000    0    32.060    5.677909   -2.071537  -12.073952
   5 F     9.0000    0    18.998    7.802415   -0.622948  -13.140626
   6 O     8.0000    0    15.999    3.366131   -1.891200  -13.485842
   7 O     8.0000    0    15.999    5.388649   -1.480941   -9.366976
   8 H     1.0000    0     1.008   10.633546   -4.770122  -12.272297
   9 H     1.0000    0     1.008    9.678497   -7.830779  -11.482996
  10 H     1.0000    0     1.008    9.354220   -5.383112   -9.290631

--------------------------------
INTERNAL COORDINATES (ANGSTROEM)
--------------------------------
 C      0   0   0     0.000000000000     0.00000000     0.00000000
 C      1   0   0     1.523804266236     0.00000000     0.00000000
 H      2   1   0     1.091971603156   112.43304848     0.00000000
 H      2   1   3     1.090636117731   110.97760763   239.02835081
 S      2   1   3     1.786592914712   115.20009066   120.99053177
 F      5   2   1     1.473141168660   105.02979337    49.07237270
 O      5   2   1     1.436623061245   105.98059332   170.73836034
 O      5   2   1     1.474135586267   106.76390466   292.33415873
 H      1   2   3     1.070003142846   109.47058655   179.99921990
 H      1   2   3     1.069999263972   109.47118233    59.99951992
 H      1   2   3     1.069997784530   109.47113987   299.99930354

---------------------------
INTERNAL COORDINATES (A.U.)
---------------------------
 C      0   0   0     0.000000000000     0.00000000     0.00000000
 C      1   0   0     2.879572744887     0.00000000     0.00000000
 H      2   1   0     2.063527275985   112.43304848     0.00000000
 H      2   1   3     2.061003574275   110.97760763   239.02835081
 S      2   1   3     3.376171321610   115.20009066   120.99053177
 F      5   2   1     2.783833365371   105.02979337    49.07237270
 O      5   2   1     2.714824143428   105.98059332   170.73836034
 O      5   2   1     2.785712542313   106.76390466   292.33415873
 H      1   2   3     2.022012902414   109.47058655   179.99921990
 H      1   2   3     2.022005572404   109.47118233    59.99951992
 H      1   2   3     2.022002776665   109.47113987   299.99930354

---------------------
BASIS SET INFORMATION
---------------------
There are 5 groups of distinct atoms

 Group   1 Type C   : 11s6p2d1f contracted to 5s3p2d1f pattern {62111/411/11/1}
 Group   2 Type H   : 5s1p contracted to 3s1p pattern {311/1}
 Group   3 Type S   : 14s9p3d1f contracted to 5s5p2d1f pattern {73211/51111/21/1}
 Group   4 Type F   : 11s6p2d1f contracted to 5s3p2d1f pattern {62111/411/11/1}
 Group   5 Type O   : 11s6p2d1f contracted to 5s3p2d1f pattern {62111/411/11/1}

Atom   0C    basis set group =>   1
Atom   1C    basis set group =>   1
Atom   2H    basis set group =>   2
Atom   3H    basis set group =>   2
Atom   4S    basis set group =>   3
Atom   5F    basis set group =>   4
Atom   6O    basis set group =>   5
Atom   7O    basis set group =>   5
Atom   8H    basis set group =>   2
Atom   9H    basis set group =>   2
Atom  10H    basis set group =>   2
---------------------------------
AUXILIARY/J BASIS SET INFORMATION
---------------------------------
There are 5 groups of distinct atoms

 Group   1 Type C   : 12s5p4d2f1g contracted to 6s4p3d1f1g pattern {711111/2111/211/2/1}
 Group   2 Type H   : 5s2p1d contracted to 3s1p1d pattern {311/2/1}
 Group   3 Type S   : 14s5p5d2f1g contracted to 8s4p3d1f1g pattern {71111111/2111/311/2/1}
 Group   4 Type F   : 12s5p4d2f1g contracted to 6s4p3d1f1g pattern {711111/2111/211/2/1}
 Group   5 Type O   : 12s5p4d2f1g contracted to 6s4p3d1f1g pattern {711111/2111/211/2/1}

Atom   0C    basis set group =>   1
Atom   1C    basis set group =>   1
Atom   2H    basis set group =>   2
Atom   3H    basis set group =>   2
Atom   4S    basis set group =>   3
Atom   5F    basis set group =>   4
Atom   6O    basis set group =>   5
Atom   7O    basis set group =>   5
Atom   8H    basis set group =>   2
Atom   9H    basis set group =>   2
Atom  10H    basis set group =>   2


           ************************************************************
           *        Program running with 4 parallel MPI-processes     *
           *              working on a common directory               *
           ************************************************************
------------------------------------------------------------------------------
                           ORCA GTO INTEGRAL CALCULATION
                           -- RI-GTO INTEGRALS CHOSEN --
------------------------------------------------------------------------------
------------------------------------------------------------------------------
                   ___                                                        
                  /   \      - P O W E R E D   B Y -                         
                 /     \                                                     
                 |  |  |   _    _      __       _____    __    __             
                 |  |  |  | |  | |    /  \     |  _  \  |  |  /  |          
                  \  \/   | |  | |   /    \    | | | |  |  | /  /          
                 / \  \   | |__| |  /  /\  \   | |_| |  |  |/  /          
                |  |  |   |  __  | /  /__\  \  |    /   |      \           
                |  |  |   | |  | | |   __   |  |    \   |  |\   \          
                \     /   | |  | | |  |  |  |  | |\  \  |  | \   \       
                 \___/    |_|  |_| |__|  |__|  |_| \__\ |__|  \__/        
                                                                              
                      - O R C A' S   B I G   F R I E N D -                    
                                      &                                       
                       - I N T E G R A L  F E E D E R -                       
                                                                              
 v1 FN, 2020, v2 2021                                                         
------------------------------------------------------------------------------


Reading SHARK input file TZVP_PBE0_C1_wt_dlpno_neg.SHARKINP.tmp ... ok
----------------------
SHARK INTEGRAL PACKAGE
----------------------

Number of atoms                             ...     11
Number of basis functions                   ...    222
Number of shells                            ...     88
Maximum angular momentum                    ...      3
Integral batch strategy                     ... SHARK/LIBINT Hybrid
RI-J (if used) integral strategy            ... SPLIT-RIJ (Revised 2003 algorithm where possible)
Printlevel                                  ...      1
Contraction scheme used                     ... SEGMENTED contraction
Coulomb Range Separation                    ... NOT USED
Exchange Range Separation                   ... NOT USED
Finite Nucleus Model                        ... NOT USED
Auxiliary Coulomb fitting basis             ... AVAILABLE
   # of basis functions in Aux-J            ...    351
   # of shells in Aux-J                     ...    117
   Maximum angular momentum in Aux-J        ...      4
Auxiliary J/K fitting basis                 ... NOT available
Auxiliary Correlation fitting basis         ... NOT available
Auxiliary 'external' fitting basis          ... NOT available
Integral threshold                          ...     2.500000e-11
Primitive cut-off                           ...     2.500000e-12
Primitive pair pre-selection threshold      ...     2.500000e-12

Calculating pre-screening integrals         ... done (  0.1 sec) Dimension = 88
Organizing shell pair data                  ... done (  0.0 sec)
Shell pair information
Total number of shell pairs                 ...      3916
Shell pairs after pre-screening             ...      3660
Total number of primitive shell pairs       ...     12564
Primitive shell pairs kept                  ...      8875
          la=0 lb=0:    924 shell pairs
          la=1 lb=0:   1057 shell pairs
          la=1 lb=1:    319 shell pairs
          la=2 lb=0:    498 shell pairs
          la=2 lb=1:    293 shell pairs
          la=2 lb=2:     77 shell pairs
          la=3 lb=0:    252 shell pairs
          la=3 lb=1:    147 shell pairs
          la=3 lb=2:     72 shell pairs
          la=3 lb=3:     21 shell pairs

Calculating one electron integrals          ... done (  0.0 sec)
Calculating RI/J V-Matrix + Cholesky decomp.... done (  0.0 sec)
Calculating Nuclear repulsion               ... done (  0.0 sec) ENN=    362.766382399290 Eh

SHARK setup successfully completed in   0.2 seconds

Maximum memory used throughout the entire GTOINT-calculation: 15.3 MB


           ************************************************************
           *        Program running with 4 parallel MPI-processes     *
           *              working on a common directory               *
           ************************************************************
-------------------------------------------------------------------------------
                                 ORCA SCF
-------------------------------------------------------------------------------

------------
SCF SETTINGS
------------
Hamiltonian:
 Density Functional     Method          .... DFT(GTOs)
 Exchange Functional    Exchange        .... PBE
   PBE kappa parameter   XKappa         ....  0.804000
   PBE mue parameter    XMuePBE         ....  0.219520
 Correlation Functional Correlation     .... PBE
   PBE beta parameter  CBetaPBE         ....  0.066725
 LDA part of GGA corr.  LDAOpt          .... PW91-LDA
 Gradients option       PostSCFGGA      .... off
 Hybrid DFT is turned on
   Fraction HF Exchange ScalHFX         ....  0.250000
   Scaling of DF-GGA-X  ScalDFX         ....  0.750000
   Scaling of DF-GGA-C  ScalDFC         ....  1.000000
   Scaling of DF-LDA-C  ScalLDAC        ....  1.000000
   Perturbative correction              ....  0.000000
   Density functional embedding theory  .... OFF
   NL short-range parameter             ....  6.900000
 RI-approximation to the Coulomb term is turned on
   Number of AuxJ basis functions       .... 351
   RIJ-COSX (HFX calculated with COS-X)).... on


General Settings:
 Integral files         IntName         .... TZVP_PBE0_C1_wt_dlpno_neg
 Hartree-Fock type      HFTyp           .... RHF
 Total Charge           Charge          ....    0
 Multiplicity           Mult            ....    1
 Number of Electrons    NEL             ....   58
 Basis Dimension        Dim             ....  222
 Nuclear Repulsion      ENuc            ....    362.7663823993 Eh

Convergence Acceleration:
 DIIS                   CNVDIIS         .... on
   Start iteration      DIISMaxIt       ....    12
   Startup error        DIISStart       ....  0.200000
   # of expansion vecs  DIISMaxEq       ....     5
   Bias factor          DIISBfac        ....   1.050
   Max. coefficient     DIISMaxC        ....  10.000
 Trust-Rad. Augm. Hess. CNVTRAH         .... auto
   Auto Start mean grad. ratio tolernc. ....  1.125000
   Auto Start start iteration           ....    20
   Auto Start num. interpolation iter.  ....    10
   Max. Number of Micro iterations      ....    16
   Max. Number of Macro iterations      .... Maxiter - #DIIS iter
   Number of Davidson start vectors     ....     2
   Converg. threshold I  (grad. norm)   ....   1.000e-05
   Converg. threshold II (energy diff.) ....   1.000e-08
   Grad. Scal. Fac. for Micro threshold ....   0.100
   Minimum threshold for Micro iter.    ....   0.010
   NR start threshold (gradient norm)   ....   0.001
   Initial trust radius                 ....   0.400
   Minimum AH scaling param. (alpha)    ....   1.000
   Maximum AH scaling param. (alpha)    .... 1000.000
   Orbital update algorithm             .... Taylor
   White noise on init. David. guess    .... on
   Maximum white noise                  ....   0.010
   Quad. conv. algorithm                .... NR
 SOSCF                  CNVSOSCF        .... on
   Start iteration      SOSCFMaxIt      ....   150
   Startup grad/error   SOSCFStart      ....  0.003300
 Level Shifting         CNVShift        .... on
   Level shift para.    LevelShift      ....    0.2500
   Turn off err/grad.   ShiftErr        ....    0.0010
 Zerner damping         CNVZerner       .... off
 Static damping         CNVDamp         .... on
   Fraction old density DampFac         ....    0.7000
   Max. Damping (<1)    DampMax         ....    0.9800
   Min. Damping (>=0)   DampMin         ....    0.0000
   Turn off err/grad.   DampErr         ....    0.1000
 Fernandez-Rico         CNVRico         .... off

SCF Procedure:
 Maximum # iterations   MaxIter         ....   150
 SCF integral mode      SCFMode         .... Direct
   Integral package                     .... SHARK and LIBINT hybrid scheme
 Reset frequency        DirectResetFreq ....    20
 Integral Threshold     Thresh          ....  2.500e-11 Eh
 Primitive CutOff       TCut            ....  2.500e-12 Eh

Convergence Tolerance:
 Convergence Check Mode ConvCheckMode   .... Total+1el-Energy
 Convergence forced     ConvForced      .... 0
 Energy Change          TolE            ....  1.000e-08 Eh
 1-El. energy change                    ....  1.000e-05 Eh
 Orbital Gradient       TolG            ....  1.000e-05
 Orbital Rotation angle TolX            ....  1.000e-05
 DIIS Error             TolErr          ....  5.000e-07


Diagonalization of the overlap matrix:
Smallest eigenvalue                        ... 4.558e-04
Time for diagonalization                   ...    0.012 sec
Threshold for overlap eigenvalues          ... 1.000e-08
Number of eigenvalues below threshold      ... 0
Time for construction of square roots      ...    0.008 sec
Total time needed                          ...    0.021 sec

Time for model grid setup =    0.073 sec

------------------------------
INITIAL GUESS: MODEL POTENTIAL
------------------------------
Loading Hartree-Fock densities                     ... done
Calculating cut-offs                               ... done
Initializing the effective Hamiltonian             ... done
Setting up the integral package (SHARK)            ... done
Starting the Coulomb interaction                   ... done (   0.1 sec)
Reading the grid                                   ... done
Mapping shells                                     ... done
Starting the XC term evaluation                    ... done (   0.1 sec)
  promolecular density results
     # of electrons  =     57.997580318
     EX              =    -63.050946361
     EC              =     -2.063104092
     EX+EC           =    -65.114050453
Transforming the Hamiltonian                       ... done (   0.0 sec)
Diagonalizing the Hamiltonian                      ... done (   0.0 sec)
Back transforming the eigenvectors                 ... done (   0.0 sec)
Now organizing SCF variables                       ... done
                      ------------------
                      INITIAL GUESS DONE (   0.2 sec)
                      ------------------
-------------------
DFT GRID GENERATION
-------------------

General Integration Accuracy     IntAcc      ... 4.388
Radial Grid Type                 RadialGrid  ... OptM3 with GC (2021)
Angular Grid (max. ang.)         AngularGrid ... 4 (Lebedev-302)
Angular grid pruning method      GridPruning ... 4 (adaptive)
Weight generation scheme         WeightScheme... Becke
Basis function cutoff            BFCut       ... 1.0000e-11
Integration weight cutoff        WCut        ... 1.0000e-14
Angular grids for H and He will be reduced by one unit
Partially contracted basis set               ... off
Rotationally invariant grid construction     ... off

Total number of grid points                  ...    53838
Total number of batches                      ...      847
Average number of points per batch           ...       63
Average number of grid points per atom       ...     4894
Time for grid setup =    0.351 sec

--------------------
COSX GRID GENERATION
--------------------

GRIDX 1
-------
General Integration Accuracy     IntAcc      ... 3.816
Radial Grid Type                 RadialGrid  ... OptM3 with GC (2021)
Angular Grid (max. ang.)         AngularGrid ... 1 (Lebedev-50)
Angular grid pruning method      GridPruning ... 4 (adaptive)
Weight generation scheme         WeightScheme... Becke
Basis function cutoff            BFCut       ... 1.0000e-11
Integration weight cutoff        WCut        ... 1.0000e-14
Angular grids for H and He will be reduced by one unit
Partially contracted basis set               ... on
Rotationally invariant grid construction     ... off

Total number of grid points                  ...     6801
Total number of batches                      ...      112
Average number of points per batch           ...       60
Average number of grid points per atom       ...      618
UseSFitting                                  ... on

GRIDX 2
-------
General Integration Accuracy     IntAcc      ... 4.020
Radial Grid Type                 RadialGrid  ... OptM3 with GC (2021)
Angular Grid (max. ang.)         AngularGrid ... 2 (Lebedev-110)
Angular grid pruning method      GridPruning ... 4 (adaptive)
Weight generation scheme         WeightScheme... Becke
Basis function cutoff            BFCut       ... 1.0000e-11
Integration weight cutoff        WCut        ... 1.0000e-14
Angular grids for H and He will be reduced by one unit
Partially contracted basis set               ... on
Rotationally invariant grid construction     ... off

Total number of grid points                  ...    15008
Total number of batches                      ...      240
Average number of points per batch           ...       62
Average number of grid points per atom       ...     1364
UseSFitting                                  ... on

GRIDX 3
-------
General Integration Accuracy     IntAcc      ... 4.338
Radial Grid Type                 RadialGrid  ... OptM3 with GC (2021)
Angular Grid (max. ang.)         AngularGrid ... 3 (Lebedev-194)
Angular grid pruning method      GridPruning ... 4 (adaptive)
Weight generation scheme         WeightScheme... Becke
Basis function cutoff            BFCut       ... 1.0000e-11
Integration weight cutoff        WCut        ... 1.0000e-14
Angular grids for H and He will be reduced by one unit
Partially contracted basis set               ... on
Rotationally invariant grid construction     ... off

Total number of grid points                  ...    33631
Total number of batches                      ...      532
Average number of points per batch           ...       63
Average number of grid points per atom       ...     3057
UseSFitting                                  ... on

Time for X-Grid setup             =    0.319 sec

--------------
SCF ITERATIONS
--------------
ITER       Energy         Delta-E        Max-DP      RMS-DP      [F,P]     Damp
               ***  Starting incremental Fock matrix formation  ***
  0   -727.0332401219   0.000000000000 0.14263092  0.00162758  0.3014396 0.7000
  1   -727.1934097838  -0.160169661866 0.05629187  0.00094450  0.1058484 0.7000
                               ***Turning on DIIS***
  2   -727.2425160299  -0.049106246082 0.03607246  0.00117108  0.0409994 0.0000
  3   -727.3413052941  -0.098789264170 0.04428062  0.00066895  0.0519447 0.0000
  4   -727.3544737666  -0.013168472566 0.01271982  0.00021731  0.0152340 0.0000
                      *** Initiating the SOSCF procedure ***
                           *** Shutting down DIIS ***
                      *** Re-Reading the Fockian *** 
                      *** Removing any level shift *** 
ITER      Energy       Delta-E        Grad      Rot      Max-DP    RMS-DP
  5   -727.35590736  -0.0014335899  0.000534  0.000534  0.003023  0.000066
               *** Restarting incremental Fock matrix formation ***
  6   -727.35595104  -0.0000436865  0.000285  0.000638  0.001106  0.000035
  7   -727.35594692   0.0000041229  0.000449  0.000389  0.000746  0.000018
  8   -727.35595683  -0.0000099057  0.000058  0.000115  0.000576  0.000006
  9   -727.35595674   0.0000000813  0.000073  0.000066  0.000276  0.000003
 10   -727.35595703  -0.0000002883  0.000010  0.000021  0.000067  0.000001
 11   -727.35595702   0.0000000101  0.000016  0.000014  0.000051  0.000001
                  ***Gradient check signals convergence***
              ***Rediagonalizing the Fockian in SOSCF/NRSCF***

               *****************************************************
               *                     SUCCESS                       *
               *           SCF CONVERGED AFTER  12 CYCLES          *
               *****************************************************

Old exchange energy                            =    -15.960669930 Eh
New exchange energy                            =    -15.960647068 Eh
Exchange energy change after final integration =      0.000022862 Eh
Total energy after final integration           =   -727.355934174 Eh
Final COS-X integration done in                =     2.469 sec

----------------
TOTAL SCF ENERGY
----------------

Total Energy       :         -727.35593417 Eh          -19792.36119 eV

Components:
Nuclear Repulsion  :          362.76638240 Eh            9871.37512 eV
Electronic Energy  :        -1090.12231657 Eh          -29663.73631 eV
One Electron Energy:        -1721.83416933 Eh          -46853.48973 eV
Two Electron Energy:          631.71185276 Eh           17189.75342 eV
Max COSX asymmetry :            0.00000351 Eh               0.00010 eV

Virial components:
Potential Energy   :        -1452.85311736 Eh          -39534.14320 eV
Kinetic Energy     :          725.49718319 Eh           19741.78201 eV
Virial Ratio       :            2.00256204


DFT components:
N(Alpha)           :       28.999967332408 electrons
N(Beta)            :       28.999967332408 electrons
N(Total)           :       57.999934664815 electrons
E(X)               :      -47.759243627820 Eh       
E(C)               :       -2.065607892217 Eh       
E(XC)              :      -49.824851520037 Eh       
DFET-embed. en.    :        0.000000000000 Eh       

---------------
SCF CONVERGENCE
---------------

  Last Energy change         ...   -1.3103e-08  Tolerance :   1.0000e-08
  Last MAX-Density change    ...    1.7764e-15  Tolerance :   1.0000e-07
  Last RMS-Density change    ...    2.3176e-17  Tolerance :   5.0000e-09
  Last Orbital Gradient      ...    1.5510e-06  Tolerance :   1.0000e-05
  Last Orbital Rotation      ...    1.8094e-06  Tolerance :   1.0000e-05

             **** THE GBW FILE WAS UPDATED (TZVP_PBE0_C1_wt_dlpno_neg.gbw) ****
             **** DENSITY TZVP_PBE0_C1_wt_dlpno_neg.scfp WAS UPDATED ****
             **** ENERGY FILE WAS UPDATED (TZVP_PBE0_C1_wt_dlpno_neg.en.tmp) ****
             **** THE GBW FILE WAS UPDATED (TZVP_PBE0_C1_wt_dlpno_neg.gbw) ****
             **** DENSITY TZVP_PBE0_C1_wt_dlpno_neg.scfp WAS UPDATED ****
----------------
ORBITAL ENERGIES
----------------

  NO   OCC          E(Eh)            E(eV) 
   0   2.0000     -89.258875     -2428.8575 
   1   2.0000     -24.876789      -676.9318 
   2   2.0000     -19.219684      -522.9942 
   3   2.0000     -19.207601      -522.6654 
   4   2.0000     -10.285143      -279.8730 
   5   2.0000     -10.242999      -278.7262 
   6   2.0000      -8.205041      -223.2705 
   7   2.0000      -6.145496      -167.2274 
   8   2.0000      -6.139133      -167.0543 
   9   2.0000      -6.138743      -167.0437 
  10   2.0000      -1.390541       -37.8386 
  11   2.0000      -1.136123       -30.9155 
  12   2.0000      -1.037811       -28.2403 
  13   2.0000      -0.851824       -23.1793 
  14   2.0000      -0.746635       -20.3170 
  15   2.0000      -0.695774       -18.9330 
  16   2.0000      -0.601258       -16.3611 
  17   2.0000      -0.586208       -15.9515 
  18   2.0000      -0.563268       -15.3273 
  19   2.0000      -0.511205       -13.9106 
  20   2.0000      -0.492016       -13.3884 
  21   2.0000      -0.469052       -12.7636 
  22   2.0000      -0.451847       -12.2954 
  23   2.0000      -0.425102       -11.5676 
  24   2.0000      -0.413202       -11.2438 
  25   2.0000      -0.394878       -10.7452 
  26   2.0000      -0.350870        -9.5476 
  27   2.0000      -0.339314        -9.2332 
  28   2.0000      -0.324318        -8.8251 
  29   0.0000       0.019398         0.5278 
  30   0.0000       0.053196         1.4475 
  31   0.0000       0.070075         1.9068 
  32   0.0000       0.079067         2.1515 
  33   0.0000       0.083227         2.2647 
  34   0.0000       0.091893         2.5005 
  35   0.0000       0.103423         2.8143 
  36   0.0000       0.123676         3.3654 
  37   0.0000       0.140103         3.8124 
  38   0.0000       0.166194         4.5224 
  39   0.0000       0.192727         5.2444 
  40   0.0000       0.214474         5.8361 
  41   0.0000       0.215993         5.8775 
  42   0.0000       0.260951         7.1008 
  43   0.0000       0.275818         7.5054 
  44   0.0000       0.277342         7.5469 
  45   0.0000       0.296312         8.0631 
  46   0.0000       0.311951         8.4886 
  47   0.0000       0.375813        10.2264 
  48   0.0000       0.377072        10.2606 
  49   0.0000       0.385456        10.4888 
  50   0.0000       0.397790        10.8244 
  51   0.0000       0.422578        11.4989 
  52   0.0000       0.433378        11.7928 
  53   0.0000       0.455165        12.3857 
  54   0.0000       0.461829        12.5670 
  55   0.0000       0.468525        12.7492 
  56   0.0000       0.488690        13.2979 
  57   0.0000       0.501348        13.6424 
  58   0.0000       0.510287        13.8856 
  59   0.0000       0.545224        14.8363 
  60   0.0000       0.554375        15.0853 
  61   0.0000       0.582414        15.8483 
  62   0.0000       0.593931        16.1617 
  63   0.0000       0.606449        16.5023 
  64   0.0000       0.628833        17.1114 
  65   0.0000       0.670660        18.2496 
  66   0.0000       0.700134        19.0516 
  67   0.0000       0.725637        19.7456 
  68   0.0000       0.739818        20.1315 
  69   0.0000       0.774878        21.0855 
  70   0.0000       0.807869        21.9832 
  71   0.0000       0.832657        22.6578 
  72   0.0000       0.855785        23.2871 
  73   0.0000       0.879490        23.9321 
  74   0.0000       0.894169        24.3316 
  75   0.0000       0.925252        25.1774 
  76   0.0000       0.966340        26.2955 
  77   0.0000       0.980932        26.6925 
  78   0.0000       1.047942        28.5159 
  79   0.0000       1.065336        28.9893 
  80   0.0000       1.079434        29.3729 
  81   0.0000       1.116858        30.3913 
  82   0.0000       1.172571        31.9073 
  83   0.0000       1.294900        35.2360 
  84   0.0000       1.332191        36.2508 
  85   0.0000       1.358307        36.9614 
  86   0.0000       1.396144        37.9910 
  87   0.0000       1.437493        39.1162 
  88   0.0000       1.463445        39.8224 
  89   0.0000       1.477106        40.1941 
  90   0.0000       1.483228        40.3607 
  91   0.0000       1.512350        41.1531 
  92   0.0000       1.528328        41.5879 
  93   0.0000       1.553056        42.2608 
  94   0.0000       1.561136        42.4807 
  95   0.0000       1.568860        42.6908 
  96   0.0000       1.580027        42.9947 
  97   0.0000       1.591348        43.3028 
  98   0.0000       1.620340        44.0917 
  99   0.0000       1.642056        44.6826 
 100   0.0000       1.684161        45.8283 
 101   0.0000       1.731850        47.1260 
 102   0.0000       1.747240        47.5448 
 103   0.0000       1.794265        48.8244 
 104   0.0000       1.811800        49.3016 
 105   0.0000       1.824216        49.6394 
 106   0.0000       1.836621        49.9770 
 107   0.0000       1.913796        52.0770 
 108   0.0000       1.934620        52.6437 
 109   0.0000       1.963539        53.4306 
 110   0.0000       2.013255        54.7835 
 111   0.0000       2.017893        54.9097 
 112   0.0000       2.066906        56.2434 
 113   0.0000       2.121601        57.7317 
 114   0.0000       2.175695        59.2037 
 115   0.0000       2.205570        60.0166 
 116   0.0000       2.235690        60.8362 
 117   0.0000       2.256457        61.4013 
 118   0.0000       2.293673        62.4140 
 119   0.0000       2.318198        63.0814 
 120   0.0000       2.319745        63.1235 
 121   0.0000       2.341687        63.7205 
 122   0.0000       2.349447        63.9317 
 123   0.0000       2.363652        64.3183 
 124   0.0000       2.388995        65.0079 
 125   0.0000       2.412684        65.6525 
 126   0.0000       2.431935        66.1763 
 127   0.0000       2.464808        67.0708 
 128   0.0000       2.487968        67.7010 
 129   0.0000       2.555971        69.5515 
 130   0.0000       2.578921        70.1760 
 131   0.0000       2.583348        70.2965 
 132   0.0000       2.599495        70.7359 
 133   0.0000       2.623784        71.3968 
 134   0.0000       2.638324        71.7924 
 135   0.0000       2.675194        72.7957 
 136   0.0000       2.688874        73.1680 
 137   0.0000       2.764064        75.2140 
 138   0.0000       2.786647        75.8285 
 139   0.0000       2.823054        76.8192 
 140   0.0000       2.883658        78.4683 
 141   0.0000       2.909985        79.1847 
 142   0.0000       2.942735        80.0759 
 143   0.0000       2.990318        81.3707 
 144   0.0000       3.023786        82.2814 
 145   0.0000       3.044779        82.8526 
 146   0.0000       3.052360        83.0589 
 147   0.0000       3.089113        84.0590 
 148   0.0000       3.097410        84.2848 
 149   0.0000       3.148188        85.6665 
 150   0.0000       3.178548        86.4927 
 151   0.0000       3.187953        86.7486 
 152   0.0000       3.263714        88.8102 
 153   0.0000       3.304154        89.9106 
 154   0.0000       3.337149        90.8084 
 155   0.0000       3.373702        91.8031 
 156   0.0000       3.389905        92.2440 
 157   0.0000       3.433926        93.4419 
 158   0.0000       3.453634        93.9782 
 159   0.0000       3.482689        94.7688 
 160   0.0000       3.528171        96.0064 
 161   0.0000       3.618202        98.4563 
 162   0.0000       3.736883       101.6858 
 163   0.0000       3.748984       102.0150 
 164   0.0000       3.820811       103.9695 
 165   0.0000       3.836292       104.3908 
 166   0.0000       3.871922       105.3604 
 167   0.0000       3.949284       107.4655 
 168   0.0000       3.977213       108.2255 
 169   0.0000       4.144541       112.7787 
 170   0.0000       4.256476       115.8246 
 171   0.0000       4.299134       116.9854 
 172   0.0000       4.431875       120.5975 
 173   0.0000       4.445740       120.9747 
 174   0.0000       4.495105       122.3180 
 175   0.0000       4.574000       124.4649 
 176   0.0000       4.746304       129.1535 
 177   0.0000       5.137709       139.8042 
 178   0.0000       5.146469       140.0425 
 179   0.0000       5.154824       140.2699 
 180   0.0000       5.161423       140.4495 
 181   0.0000       5.175365       140.8288 
 182   0.0000       5.202361       141.5634 
 183   0.0000       5.224227       142.1584 
 184   0.0000       5.325180       144.9055 
 185   0.0000       5.371348       146.1618 
 186   0.0000       5.474480       148.9682 
 187   0.0000       5.511201       149.9674 
 188   0.0000       5.566873       151.4823 
 189   0.0000       5.623204       153.0152 
 190   0.0000       5.692796       154.9089 
 191   0.0000       6.284176       171.0011 
 192   0.0000       6.332888       172.3267 
 193   0.0000       6.364903       173.1978 
 194   0.0000       6.405678       174.3073 
 195   0.0000       6.616749       180.0509 
 196   0.0000       6.666470       181.4039 
 197   0.0000       6.717802       182.8007 
 198   0.0000       6.780336       184.5023 
 199   0.0000       6.802067       185.0936 
 200   0.0000       6.815082       185.4478 
 201   0.0000       6.843666       186.2256 
 202   0.0000       6.861298       186.7054 
 203   0.0000       6.873909       187.0486 
 204   0.0000       6.919809       188.2976 
 205   0.0000       6.939758       188.8404 
 206   0.0000       6.976696       189.8455 
 207   0.0000       7.058051       192.0593 
 208   0.0000       8.277882       225.2526 
 209   0.0000       8.282638       225.3820 
 210   0.0000       8.627371       234.7627 
 211   0.0000       8.651921       235.4307 
 212   0.0000       8.704939       236.8734 
 213   0.0000       9.383168       255.3290 
 214   0.0000       9.572914       260.4922 
 215   0.0000       9.692581       263.7485 
 216   0.0000      22.183254       603.6370 
 217   0.0000      22.432509       610.4196 
 218   0.0000      22.537423       613.2745 
 219   0.0000      43.527917      1184.4548 
 220   0.0000      43.768679      1191.0063 
 221   0.0000      57.053552      1552.5061 

                    ********************************
                    * MULLIKEN POPULATION ANALYSIS *
                    ********************************

-----------------------
MULLIKEN ATOMIC CHARGES
-----------------------
   0 C :   -0.368466
   1 C :   -0.247906
   2 H :    0.164148
   3 H :    0.147950
   4 S :    0.832060
   5 F :   -0.115072
   6 O :   -0.394767
   7 O :   -0.438497
   8 H :    0.131336
   9 H :    0.136700
  10 H :    0.152514
Sum of atomic charges:    0.0000000

--------------------------------
MULLIKEN REDUCED ORBITAL CHARGES
--------------------------------
  0 C s       :     3.234448  s :     3.234448
      pz      :     1.071886  p :     3.075428
      px      :     0.934520
      py      :     1.069022
      dz2     :     0.014281  d :     0.055160
      dxz     :     0.012876
      dyz     :     0.003529
      dx2y2   :     0.011242
      dxy     :     0.013233
      f0      :     0.000666  f :     0.003430
      f+1     :     0.000593
      f-1     :     0.000274
      f+2     :     0.000316
      f-2     :     0.000225
      f+3     :     0.000558
      f-3     :     0.000797
  1 C s       :     3.184265  s :     3.184265
      pz      :     1.069010  p :     2.964832
      px      :     1.009370
      py      :     0.886452
      dz2     :     0.024281  d :     0.094011
      dxz     :     0.017681
      dyz     :     0.006853
      dx2y2   :     0.021213
      dxy     :     0.023983
      f0      :     0.000769  f :     0.004798
      f+1     :     0.000690
      f-1     :     0.000380
      f+2     :     0.000594
      f-2     :     0.000341
      f+3     :     0.000816
      f-3     :     0.001209
  2 H s       :     0.813366  s :     0.813366
      pz      :     0.006419  p :     0.022486
      px      :     0.009263
      py      :     0.006804
  3 H s       :     0.829789  s :     0.829789
      pz      :     0.012803  p :     0.022261
      px      :     0.004574
      py      :     0.004883
  4 S s       :     5.374380  s :     5.374380
      pz      :     2.808238  p :     8.549176
      px      :     2.788495
      py      :     2.952443
      dz2     :     0.259218  d :     1.121611
      dxz     :     0.259111
      dyz     :     0.204491
      dx2y2   :     0.184687
      dxy     :     0.214104
      f0      :     0.014514  f :     0.122773
      f+1     :     0.035286
      f-1     :     0.015135
      f+2     :     0.012578
      f-2     :     0.017901
      f+3     :     0.014675
      f-3     :     0.012685
  5 F s       :     3.896708  s :     3.896708
      pz      :     1.807570  p :     5.197411
      px      :     1.636667
      py      :     1.753174
      dz2     :     0.002832  d :     0.020112
      dxz     :     0.004372
      dyz     :     0.002535
      dx2y2   :     0.004726
      dxy     :     0.005646
      f0      :     0.000086  f :     0.000841
      f+1     :     0.000117
      f-1     :     0.000056
      f+2     :     0.000085
      f-2     :     0.000173
      f+3     :     0.000145
      f-3     :     0.000178
  6 O s       :     3.830077  s :     3.830077
      pz      :     1.568395  p :     4.526385
      px      :     1.327983
      py      :     1.630008
      dz2     :     0.006328  d :     0.036220
      dxz     :     0.010361
      dyz     :     0.003039
      dx2y2   :     0.008211
      dxy     :     0.008280
      f0      :     0.000176  f :     0.002084
      f+1     :     0.000544
      f-1     :     0.000019
      f+2     :     0.000408
      f-2     :     0.000312
      f+3     :     0.000300
      f-3     :     0.000325
  7 O s       :     3.844762  s :     3.844762
      pz      :     1.263173  p :     4.557667
      px      :     1.654206
      py      :     1.640288
      dz2     :     0.013468  d :     0.034151
      dxz     :     0.009240
      dyz     :     0.009759
      dx2y2   :     0.000836
      dxy     :     0.000847
      f0      :     0.000699  f :     0.001918
      f+1     :     0.000511
      f-1     :     0.000521
      f+2     :     0.000090
      f-2     :     0.000089
      f+3     :     0.000004
      f-3     :     0.000004
  8 H s       :     0.846621  s :     0.846621
      pz      :     0.006491  p :     0.022043
      px      :     0.008659
      py      :     0.006893
  9 H s       :     0.841115  s :     0.841115
      pz      :     0.004823  p :     0.022185
      px      :     0.005040
      py      :     0.012322
 10 H s       :     0.825331  s :     0.825331
      pz      :     0.012510  p :     0.022155
      px      :     0.004542
      py      :     0.005103


                     *******************************
                     * LOEWDIN POPULATION ANALYSIS *
                     *******************************

----------------------
LOEWDIN ATOMIC CHARGES
----------------------
   0 C :   -0.317354
   1 C :   -0.396756
   2 H :    0.152757
   3 H :    0.141857
   4 S :    0.533015
   5 F :    0.063918
   6 O :   -0.253279
   7 O :   -0.301063
   8 H :    0.121575
   9 H :    0.127003
  10 H :    0.128328

-------------------------------
LOEWDIN REDUCED ORBITAL CHARGES
-------------------------------
  0 C s       :     2.825657  s :     2.825657
      pz      :     1.085351  p :     3.208216
      px      :     1.043015
      py      :     1.079850
      dz2     :     0.064551  d :     0.257777
      dxz     :     0.057134
      dyz     :     0.016122
      dx2y2   :     0.060604
      dxy     :     0.059366
      f0      :     0.003102  f :     0.025705
      f+1     :     0.003806
      f-1     :     0.002160
      f+2     :     0.003460
      f-2     :     0.004751
      f+3     :     0.003489
      f-3     :     0.004936
  1 C s       :     2.848856  s :     2.848856
      pz      :     1.072895  p :     3.147548
      px      :     1.076540
      py      :     0.998114
      dz2     :     0.087273  d :     0.368352
      dxz     :     0.063105
      dyz     :     0.033628
      dx2y2   :     0.091241
      dxy     :     0.093103
      f0      :     0.003977  f :     0.032000
      f+1     :     0.004046
      f-1     :     0.003063
      f+2     :     0.003942
      f-2     :     0.004652
      f+3     :     0.005241
      f-3     :     0.007079
  2 H s       :     0.782984  s :     0.782984
      pz      :     0.019303  p :     0.064259
      px      :     0.025254
      py      :     0.019702
  3 H s       :     0.793684  s :     0.793684
      pz      :     0.036749  p :     0.064459
      px      :     0.013391
      py      :     0.014318
  4 S s       :     4.759194  s :     4.759194
      pz      :     2.856854  p :     8.566410
      px      :     2.821175
      py      :     2.888381
      dz2     :     0.419892  d :     1.768490
      dxz     :     0.409886
      dyz     :     0.289124
      dx2y2   :     0.313301
      dxy     :     0.336288
      f0      :     0.052713  f :     0.372891
      f+1     :     0.096158
      f-1     :     0.043007
      f+2     :     0.040745
      f-2     :     0.054216
      f+3     :     0.043296
      f-3     :     0.042757
  5 F s       :     3.674531  s :     3.674531
      pz      :     1.786211  p :     5.222344
      px      :     1.691020
      py      :     1.745113
      dz2     :     0.004934  d :     0.037591
      dxz     :     0.008558
      dyz     :     0.004582
      dx2y2   :     0.007180
      dxy     :     0.012338
      f0      :     0.000189  f :     0.001616
      f+1     :     0.000205
      f-1     :     0.000099
      f+2     :     0.000147
      f-2     :     0.000367
      f+3     :     0.000236
      f-3     :     0.000372
  6 O s       :     3.562550  s :     3.562550
      pz      :     1.579084  p :     4.616582
      px      :     1.466704
      py      :     1.570795
      dz2     :     0.008847  d :     0.069466
      dxz     :     0.026350
      dyz     :     0.004077
      dx2y2   :     0.019286
      dxy     :     0.010906
      f0      :     0.000567  f :     0.004681
      f+1     :     0.000903
      f-1     :     0.000052
      f+2     :     0.001327
      f-2     :     0.000515
      f+3     :     0.000772
      f-3     :     0.000544
  7 O s       :     3.587067  s :     3.587067
      pz      :     1.445477  p :     4.645114
      px      :     1.605827
      py      :     1.593809
      dz2     :     0.034998  d :     0.064643
      dxz     :     0.012203
      dyz     :     0.015125
      dx2y2   :     0.001136
      dxy     :     0.001180
      f0      :     0.001919  f :     0.004240
      f+1     :     0.000890
      f-1     :     0.001058
      f+2     :     0.000164
      f-2     :     0.000191
      f+3     :     0.000012
      f-3     :     0.000007
  8 H s       :     0.812421  s :     0.812421
      pz      :     0.020670  p :     0.066004
      px      :     0.023877
      py      :     0.021457
  9 H s       :     0.806940  s :     0.806940
      pz      :     0.015256  p :     0.066057
      px      :     0.014680
      py      :     0.036121
 10 H s       :     0.804959  s :     0.804959
      pz      :     0.036977  p :     0.066714
      px      :     0.013680
      py      :     0.016057


                      *****************************
                      * MAYER POPULATION ANALYSIS *
                      *****************************

  NA   - Mulliken gross atomic population
  ZA   - Total nuclear charge
  QA   - Mulliken gross atomic charge
  VA   - Mayer's total valence
  BVA  - Mayer's bonded valence
  FA   - Mayer's free valence

  ATOM       NA         ZA         QA         VA         BVA        FA
  0 C      6.3685     6.0000    -0.3685     3.9016     3.9016     0.0000
  1 C      6.2479     6.0000    -0.2479     3.8768     3.8768     0.0000
  2 H      0.8359     1.0000     0.1641     0.9709     0.9709    -0.0000
  3 H      0.8520     1.0000     0.1480     0.9718     0.9718     0.0000
  4 S     15.1679    16.0000     0.8321     5.9614     5.9614     0.0000
  5 F      9.1151     9.0000    -0.1151     1.1956     1.1956     0.0000
  6 O      8.3948     8.0000    -0.3948     2.0857     2.0857     0.0000
  7 O      8.4385     8.0000    -0.4385     2.0202     2.0202     0.0000
  8 H      0.8687     1.0000     0.1313     0.9763     0.9763    -0.0000
  9 H      0.8633     1.0000     0.1367     0.9691     0.9691    -0.0000
 10 H      0.8475     1.0000     0.1525     0.9815     0.9815     0.0000

  Mayer bond orders larger than 0.100000
B(  0-C ,  1-C ) :   0.9933 B(  0-C ,  8-H ) :   0.9672 B(  0-C ,  9-H ) :   0.9576 
B(  0-C , 10-H ) :   0.9631 B(  1-C ,  2-H ) :   0.9354 B(  1-C ,  3-H ) :   0.9359 
B(  1-C ,  4-S ) :   0.9125 B(  4-S ,  5-F ) :   1.1102 B(  4-S ,  6-O ) :   1.9703 
B(  4-S ,  7-O ) :   1.9050 

-------
TIMINGS
-------

Total SCF time: 0 days 0 hours 0 min 18 sec 

Total time                  ....      18.403 sec
Sum of individual times     ....      18.199 sec  ( 98.9%)

Fock matrix formation       ....      17.137 sec  ( 93.1%)
  Split-RI-J                ....       1.324 sec  (  7.7% of F)
  Chain of spheres X        ....      13.102 sec  ( 76.5% of F)
  XC integration            ....       2.662 sec  ( 15.5% of F)
    Basis function eval.    ....       0.913 sec  ( 34.3% of XC)
    Density eval.           ....       0.659 sec  ( 24.7% of XC)
    XC-Functional eval.     ....       0.156 sec  (  5.9% of XC)
    XC-Potential eval.      ....       0.806 sec  ( 30.3% of XC)
Diagonalization             ....       0.063 sec  (  0.3%)
Density matrix formation    ....       0.005 sec  (  0.0%)
Population analysis         ....       0.010 sec  (  0.1%)
Initial guess               ....       0.147 sec  (  0.8%)
Orbital Transformation      ....       0.000 sec  (  0.0%)
Orbital Orthonormalization  ....       0.000 sec  (  0.0%)
DIIS solution               ....       0.037 sec  (  0.2%)
SOSCF solution              ....       0.057 sec  (  0.3%)
Grid generation             ....       0.743 sec  (  4.0%)

Maximum memory used throughout the entire SCF-calculation: 70.2 MB


-------------------------------------------------------------------------------
                          DFT DISPERSION CORRECTION                            
                                                                               
                              DFTD3 V3.1  Rev 1                                
                          USING Becke-Johnson damping                          
-------------------------------------------------------------------------------
The PBE0 functional is recognized
Active option DFTDOPT                   ...         4   

molecular C6(AA) [au] = 1445.544171 


            DFT-D V3
 parameters
 s6 scaling factor         :     1.0000 
 a1 scaling factor         :     0.4145 
 s8 scaling factor         :     1.2177 
 a2 scaling factor         :     4.8593 
 ad hoc parameters k1-k3   :    16.0000     1.3333    -4.0000 

 Edisp/kcal,au: -4.932834704155  -0.007860971638 
 E6   /kcal   :  -3.059499179 
 E8   /kcal   :  -1.873335525 
 % E8         :  37.976855858 

-------------------------   ----------------
Dispersion correction           -0.007860972
-------------------------   ----------------


-------------------------   --------------------
FINAL SINGLE POINT ENERGY      -727.363795145188
-------------------------   --------------------


                            ***************************************
                            *     ORCA property calculations      *
                            ***************************************

                                    ---------------------
                                    Active property flags
                                    ---------------------
   (+) Dipole Moment


------------------------------------------------------------------------------
                       ORCA ELECTRIC PROPERTIES CALCULATION
------------------------------------------------------------------------------

Dipole Moment Calculation                       ... on
Quadrupole Moment Calculation                   ... off
Polarizability Calculation                      ... off
GBWName                                         ... TZVP_PBE0_C1_wt_dlpno_neg.gbw
Electron density file                           ... TZVP_PBE0_C1_wt_dlpno_neg.scfp
The origin for moment calculation is the CENTER OF MASS  = ( 6.270910, -2.646011 -11.986998)

-------------
DIPOLE MOMENT
-------------
                                X             Y             Z
Electronic contribution:     -2.99681       8.20801      -1.74849
Nuclear contribution   :      4.18919      -9.36357       1.23251
                        -----------------------------------------
Total Dipole Moment    :      1.19238      -1.15556      -0.51598
                        -----------------------------------------
Magnitude (a.u.)       :      1.73877
Magnitude (Debye)      :      4.41961



--------------------
Rotational spectrum 
--------------------
 
Rotational constants in cm-1:     0.153152     0.082513     0.079874 
Rotational constants in MHz :  4591.373714  2473.673397  2394.575279 

 Dipole components along the rotational axes: 
x,y,z [a.u.] :     1.563718     0.161133     0.743067 
x,y,z [Debye]:     3.974656     0.409568     1.888727 

 

Timings for individual modules:

Sum of individual times         ...       19.036 sec (=   0.317 min)
GTO integral calculation        ...        0.422 sec (=   0.007 min)   2.2 %
SCF iterations                  ...       18.614 sec (=   0.310 min)  97.8 %
                             ****ORCA TERMINATED NORMALLY****
TOTAL RUN TIME: 0 days 0 hours 0 minutes 19 seconds 435 msec
