
                                        *****************
                                        * O   R   C   A *
                                        *****************

                                            #,                                       
                                            ###                                      
                                            ####                                     
                                            #####                                    
                                            ######                                   
                                           ########,                                 
                                     ,,################,,,,,                         
                               ,,#################################,,                 
                          ,,##########################################,,             
                       ,#########################################, ''#####,          
                    ,#############################################,,   '####,        
                  ,##################################################,,,,####,       
                ,###########''''           ''''###############################       
              ,#####''   ,,,,##########,,,,          '''####'''          '####       
            ,##' ,,,,###########################,,,                        '##       
           ' ,,###''''                  '''############,,,                           
         ,,##''                                '''############,,,,        ,,,,,,###''
      ,#''                                            '''#######################'''  
     '                                                          ''''####''''         
             ,#######,   #######,   ,#######,      ##                                
            ,#'     '#,  ##    ##  ,#'     '#,    #''#        ######   ,####,        
            ##       ##  ##   ,#'  ##            #'  '#       #        #'  '#        
            ##       ##  #######   ##           ,######,      #####,   #    #        
            '#,     ,#'  ##    ##  '#,     ,#' ,#      #,         ##   #,  ,#        
             '#######'   ##     ##  '#######'  #'      '#     #####' # '####'        



                  #######################################################
                  #                        -***-                        #
                  #          Department of theory and spectroscopy      #
                  #    Directorship and core code : Frank Neese         #
                  #        Max Planck Institute fuer Kohlenforschung    #
                  #                Kaiser Wilhelm Platz 1               #
                  #                 D-45470 Muelheim/Ruhr               #
                  #                      Germany                        #
                  #                                                     #
                  #                  All rights reserved                #
                  #                        -***-                        #
                  #######################################################


                         Program Version 5.0.0 -  RELEASE  -
                                (SVN: $Rev: 19529$)
                ($Date: 2021-06-28 11:36:33 +0200 (Mo, 28 Jun 2021) $)


 With contributions from (in alphabetic order):
   Daniel Aravena         : Magnetic Suceptibility
   Michael Atanasov       : Ab Initio Ligand Field Theory (pilot matlab implementation)
   Alexander A. Auer      : GIAO ZORA, VPT2 properties, NMR spectrum
   Ute Becker             : Parallelization
   Giovanni Bistoni       : ED, misc. LED, open-shell LED, HFLD
   Martin Brehm           : Molecular dynamics
   Dmytro Bykov           : SCF Hessian
   Vijay G. Chilkuri      : MRCI spin determinant printing, contributions to CSF-ICE
   Dipayan Datta          : RHF DLPNO-CCSD density
   Achintya Kumar Dutta   : EOM-CC, STEOM-CC
   Dmitry Ganyushin       : Spin-Orbit,Spin-Spin,Magnetic field MRCI
   Miquel Garcia          : C-PCM Hessian, Gaussian charge scheme
   Yang Guo               : DLPNO-NEVPT2, F12-NEVPT2, CIM, IAO-localization
   Andreas Hansen         : Spin unrestricted coupled pair/coupled cluster methods
   Benjamin Helmich-Paris : MC-RPA, TRAH-SCF, COSX integrals
   Lee Huntington         : MR-EOM, pCC
   Robert Izsak           : Overlap fitted RIJCOSX, COSX-SCS-MP3, EOM
   Marcus Kettner         : VPT2
   Christian Kollmar      : KDIIS, OOCD, Brueckner-CCSD(T), CCSD density, CASPT2, CASPT2-K
   Simone Kossmann        : Meta GGA functionals, TD-DFT gradient, OOMP2, MP2 Hessian
   Martin Krupicka        : Initial AUTO-CI
   Lucas Lang             : DCDCAS
   Marvin Lechner         : AUTO-CI (C++ implementation), FIC-MRCC
   Dagmar Lenk            : GEPOL surface, SMD
   Dimitrios Liakos       : Extrapolation schemes; Compound Job, initial MDCI parallelization
   Dimitrios Manganas     : Further ROCIS development; embedding schemes
   Dimitrios Pantazis     : SARC Basis sets
   Anastasios Papadopoulos: AUTO-CI, single reference methods and gradients
   Taras Petrenko         : DFT Hessian,TD-DFT gradient, ASA, ECA, R-Raman, ABS, FL, XAS/XES, NRVS
   Peter Pinski           : DLPNO-MP2, DLPNO-MP2 Gradient
   Christoph Reimann      : Effective Core Potentials
   Marius Retegan         : Local ZFS, SOC
   Christoph Riplinger    : Optimizer, TS searches, QM/MM, DLPNO-CCSD(T), (RO)-DLPNO pert. Triples
   Tobias Risthaus        : Range-separated hybrids, TD-DFT gradient, RPA, STAB
   Michael Roemelt        : Original ROCIS implementation
   Masaaki Saitow         : Open-shell DLPNO-CCSD energy and density
   Barbara Sandhoefer     : DKH picture change effects
   Avijit Sen             : IP-ROCIS
   Kantharuban Sivalingam : CASSCF convergence, NEVPT2, FIC-MRCI
   Bernardo de Souza      : ESD, SOC TD-DFT
   Georgi Stoychev        : AutoAux, RI-MP2 NMR
   Willem Van den Heuvel  : Paramagnetic NMR
   Boris Wezisla          : Elementary symmetry handling
   Frank Wennmohs         : Technical directorship


 We gratefully acknowledge several colleagues who have allowed us to
 interface, adapt or use parts of their codes:
   Stefan Grimme, W. Hujo, H. Kruse, P. Pracht,  : VdW corrections, initial TS optimization,
                  C. Bannwarth, S. Ehlert          DFT functionals, gCP, sTDA/sTD-DF
   Ed Valeev, F. Pavosevic, A. Kumar             : LibInt (2-el integral package), F12 methods
   Garnet Chan, S. Sharma, J. Yang, R. Olivares  : DMRG
   Ulf Ekstrom                                   : XCFun DFT Library
   Mihaly Kallay                                 : mrcc  (arbitrary order and MRCC methods)
   Jiri Pittner, Ondrej Demel                    : Mk-CCSD
   Frank Weinhold                                : gennbo (NPA and NBO analysis)
   Christopher J. Cramer and Donald G. Truhlar   : smd solvation model
   Lars Goerigk                                  : TD-DFT with DH, B97 family of functionals
   V. Asgeirsson, H. Jonsson                     : NEB implementation
   FAccTs GmbH                                   : IRC, NEB, NEB-TS, DLPNO-Multilevel, CI-OPT
                                                   MM, QMMM, 2- and 3-layer-ONIOM, Crystal-QMMM,
                                                   LR-CPCM, SF, NACMEs, symmetry and pop. for TD-DFT,
                                                   nearIR, NL-DFT gradient (VV10), updates on ESD,
                                                   ML-optimized integration grids
   S Lehtola, MJT Oliveira, MAL Marques          : LibXC Library
   Liviu Ungur et al                             : ANISO software


 Your calculation uses the libint2 library for the computation of 2-el integrals
 For citations please refer to: http://libint.valeyev.net

 Your ORCA version has been built with support for libXC version: 5.1.0
 For citations please refer to: https://tddft.org/programs/libxc/

 This ORCA versions uses:
   CBLAS   interface :  Fast vector & matrix operations
   LAPACKE interface :  Fast linear algebra routines
   SCALAPACK package :  Parallel linear algebra routines
   Shared memory     :  Shared parallel matrices
   BLAS/LAPACK       :  OpenBLAS 0.3.15  USE64BITINT DYNAMIC_ARCH NO_AFFINITY Haswell SINGLE_THREADED
        Core in use  :  Haswell
   Copyright (c) 2011-2014, The OpenBLAS Project


Your calculation utilizes the atom-pairwise dispersion correction
with the Becke-Johnson damping scheme (D3BJ)
Cite in your paper:
S.Grimme, S.Ehrlich, L.Goerigk, J Comput Chem, (2011), 32, 1456–1465 
S.Grimme, J.Antony, S.Ehrlich and H.Krieg, J.Chem.Phys., 132, (2010), 154104 
   

================================================================================

----- Orbital basis set information -----
Your calculation utilizes the basis: def2-SVPD
   F. Weigend and R. Ahlrichs, Phys. Chem. Chem. Phys. 7, 3297 (2005).
   D. Rappoport and F. Furche, J. Chem. Phys. 133 134105 (2010).

----- AuxJ basis set information -----
Your calculation utilizes the auxiliary basis: def2/J
   F. Weigend, Phys. Chem. Chem. Phys. 8, 1057 (2006).

================================================================================
                                        WARNINGS
                       Please study these warnings very carefully!
================================================================================


INFO   : the flag for use of the SHARK integral package has been found!

================================================================================
                                       INPUT FILE
================================================================================
NAME = 14Feb_SVPD_PBE0_C3_wt_wb97_typ1_neg.com
|  1> !PBE0 D3BJ RIJCOSX def2-SVPD def2/J TightSCF 
|  2> *xyz 0 1
|  3> C         -0.46129        2.23469       -4.98962
|  4> C          0.84888        2.66797       -4.30235
|  5> C          2.09343        1.86104       -4.65684
|  6> H          2.44481        2.04157       -5.67499
|  7> H          2.90175        2.13786       -3.98034
|  8> S          1.87964        0.07859       -4.46297
|  9> O          3.20757       -0.46611       -4.42026
| 10> O          1.07506       -0.05616       -3.26876
| 11> F          1.13166       -0.31996       -5.67903
| 12> H          0.66843        2.55943       -3.23285
| 13> H          1.03407        3.72943       -4.49708
| 14> H         -0.35183        2.31783       -6.05075
| 15> H         -1.26108        2.86600       -4.66300
| 16> H         -0.68032        1.21949       -4.73211
| 17> *
| 18> 
| 19> %MaxCore 64000
| 20> 
| 21> %pal nprocs 8
| 22> end  
| 23> 
| 24> %scf
| 25>   MaxIter 150
| 26> end
| 27> 
| 28> 
| 29>                          ****END OF INPUT****
================================================================================

                       ****************************
                       * Single Point Calculation *
                       ****************************

---------------------------------
CARTESIAN COORDINATES (ANGSTROEM)
---------------------------------
  C     -0.461290    2.234690   -4.989620
  C      0.848880    2.667970   -4.302350
  C      2.093430    1.861040   -4.656840
  H      2.444810    2.041570   -5.674990
  H      2.901750    2.137860   -3.980340
  S      1.879640    0.078590   -4.462970
  O      3.207570   -0.466110   -4.420260
  O      1.075060   -0.056160   -3.268760
  F      1.131660   -0.319960   -5.679030
  H      0.668430    2.559430   -3.232850
  H      1.034070    3.729430   -4.497080
  H     -0.351830    2.317830   -6.050750
  H     -1.261080    2.866000   -4.663000
  H     -0.680320    1.219490   -4.732110

----------------------------
CARTESIAN COORDINATES (A.U.)
----------------------------
  NO LB      ZA    FRAG     MASS         X           Y           Z
   0 C     6.0000    0    12.011   -0.871712    4.222952   -9.429015
   1 C     6.0000    0    12.011    1.604151    5.041733   -8.130263
   2 C     6.0000    0    12.011    3.956009    3.516856   -8.800152
   3 H     1.0000    0     1.008    4.620021    3.858008  -10.724177
   4 H     1.0000    0     1.008    5.483513    4.039970   -7.521753
   5 S    16.0000    0    32.060    3.552005    0.148514   -8.433791
   6 O     8.0000    0    15.999    6.061429   -0.880820   -8.353081
   7 O     8.0000    0    15.999    2.031569   -0.106127   -6.177061
   8 F     9.0000    0    18.998    2.138527   -0.604637  -10.731811
   9 H     1.0000    0     1.008    1.263150    4.836622   -6.109201
  10 H     1.0000    0     1.008    1.954109    7.047601   -8.498250
  11 H     1.0000    0     1.008   -0.664862    4.380064  -11.434260
  12 H     1.0000    0     1.008   -2.383096    5.415955   -8.811793
  13 H     1.0000    0     1.008   -1.285618    2.304502   -8.942392

--------------------------------
INTERNAL COORDINATES (ANGSTROEM)
--------------------------------
 C      0   0   0     0.000000000000     0.00000000     0.00000000
 C      1   0   0     1.541628048590     0.00000000     0.00000000
 C      2   1   0     1.525025864535   116.18166337     0.00000000
 H      3   2   1     1.092102745991   113.06736607    71.01533826
 H      3   2   1     1.089799424114   109.06281783   190.35266679
 S      3   2   1     1.805663241997   113.62454011   308.07276847
 O      6   3   2     1.435938828432   105.55460841   197.66012960
 O      6   3   2     1.446251728780   104.27042723   321.55528125
 F      6   3   2     1.482267892960   103.71447179    78.73659451
 H      2   1   3     1.090033661911   105.58891631   240.24026034
 H      2   1   3     1.094948601807   109.68881369   124.80111670
 H      1   2   3     1.069995620599   109.47135403   299.76021362
 H      1   2   3     1.069998590934   109.47137267   179.75919942
 H      1   2   3     1.070007748103   109.47130075    59.76007154

---------------------------
INTERNAL COORDINATES (A.U.)
---------------------------
 C      0   0   0     0.000000000000     0.00000000     0.00000000
 C      1   0   0     2.913254812207     0.00000000     0.00000000
 C      2   1   0     2.881881231117   116.18166337     0.00000000
 H      3   2   1     2.063775100025   113.06736607    71.01533826
 H      3   2   1     2.059422452481   109.06281783   190.35266679
 S      3   2   1     3.412209017463   113.62454011   308.07276847
 O      6   3   2     2.713531130801   105.55460841   197.66012960
 O      6   3   2     2.733019688105   104.27042723   321.55528125
 F      6   3   2     2.801080374799   103.71447179    78.73659451
 H      2   1   3     2.059865097768   105.58891631   240.24026034
 H      2   1   3     2.069152988136   109.68881369   124.80111670
 H      1   2   3     2.021998687426   109.47135403   299.76021362
 H      1   2   3     2.022004300546   109.47137267   179.75919942
 H      1   2   3     2.022021605088   109.47130075    59.76007154

---------------------
BASIS SET INFORMATION
---------------------
There are 5 groups of distinct atoms

 Group   1 Type C   : 8s4p2d contracted to 4s2p2d pattern {5111/31/11}
 Group   2 Type H   : 4s2p contracted to 2s2p pattern {31/11}
 Group   3 Type S   : 11s8p2d contracted to 5s4p2d pattern {53111/5111/11}
 Group   4 Type O   : 8s5p2d contracted to 4s3p2d pattern {5111/311/11}
 Group   5 Type F   : 8s5p2d contracted to 4s3p2d pattern {5111/311/11}

Atom   0C    basis set group =>   1
Atom   1C    basis set group =>   1
Atom   2C    basis set group =>   1
Atom   3H    basis set group =>   2
Atom   4H    basis set group =>   2
Atom   5S    basis set group =>   3
Atom   6O    basis set group =>   4
Atom   7O    basis set group =>   4
Atom   8F    basis set group =>   5
Atom   9H    basis set group =>   2
Atom  10H    basis set group =>   2
Atom  11H    basis set group =>   2
Atom  12H    basis set group =>   2
Atom  13H    basis set group =>   2
---------------------------------
AUXILIARY/J BASIS SET INFORMATION
---------------------------------
There are 5 groups of distinct atoms

 Group   1 Type C   : 12s5p4d2f1g contracted to 6s4p3d1f1g pattern {711111/2111/211/2/1}
 Group   2 Type H   : 5s2p1d contracted to 3s1p1d pattern {311/2/1}
 Group   3 Type S   : 14s5p5d2f1g contracted to 8s4p3d1f1g pattern {71111111/2111/311/2/1}
 Group   4 Type O   : 12s5p4d2f1g contracted to 6s4p3d1f1g pattern {711111/2111/211/2/1}
 Group   5 Type F   : 12s5p4d2f1g contracted to 6s4p3d1f1g pattern {711111/2111/211/2/1}

Atom   0C    basis set group =>   1
Atom   1C    basis set group =>   1
Atom   2C    basis set group =>   1
Atom   3H    basis set group =>   2
Atom   4H    basis set group =>   2
Atom   5S    basis set group =>   3
Atom   6O    basis set group =>   4
Atom   7O    basis set group =>   4
Atom   8F    basis set group =>   5
Atom   9H    basis set group =>   2
Atom  10H    basis set group =>   2
Atom  11H    basis set group =>   2
Atom  12H    basis set group =>   2
Atom  13H    basis set group =>   2


           ************************************************************
           *        Program running with 8 parallel MPI-processes     *
           *              working on a common directory               *
           ************************************************************
------------------------------------------------------------------------------
                           ORCA GTO INTEGRAL CALCULATION
                           -- RI-GTO INTEGRALS CHOSEN --
------------------------------------------------------------------------------
------------------------------------------------------------------------------
                   ___                                                        
                  /   \      - P O W E R E D   B Y -                         
                 /     \                                                     
                 |  |  |   _    _      __       _____    __    __             
                 |  |  |  | |  | |    /  \     |  _  \  |  |  /  |          
                  \  \/   | |  | |   /    \    | | | |  |  | /  /          
                 / \  \   | |__| |  /  /\  \   | |_| |  |  |/  /          
                |  |  |   |  __  | /  /__\  \  |    /   |      \           
                |  |  |   | |  | | |   __   |  |    \   |  |\   \          
                \     /   | |  | | |  |  |  |  | |\  \  |  | \   \       
                 \___/    |_|  |_| |__|  |__|  |_| \__\ |__|  \__/        
                                                                              
                      - O R C A' S   B I G   F R I E N D -                    
                                      &                                       
                       - I N T E G R A L  F E E D E R -                       
                                                                              
 v1 FN, 2020, v2 2021                                                         
------------------------------------------------------------------------------


Reading SHARK input file 14Feb_SVPD_PBE0_C3_wt_wb97_typ1_neg.SHARKINP.tmp ... ok
----------------------
SHARK INTEGRAL PACKAGE
----------------------

Number of atoms                             ...     14
Number of basis functions                   ...    212
Number of shells                            ...     90
Maximum angular momentum                    ...      2
Integral batch strategy                     ... SHARK/LIBINT Hybrid
RI-J (if used) integral strategy            ... SPLIT-RIJ (Revised 2003 algorithm where possible)
Printlevel                                  ...      1
Contraction scheme used                     ... SEGMENTED contraction
Coulomb Range Separation                    ... NOT USED
Exchange Range Separation                   ... NOT USED
Finite Nucleus Model                        ... NOT USED
Auxiliary Coulomb fitting basis             ... AVAILABLE
   # of basis functions in Aux-J            ...    422
   # of shells in Aux-J                     ...    142
   Maximum angular momentum in Aux-J        ...      4
Auxiliary J/K fitting basis                 ... NOT available
Auxiliary Correlation fitting basis         ... NOT available
Auxiliary 'external' fitting basis          ... NOT available
Integral threshold                          ...     2.500000e-11
Primitive cut-off                           ...     2.500000e-12
Primitive pair pre-selection threshold      ...     2.500000e-12

Calculating pre-screening integrals         ... done (  0.0 sec) Dimension = 90
Organizing shell pair data                  ... done (  0.0 sec)
Shell pair information
Total number of shell pairs                 ...      4095
Shell pairs after pre-screening             ...      4004
Total number of primitive shell pairs       ...     11447
Primitive shell pairs kept                  ...      9135
          la=0 lb=0:    911 shell pairs
          la=1 lb=0:   1385 shell pairs
          la=1 lb=1:    554 shell pairs
          la=2 lb=0:    593 shell pairs
          la=2 lb=1:    457 shell pairs
          la=2 lb=2:    104 shell pairs

Calculating one electron integrals          ... done (  0.0 sec)
Calculating RI/J V-Matrix + Cholesky decomp.... done (  0.0 sec)
Calculating Nuclear repulsion               ... done (  0.0 sec) ENN=    451.673252106103 Eh

SHARK setup successfully completed in   0.2 seconds

Maximum memory used throughout the entire GTOINT-calculation: 8.9 MB


           ************************************************************
           *        Program running with 8 parallel MPI-processes     *
           *              working on a common directory               *
           ************************************************************
-------------------------------------------------------------------------------
                                 ORCA SCF
-------------------------------------------------------------------------------

------------
SCF SETTINGS
------------
Hamiltonian:
 Density Functional     Method          .... DFT(GTOs)
 Exchange Functional    Exchange        .... PBE
   PBE kappa parameter   XKappa         ....  0.804000
   PBE mue parameter    XMuePBE         ....  0.219520
 Correlation Functional Correlation     .... PBE
   PBE beta parameter  CBetaPBE         ....  0.066725
 LDA part of GGA corr.  LDAOpt          .... PW91-LDA
 Gradients option       PostSCFGGA      .... off
 Hybrid DFT is turned on
   Fraction HF Exchange ScalHFX         ....  0.250000
   Scaling of DF-GGA-X  ScalDFX         ....  0.750000
   Scaling of DF-GGA-C  ScalDFC         ....  1.000000
   Scaling of DF-LDA-C  ScalLDAC        ....  1.000000
   Perturbative correction              ....  0.000000
   Density functional embedding theory  .... OFF
   NL short-range parameter             ....  6.900000
 RI-approximation to the Coulomb term is turned on
   Number of AuxJ basis functions       .... 422
   RIJ-COSX (HFX calculated with COS-X)).... on


General Settings:
 Integral files         IntName         .... 14Feb_SVPD_PBE0_C3_wt_wb97_typ1_neg
 Hartree-Fock type      HFTyp           .... RHF
 Total Charge           Charge          ....    0
 Multiplicity           Mult            ....    1
 Number of Electrons    NEL             ....   66
 Basis Dimension        Dim             ....  212
 Nuclear Repulsion      ENuc            ....    451.6732521061 Eh

Convergence Acceleration:
 DIIS                   CNVDIIS         .... on
   Start iteration      DIISMaxIt       ....    12
   Startup error        DIISStart       ....  0.200000
   # of expansion vecs  DIISMaxEq       ....     5
   Bias factor          DIISBfac        ....   1.050
   Max. coefficient     DIISMaxC        ....  10.000
 Trust-Rad. Augm. Hess. CNVTRAH         .... auto
   Auto Start mean grad. ratio tolernc. ....  1.125000
   Auto Start start iteration           ....    20
   Auto Start num. interpolation iter.  ....    10
   Max. Number of Micro iterations      ....    16
   Max. Number of Macro iterations      .... Maxiter - #DIIS iter
   Number of Davidson start vectors     ....     2
   Converg. threshold I  (grad. norm)   ....   1.000e-05
   Converg. threshold II (energy diff.) ....   1.000e-08
   Grad. Scal. Fac. for Micro threshold ....   0.100
   Minimum threshold for Micro iter.    ....   0.010
   NR start threshold (gradient norm)   ....   0.001
   Initial trust radius                 ....   0.400
   Minimum AH scaling param. (alpha)    ....   1.000
   Maximum AH scaling param. (alpha)    .... 1000.000
   Orbital update algorithm             .... Taylor
   White noise on init. David. guess    .... on
   Maximum white noise                  ....   0.010
   Quad. conv. algorithm                .... NR
 SOSCF                  CNVSOSCF        .... on
   Start iteration      SOSCFMaxIt      ....   150
   Startup grad/error   SOSCFStart      ....  0.003300
 Level Shifting         CNVShift        .... on
   Level shift para.    LevelShift      ....    0.2500
   Turn off err/grad.   ShiftErr        ....    0.0010
 Zerner damping         CNVZerner       .... off
 Static damping         CNVDamp         .... on
   Fraction old density DampFac         ....    0.7000
   Max. Damping (<1)    DampMax         ....    0.9800
   Min. Damping (>=0)   DampMin         ....    0.0000
   Turn off err/grad.   DampErr         ....    0.1000
 Fernandez-Rico         CNVRico         .... off

SCF Procedure:
 Maximum # iterations   MaxIter         ....   150
 SCF integral mode      SCFMode         .... Direct
   Integral package                     .... SHARK and LIBINT hybrid scheme
 Reset frequency        DirectResetFreq ....    20
 Integral Threshold     Thresh          ....  2.500e-11 Eh
 Primitive CutOff       TCut            ....  2.500e-12 Eh

Convergence Tolerance:
 Convergence Check Mode ConvCheckMode   .... Total+1el-Energy
 Convergence forced     ConvForced      .... 0
 Energy Change          TolE            ....  1.000e-08 Eh
 1-El. energy change                    ....  1.000e-05 Eh
 Orbital Gradient       TolG            ....  1.000e-05
 Orbital Rotation angle TolX            ....  1.000e-05
 DIIS Error             TolErr          ....  5.000e-07


Diagonalization of the overlap matrix:
Smallest eigenvalue                        ... 1.812e-04
Time for diagonalization                   ...    0.011 sec
Threshold for overlap eigenvalues          ... 1.000e-08
Number of eigenvalues below threshold      ... 0
Time for construction of square roots      ...    0.009 sec
Total time needed                          ...    0.021 sec

Time for model grid setup =    0.073 sec

------------------------------
INITIAL GUESS: MODEL POTENTIAL
------------------------------
Loading Hartree-Fock densities                     ... done
Calculating cut-offs                               ... done
Initializing the effective Hamiltonian             ... done
Setting up the integral package (SHARK)            ... done
Starting the Coulomb interaction                   ... done (   0.0 sec)
Reading the grid                                   ... done
Mapping shells                                     ... done
Starting the XC term evaluation                    ... done (   0.1 sec)
  promolecular density results
     # of electrons  =     65.996982066
     EX              =    -68.765169474
     EC              =     -2.328714527
     EX+EC           =    -71.093884001
Transforming the Hamiltonian                       ... done (   0.0 sec)
Diagonalizing the Hamiltonian                      ... done (   0.0 sec)
Back transforming the eigenvectors                 ... done (   0.0 sec)
Now organizing SCF variables                       ... done
                      ------------------
                      INITIAL GUESS DONE (   0.2 sec)
                      ------------------
-------------------
DFT GRID GENERATION
-------------------

General Integration Accuracy     IntAcc      ... 4.388
Radial Grid Type                 RadialGrid  ... OptM3 with GC (2021)
Angular Grid (max. ang.)         AngularGrid ... 4 (Lebedev-302)
Angular grid pruning method      GridPruning ... 4 (adaptive)
Weight generation scheme         WeightScheme... Becke
Basis function cutoff            BFCut       ... 1.0000e-11
Integration weight cutoff        WCut        ... 1.0000e-14
Angular grids for H and He will be reduced by one unit
Partially contracted basis set               ... off
Rotationally invariant grid construction     ... off

Total number of grid points                  ...    68574
Total number of batches                      ...     1080
Average number of points per batch           ...       63
Average number of grid points per atom       ...     4898
Time for grid setup =    0.392 sec

--------------------
COSX GRID GENERATION
--------------------

GRIDX 1
-------
General Integration Accuracy     IntAcc      ... 3.816
Radial Grid Type                 RadialGrid  ... OptM3 with GC (2021)
Angular Grid (max. ang.)         AngularGrid ... 1 (Lebedev-50)
Angular grid pruning method      GridPruning ... 4 (adaptive)
Weight generation scheme         WeightScheme... Becke
Basis function cutoff            BFCut       ... 1.0000e-11
Integration weight cutoff        WCut        ... 1.0000e-14
Angular grids for H and He will be reduced by one unit
Partially contracted basis set               ... on
Rotationally invariant grid construction     ... off

Total number of grid points                  ...     8525
Total number of batches                      ...      143
Average number of points per batch           ...       59
Average number of grid points per atom       ...      609
UseSFitting                                  ... on

GRIDX 2
-------
General Integration Accuracy     IntAcc      ... 4.020
Radial Grid Type                 RadialGrid  ... OptM3 with GC (2021)
Angular Grid (max. ang.)         AngularGrid ... 2 (Lebedev-110)
Angular grid pruning method      GridPruning ... 4 (adaptive)
Weight generation scheme         WeightScheme... Becke
Basis function cutoff            BFCut       ... 1.0000e-11
Integration weight cutoff        WCut        ... 1.0000e-14
Angular grids for H and He will be reduced by one unit
Partially contracted basis set               ... on
Rotationally invariant grid construction     ... off

Total number of grid points                  ...    19990
Total number of batches                      ...      319
Average number of points per batch           ...       62
Average number of grid points per atom       ...     1428
UseSFitting                                  ... on

GRIDX 3
-------
General Integration Accuracy     IntAcc      ... 4.338
Radial Grid Type                 RadialGrid  ... OptM3 with GC (2021)
Angular Grid (max. ang.)         AngularGrid ... 3 (Lebedev-194)
Angular grid pruning method      GridPruning ... 4 (adaptive)
Weight generation scheme         WeightScheme... Becke
Basis function cutoff            BFCut       ... 1.0000e-11
Integration weight cutoff        WCut        ... 1.0000e-14
Angular grids for H and He will be reduced by one unit
Partially contracted basis set               ... on
Rotationally invariant grid construction     ... off

Total number of grid points                  ...    45421
Total number of batches                      ...      716
Average number of points per batch           ...       63
Average number of grid points per atom       ...     3244
UseSFitting                                  ... on

Time for X-Grid setup             =    0.323 sec

--------------
SCF ITERATIONS
--------------
ITER       Energy         Delta-E        Max-DP      RMS-DP      [F,P]     Damp
               ***  Starting incremental Fock matrix formation  ***
  0   -765.6965832674   0.000000000000 0.20555385  0.00320337  0.2703474 0.7000
  1   -765.8642007996  -0.167617532175 0.09016635  0.00183693  0.0974798 0.7000
                               ***Turning on DIIS***
  2   -765.9184460222  -0.054245222592 0.11271493  0.00267018  0.0358811 0.0000
  3   -766.0192393698  -0.100793347629 0.07072395  0.00116996  0.0486298 0.0000
  4   -766.0362239035  -0.016984533704 0.01171263  0.00030609  0.0132429 0.0000
                      *** Initiating the SOSCF procedure ***
                           *** Shutting down DIIS ***
                      *** Re-Reading the Fockian *** 
                      *** Removing any level shift *** 
ITER      Energy       Delta-E        Grad      Rot      Max-DP    RMS-DP
  5   -766.03756009  -0.0013361848  0.000602  0.000602  0.002642  0.000094
               *** Restarting incremental Fock matrix formation ***
  6   -766.03773390  -0.0001738085  0.000235  0.000677  0.001451  0.000058
  7   -766.03773402  -0.0000001204  0.000282  0.000258  0.000752  0.000023
  8   -766.03773995  -0.0000059371  0.000072  0.000127  0.000713  0.000012
  9   -766.03773973   0.0000002233  0.000073  0.000059  0.000446  0.000006
 10   -766.03774020  -0.0000004643  0.000004  0.000009  0.000043  0.000001
 11   -766.03774020  -0.0000000042  0.000006  0.000006  0.000018  0.000000
                  ***Gradient check signals convergence***
              ***Rediagonalizing the Fockian in SOSCF/NRSCF***

               *****************************************************
               *                     SUCCESS                       *
               *           SCF CONVERGED AFTER  12 CYCLES          *
               *****************************************************

Old exchange energy                            =    -17.402478782 Eh
New exchange energy                            =    -17.402414637 Eh
Exchange energy change after final integration =      0.000064145 Eh
Total energy after final integration           =   -766.037676061 Eh
Final COS-X integration done in                =     1.506 sec

----------------
TOTAL SCF ENERGY
----------------

Total Energy       :         -766.03767606 Eh          -20844.94490 eV

Components:
Nuclear Repulsion  :          451.67325211 Eh           12290.65403 eV
Electronic Energy  :        -1217.71092817 Eh          -33135.59894 eV
One Electron Energy:        -1949.50679215 Eh          -53048.77676 eV
Two Electron Energy:          731.79586398 Eh           19913.17783 eV
Max COSX asymmetry :            0.00000746 Eh               0.00020 eV

Virial components:
Potential Energy   :        -1528.19490762 Eh          -41584.29754 eV
Kinetic Energy     :          762.15723156 Eh           20739.35264 eV
Virial Ratio       :            2.00509140


DFT components:
N(Alpha)           :       33.000108738285 electrons
N(Beta)            :       33.000108738285 electrons
N(Total)           :       66.000217476570 electrons
E(X)               :      -52.062408452624 Eh       
E(C)               :       -2.333444928495 Eh       
E(XC)              :      -54.395853381119 Eh       
DFET-embed. en.    :        0.000000000000 Eh       

---------------
SCF CONVERGENCE
---------------

  Last Energy change         ...   -6.0319e-09  Tolerance :   1.0000e-08
  Last MAX-Density change    ...    2.6645e-15  Tolerance :   1.0000e-07
  Last RMS-Density change    ...    4.1184e-17  Tolerance :   5.0000e-09
  Last Orbital Gradient      ...    1.3489e-06  Tolerance :   1.0000e-05
  Last Orbital Rotation      ...    2.2219e-06  Tolerance :   1.0000e-05

             **** THE GBW FILE WAS UPDATED (14Feb_SVPD_PBE0_C3_wt_wb97_typ1_neg.gbw) ****
             **** DENSITY 14Feb_SVPD_PBE0_C3_wt_wb97_typ1_neg.scfp WAS UPDATED ****
             **** ENERGY FILE WAS UPDATED (14Feb_SVPD_PBE0_C3_wt_wb97_typ1_neg.en.tmp) ****
             **** THE GBW FILE WAS UPDATED (14Feb_SVPD_PBE0_C3_wt_wb97_typ1_neg.gbw) ****
             **** DENSITY 14Feb_SVPD_PBE0_C3_wt_wb97_typ1_neg.scfp WAS UPDATED ****
----------------
ORBITAL ENERGIES
----------------

  NO   OCC          E(Eh)            E(eV) 
   0   2.0000     -89.295419     -2429.8519 
   1   2.0000     -24.884471      -677.1409 
   2   2.0000     -19.235629      -523.4281 
   3   2.0000     -19.232164      -523.3338 
   4   2.0000     -10.292848      -280.0826 
   5   2.0000     -10.261415      -279.2273 
   6   2.0000     -10.234508      -278.4951 
   7   2.0000      -8.255619      -224.6468 
   8   2.0000      -6.201685      -168.7564 
   9   2.0000      -6.195764      -168.5953 
  10   2.0000      -6.194415      -168.5586 
  11   2.0000      -1.376870       -37.4665 
  12   2.0000      -1.149199       -31.2713 
  13   2.0000      -1.053957       -28.6796 
  14   2.0000      -0.850093       -23.1322 
  15   2.0000      -0.767621       -20.8880 
  16   2.0000      -0.721234       -19.6258 
  17   2.0000      -0.652290       -17.7497 
  18   2.0000      -0.590058       -16.0563 
  19   2.0000      -0.586366       -15.9558 
  20   2.0000      -0.569579       -15.4990 
  21   2.0000      -0.516241       -14.0476 
  22   2.0000      -0.493881       -13.4392 
  23   2.0000      -0.478268       -13.0143 
  24   2.0000      -0.469936       -12.7876 
  25   2.0000      -0.450431       -12.2569 
  26   2.0000      -0.413966       -11.2646 
  27   2.0000      -0.398827       -10.8526 
  28   2.0000      -0.388384       -10.5685 
  29   2.0000      -0.369937       -10.0665 
  30   2.0000      -0.357649        -9.7321 
  31   2.0000      -0.342841        -9.3292 
  32   2.0000      -0.338671        -9.2157 
  33   0.0000       0.004371         0.1189 
  34   0.0000       0.029217         0.7950 
  35   0.0000       0.037383         1.0172 
  36   0.0000       0.040496         1.1019 
  37   0.0000       0.053302         1.4504 
  38   0.0000       0.069572         1.8932 
  39   0.0000       0.072671         1.9775 
  40   0.0000       0.080004         2.1770 
  41   0.0000       0.084684         2.3044 
  42   0.0000       0.094161         2.5622 
  43   0.0000       0.108074         2.9408 
  44   0.0000       0.114658         3.1200 
  45   0.0000       0.127173         3.4605 
  46   0.0000       0.131378         3.5750 
  47   0.0000       0.144189         3.9236 
  48   0.0000       0.144795         3.9401 
  49   0.0000       0.148406         4.0383 
  50   0.0000       0.166061         4.5187 
  51   0.0000       0.168900         4.5960 
  52   0.0000       0.176309         4.7976 
  53   0.0000       0.194581         5.2948 
  54   0.0000       0.202684         5.5153 
  55   0.0000       0.204025         5.5518 
  56   0.0000       0.214046         5.8245 
  57   0.0000       0.218194         5.9374 
  58   0.0000       0.225438         6.1345 
  59   0.0000       0.242231         6.5914 
  60   0.0000       0.251458         6.8425 
  61   0.0000       0.258240         7.0271 
  62   0.0000       0.265390         7.2216 
  63   0.0000       0.273737         7.4488 
  64   0.0000       0.285542         7.7700 
  65   0.0000       0.291510         7.9324 
  66   0.0000       0.297404         8.0928 
  67   0.0000       0.303984         8.2718 
  68   0.0000       0.315767         8.5924 
  69   0.0000       0.325745         8.8640 
  70   0.0000       0.331781         9.0282 
  71   0.0000       0.339720         9.2442 
  72   0.0000       0.349372         9.5069 
  73   0.0000       0.359203         9.7744 
  74   0.0000       0.363561         9.8930 
  75   0.0000       0.367573        10.0022 
  76   0.0000       0.379460        10.3256 
  77   0.0000       0.381242        10.3741 
  78   0.0000       0.381968        10.3939 
  79   0.0000       0.400021        10.8851 
  80   0.0000       0.407790        11.0965 
  81   0.0000       0.423125        11.5138 
  82   0.0000       0.427016        11.6197 
  83   0.0000       0.434194        11.8150 
  84   0.0000       0.439410        11.9569 
  85   0.0000       0.449939        12.2435 
  86   0.0000       0.459648        12.5077 
  87   0.0000       0.466088        12.6829 
  88   0.0000       0.474789        12.9197 
  89   0.0000       0.482571        13.1314 
  90   0.0000       0.492588        13.4040 
  91   0.0000       0.501132        13.6365 
  92   0.0000       0.505757        13.7623 
  93   0.0000       0.512658        13.9501 
  94   0.0000       0.518077        14.0976 
  95   0.0000       0.520969        14.1763 
  96   0.0000       0.538675        14.6581 
  97   0.0000       0.549032        14.9399 
  98   0.0000       0.558433        15.1957 
  99   0.0000       0.566904        15.4262 
 100   0.0000       0.567822        15.4512 
 101   0.0000       0.578325        15.7370 
 102   0.0000       0.590785        16.0761 
 103   0.0000       0.595237        16.1972 
 104   0.0000       0.618085        16.8190 
 105   0.0000       0.627272        17.0689 
 106   0.0000       0.640413        17.4265 
 107   0.0000       0.649729        17.6800 
 108   0.0000       0.683773        18.6064 
 109   0.0000       0.697766        18.9872 
 110   0.0000       0.707546        19.2533 
 111   0.0000       0.713722        19.4214 
 112   0.0000       0.725286        19.7360 
 113   0.0000       0.740961        20.1626 
 114   0.0000       0.761024        20.7085 
 115   0.0000       0.767918        20.8961 
 116   0.0000       0.781783        21.2734 
 117   0.0000       0.815616        22.1940 
 118   0.0000       0.825348        22.4589 
 119   0.0000       0.847076        23.0501 
 120   0.0000       0.860155        23.4060 
 121   0.0000       0.906519        24.6676 
 122   0.0000       0.942384        25.6436 
 123   0.0000       0.951962        25.9042 
 124   0.0000       0.969169        26.3724 
 125   0.0000       0.980597        26.6834 
 126   0.0000       0.986728        26.8502 
 127   0.0000       1.000299        27.2195 
 128   0.0000       1.013588        27.5811 
 129   0.0000       1.020755        27.7761 
 130   0.0000       1.037789        28.2397 
 131   0.0000       1.047459        28.5028 
 132   0.0000       1.056800        28.7570 
 133   0.0000       1.064923        28.9780 
 134   0.0000       1.092236        29.7212 
 135   0.0000       1.096606        29.8402 
 136   0.0000       1.122345        30.5406 
 137   0.0000       1.156593        31.4725 
 138   0.0000       1.166089        31.7309 
 139   0.0000       1.182843        32.1868 
 140   0.0000       1.205221        32.7957 
 141   0.0000       1.252306        34.0770 
 142   0.0000       1.267270        34.4842 
 143   0.0000       1.298000        35.3204 
 144   0.0000       1.315407        35.7940 
 145   0.0000       1.348707        36.7002 
 146   0.0000       1.364439        37.1283 
 147   0.0000       1.387843        37.7651 
 148   0.0000       1.443588        39.2820 
 149   0.0000       1.464441        39.8495 
 150   0.0000       1.538351        41.8607 
 151   0.0000       1.571347        42.7585 
 152   0.0000       1.594427        43.3866 
 153   0.0000       1.597848        43.4796 
 154   0.0000       1.629183        44.3323 
 155   0.0000       1.646750        44.8104 
 156   0.0000       1.666965        45.3604 
 157   0.0000       1.674725        45.5716 
 158   0.0000       1.693232        46.0752 
 159   0.0000       1.725424        46.9512 
 160   0.0000       1.739652        47.3383 
 161   0.0000       1.755710        47.7753 
 162   0.0000       1.799969        48.9796 
 163   0.0000       1.810594        49.2688 
 164   0.0000       1.854667        50.4681 
 165   0.0000       1.903570        51.7988 
 166   0.0000       1.907147        51.8961 
 167   0.0000       1.934964        52.6530 
 168   0.0000       1.952720        53.1362 
 169   0.0000       1.985844        54.0376 
 170   0.0000       1.987431        54.0807 
 171   0.0000       2.017427        54.8970 
 172   0.0000       2.062976        56.1364 
 173   0.0000       2.068806        56.2951 
 174   0.0000       2.087953        56.8161 
 175   0.0000       2.122724        57.7622 
 176   0.0000       2.153353        58.5957 
 177   0.0000       2.205890        60.0253 
 178   0.0000       2.221564        60.4518 
 179   0.0000       2.284960        62.1769 
 180   0.0000       2.325089        63.2689 
 181   0.0000       2.365285        64.3627 
 182   0.0000       2.432923        66.2032 
 183   0.0000       2.479033        67.4579 
 184   0.0000       2.503629        68.1272 
 185   0.0000       2.568636        69.8961 
 186   0.0000       2.588000        70.4230 
 187   0.0000       2.657779        72.3218 
 188   0.0000       2.709462        73.7282 
 189   0.0000       2.746132        74.7260 
 190   0.0000       2.848620        77.5149 
 191   0.0000       2.868861        78.0657 
 192   0.0000       2.873017        78.1788 
 193   0.0000       2.889687        78.6324 
 194   0.0000       2.908823        79.1531 
 195   0.0000       2.921203        79.4900 
 196   0.0000       2.941351        80.0382 
 197   0.0000       2.964399        80.6654 
 198   0.0000       3.007628        81.8417 
 199   0.0000       3.046436        82.8977 
 200   0.0000       3.093269        84.1721 
 201   0.0000       3.103266        84.4442 
 202   0.0000       3.144583        85.5684 
 203   0.0000       3.198399        87.0329 
 204   0.0000       3.234090        88.0041 
 205   0.0000       3.318768        90.3083 
 206   0.0000       3.339328        90.8677 
 207   0.0000       3.357465        91.3613 
 208   0.0000       3.366733        91.6135 
 209   0.0000       3.400329        92.5277 
 210   0.0000       3.594140        97.8015 
 211   0.0000       3.728802       101.4659 

                    ********************************
                    * MULLIKEN POPULATION ANALYSIS *
                    ********************************

-----------------------
MULLIKEN ATOMIC CHARGES
-----------------------
   0 C :    0.576537
   1 C :   -0.332701
   2 C :   -0.068336
   3 H :    0.095290
   4 H :    0.088964
   5 S :    1.550472
   6 O :   -0.725035
   7 O :   -0.708059
   8 F :   -0.418518
   9 H :    0.138072
  10 H :   -0.114820
  11 H :   -0.007657
  12 H :   -0.042914
  13 H :   -0.031295
Sum of atomic charges:   -0.0000000

--------------------------------
MULLIKEN REDUCED ORBITAL CHARGES
--------------------------------
  0 C s       :     2.501870  s :     2.501870
      pz      :     0.954865  p :     2.811213
      px      :     0.914757
      py      :     0.941591
      dz2     :     0.032956  d :     0.110380
      dxz     :     0.035972
      dyz     :    -0.001612
      dx2y2   :     0.005826
      dxy     :     0.037237
  1 C s       :     2.862927  s :     2.862927
      pz      :     1.051213  p :     2.969223
      px      :     1.002092
      py      :     0.915918
      dz2     :     0.121505  d :     0.500551
      dxz     :     0.129509
      dyz     :     0.018405
      dx2y2   :     0.147444
      dxy     :     0.083688
  2 C s       :     2.869347  s :     2.869347
      pz      :     1.023147  p :     2.986326
      px      :     1.073701
      py      :     0.889478
      dz2     :     0.042400  d :     0.212663
      dxz     :     0.078566
      dyz     :     0.011590
      dx2y2   :     0.058967
      dxy     :     0.021140
  3 H s       :     0.860518  s :     0.860518
      pz      :     0.028155  p :     0.044192
      px      :     0.016171
      py      :    -0.000134
  4 H s       :     0.867380  s :     0.867380
      pz      :     0.012796  p :     0.043656
      px      :     0.025013
      py      :     0.005847
  5 S s       :     4.994580  s :     4.994580
      pz      :     2.765042  p :     8.679499
      px      :     2.827573
      py      :     3.086884
      dz2     :     0.155662  d :     0.775450
      dxz     :     0.195201
      dyz     :     0.096793
      dx2y2   :     0.185300
      dxy     :     0.142494
  6 O s       :     3.972212  s :     3.972212
      pz      :     1.754722  p :     4.722881
      px      :     1.273131
      py      :     1.695028
      dz2     :     0.001245  d :     0.029942
      dxz     :     0.008256
      dyz     :     0.004735
      dx2y2   :     0.011372
      dxy     :     0.004335
  7 O s       :     3.954352  s :     3.954352
      pz      :     1.349100  p :     4.728250
      px      :     1.622866
      py      :     1.756284
      dz2     :     0.011349  d :     0.025458
      dxz     :     0.004630
      dyz     :     0.006473
      dx2y2   :     0.004406
      dxy     :    -0.001399
  8 F s       :     3.953196  s :     3.953196
      pz      :     1.679332  p :     5.446695
      px      :     1.848721
      py      :     1.918642
      dz2     :     0.004423  d :     0.018628
      dxz     :     0.004639
      dyz     :     0.004094
      dx2y2   :     0.001834
      dxy     :     0.003638
  9 H s       :     0.825703  s :     0.825703
      pz      :     0.056210  p :     0.036224
      px      :    -0.017730
      py      :    -0.002256
 10 H s       :     1.086076  s :     1.086076
      pz      :    -0.011331  p :     0.028744
      px      :    -0.013376
      py      :     0.053450
 11 H s       :     0.983851  s :     0.983851
      pz      :     0.049644  p :     0.023806
      px      :     0.005912
      py      :    -0.031750
 12 H s       :     1.022066  s :     1.022066
      pz      :    -0.006625  p :     0.020848
      px      :     0.004333
      py      :     0.023140
 13 H s       :     0.949603  s :     0.949603
      pz      :    -0.006191  p :     0.081691
      px      :     0.013325
      py      :     0.074558


                     *******************************
                     * LOEWDIN POPULATION ANALYSIS *
                     *******************************

----------------------
LOEWDIN ATOMIC CHARGES
----------------------
   0 C :    0.131991
   1 C :   -0.078124
   2 C :   -0.048938
   3 H :    0.026400
   4 H :    0.032075
   5 S :    1.122359
   6 O :   -0.458685
   7 O :   -0.460176
   8 F :   -0.273807
   9 H :    0.026872
  10 H :    0.031194
  11 H :   -0.010605
  12 H :   -0.009490
  13 H :   -0.031064

-------------------------------
LOEWDIN REDUCED ORBITAL CHARGES
-------------------------------
  0 C s       :     2.694439  s :     2.694439
      pz      :     0.929443  p :     2.765190
      px      :     0.900273
      py      :     0.935474
      dz2     :     0.118940  d :     0.408380
      dxz     :     0.073274
      dyz     :     0.028338
      dx2y2   :     0.079225
      dxy     :     0.108604
  1 C s       :     2.682102  s :     2.682102
      pz      :     0.928593  p :     2.714507
      px      :     0.882392
      py      :     0.903521
      dz2     :     0.156158  d :     0.681515
      dxz     :     0.141307
      dyz     :     0.049678
      dx2y2   :     0.190136
      dxy     :     0.144236
  2 C s       :     2.718663  s :     2.718663
      pz      :     0.958492  p :     2.727003
      px      :     0.944042
      py      :     0.824468
      dz2     :     0.102380  d :     0.603273
      dxz     :     0.123095
      dyz     :     0.082196
      dx2y2   :     0.161027
      dxy     :     0.134575
  3 H s       :     0.719962  s :     0.719962
      pz      :     0.122956  p :     0.253638
      px      :     0.068120
      py      :     0.062562
  4 H s       :     0.707713  s :     0.707713
      pz      :     0.095075  p :     0.260212
      px      :     0.098082
      py      :     0.067055
  5 S s       :     4.661172  s :     4.661172
      pz      :     2.748662  p :     8.374901
      px      :     2.799977
      py      :     2.826263
      dz2     :     0.389259  d :     1.841568
      dxz     :     0.451894
      dyz     :     0.270000
      dx2y2   :     0.405709
      dxy     :     0.324706
  6 O s       :     3.564814  s :     3.564814
      pz      :     1.624869  p :     4.653699
      px      :     1.416617
      py      :     1.612213
      dz2     :     0.027837  d :     0.240172
      dxz     :     0.060214
      dyz     :     0.010749
      dx2y2   :     0.072793
      dxy     :     0.068580
  7 O s       :     3.562542  s :     3.562542
      pz      :     1.439431  p :     4.652221
      px      :     1.584100
      py      :     1.628690
      dz2     :     0.066045  d :     0.245413
      dxz     :     0.070777
      dyz     :     0.048772
      dx2y2   :     0.032927
      dxy     :     0.026891
  8 F s       :     3.712595  s :     3.712595
      pz      :     1.693958  p :     5.332792
      px      :     1.799475
      py      :     1.839360
      dz2     :     0.069645  d :     0.228420
      dxz     :     0.061431
      dyz     :     0.043651
      dx2y2   :     0.028114
      dxy     :     0.025578
  9 H s       :     0.708695  s :     0.708695
      pz      :     0.123245  p :     0.264433
      px      :     0.062071
      py      :     0.079116
 10 H s       :     0.724169  s :     0.724169
      pz      :     0.068493  p :     0.244637
      px      :     0.059338
      py      :     0.116806
 11 H s       :     0.738645  s :     0.738645
      pz      :     0.129602  p :     0.271960
      px      :     0.069913
      py      :     0.072445
 12 H s       :     0.738225  s :     0.738225
      pz      :     0.079243  p :     0.271265
      px      :     0.098127
      py      :     0.093896
 13 H s       :     0.719830  s :     0.719830
      pz      :     0.086067  p :     0.311234
      px      :     0.083942
      py      :     0.141225


                      *****************************
                      * MAYER POPULATION ANALYSIS *
                      *****************************

  NA   - Mulliken gross atomic population
  ZA   - Total nuclear charge
  QA   - Mulliken gross atomic charge
  VA   - Mayer's total valence
  BVA  - Mayer's bonded valence
  FA   - Mayer's free valence

  ATOM       NA         ZA         QA         VA         BVA        FA
  0 C      5.4235     6.0000     0.5765     3.9693     3.9693    -0.0000
  1 C      6.3327     6.0000    -0.3327     5.1439     5.1439    -0.0000
  2 C      6.0683     6.0000    -0.0683     4.4095     4.4095    -0.0000
  3 H      0.9047     1.0000     0.0953     1.0855     1.0855    -0.0000
  4 H      0.9110     1.0000     0.0890     1.1025     1.1025    -0.0000
  5 S     14.4495    16.0000     1.5505     4.7557     4.7557    -0.0000
  6 O      8.7250     8.0000    -0.7250     1.6708     1.6708    -0.0000
  7 O      8.7081     8.0000    -0.7081     1.6932     1.6932    -0.0000
  8 F      9.4185     9.0000    -0.4185     0.6836     0.6836    -0.0000
  9 H      0.8619     1.0000     0.1381     1.0574     1.0574     0.0000
 10 H      1.1148     1.0000    -0.1148     1.1383     1.1383    -0.0000
 11 H      1.0077     1.0000    -0.0077     1.0217     1.0217    -0.0000
 12 H      1.0429     1.0000    -0.0429     1.0098     1.0098    -0.0000
 13 H      1.0313     1.0000    -0.0313     1.1739     1.1739    -0.0000

  Mayer bond orders larger than 0.100000
B(  0-C ,  1-C ) :   1.3172 B(  0-C , 11-H ) :   0.8054 B(  0-C , 12-H ) :   0.8133 
B(  0-C , 13-H ) :   0.8636 B(  1-C ,  2-C ) :   1.2943 B(  1-C ,  3-H ) :   0.1179 
B(  1-C ,  4-H ) :   0.1133 B(  1-C ,  9-H ) :   0.8645 B(  1-C , 10-H ) :   0.9581 
B(  1-C , 11-H ) :   0.1829 B(  1-C , 12-H ) :   0.1770 B(  1-C , 13-H ) :   0.1675 
B(  2-C ,  3-H ) :   0.9298 B(  2-C ,  4-H ) :   0.9067 B(  2-C ,  5-S ) :   1.0011 
B(  2-C ,  9-H ) :   0.1145 B(  5-S ,  6-O ) :   1.5381 B(  5-S ,  7-O ) :   1.4935 
B(  5-S ,  8-F ) :   0.5910 

-------
TIMINGS
-------

Total SCF time: 0 days 0 hours 0 min 12 sec 

Total time                  ....      12.529 sec
Sum of individual times     ....      12.329 sec  ( 98.4%)

Fock matrix formation       ....      11.274 sec  ( 90.0%)
  Split-RI-J                ....       0.913 sec  (  8.1% of F)
  Chain of spheres X        ....       8.168 sec  ( 72.4% of F)
  XC integration            ....       2.146 sec  ( 19.0% of F)
    Basis function eval.    ....       0.691 sec  ( 32.2% of XC)
    Density eval.           ....       0.542 sec  ( 25.2% of XC)
    XC-Functional eval.     ....       0.102 sec  (  4.8% of XC)
    XC-Potential eval.      ....       0.709 sec  ( 33.0% of XC)
Diagonalization             ....       0.063 sec  (  0.5%)
Density matrix formation    ....       0.006 sec  (  0.0%)
Population analysis         ....       0.011 sec  (  0.1%)
Initial guess               ....       0.097 sec  (  0.8%)
Orbital Transformation      ....       0.000 sec  (  0.0%)
Orbital Orthonormalization  ....       0.000 sec  (  0.0%)
DIIS solution               ....       0.037 sec  (  0.3%)
SOSCF solution              ....       0.053 sec  (  0.4%)
Grid generation             ....       0.788 sec  (  6.3%)

Maximum memory used throughout the entire SCF-calculation: 55.2 MB


-------------------------------------------------------------------------------
                          DFT DISPERSION CORRECTION                            
                                                                               
                              DFTD3 V3.1  Rev 1                                
                          USING Becke-Johnson damping                          
-------------------------------------------------------------------------------
The PBE0 functional is recognized
Active option DFTDOPT                   ...         4   

molecular C6(AA) [au] = 2097.124850 


            DFT-D V3
 parameters
 s6 scaling factor         :     1.0000 
 a1 scaling factor         :     0.4145 
 s8 scaling factor         :     1.2177 
 a2 scaling factor         :     4.8593 
 ad hoc parameters k1-k3   :    16.0000     1.3333    -4.0000 

 Edisp/kcal,au: -7.027696476144  -0.011199346013 
 E6   /kcal   :  -4.389469683 
 E8   /kcal   :  -2.638226793 
 % E8         :  37.540420281 

-------------------------   ----------------
Dispersion correction           -0.011199346
-------------------------   ----------------


-------------------------   --------------------
FINAL SINGLE POINT ENERGY      -766.048875406916
-------------------------   --------------------


                            ***************************************
                            *     ORCA property calculations      *
                            ***************************************

                                    ---------------------
                                    Active property flags
                                    ---------------------
   (+) Dipole Moment


------------------------------------------------------------------------------
                       ORCA ELECTRIC PROPERTIES CALCULATION
------------------------------------------------------------------------------

Dipole Moment Calculation                       ... on
Quadrupole Moment Calculation                   ... off
Polarizability Calculation                      ... off
GBWName                                         ... 14Feb_SVPD_PBE0_C3_wt_wb97_typ1_neg.gbw
Electron density file                           ... 14Feb_SVPD_PBE0_C3_wt_wb97_typ1_neg.scfp
The origin for moment calculation is the CENTER OF MASS  = ( 2.769487,  1.293283 -8.608184)

-------------
DIPOLE MOMENT
-------------
                                X             Y             Z
Electronic contribution:      4.48852     -10.90850      -0.92780
Nuclear contribution   :     -4.84544      12.25421       0.17361
                        -----------------------------------------
Total Dipole Moment    :     -0.35692       1.34571      -0.75419
                        -----------------------------------------
Magnitude (a.u.)       :      1.58340
Magnitude (Debye)      :      4.02467



--------------------
Rotational spectrum 
--------------------
 
Rotational constants in cm-1:     0.128954     0.057447     0.053381 
Rotational constants in MHz :  3865.954571  1722.226669  1600.330369 

 Dipole components along the rotational axes: 
x,y,z [a.u.] :     1.328707     0.138143    -0.850055 
x,y,z [Debye]:     3.377306     0.351133    -2.160668 

 

Timings for individual modules:

Sum of individual times         ...       13.130 sec (=   0.219 min)
GTO integral calculation        ...        0.388 sec (=   0.006 min)   3.0 %
SCF iterations                  ...       12.742 sec (=   0.212 min)  97.0 %
                             ****ORCA TERMINATED NORMALLY****
TOTAL RUN TIME: 0 days 0 hours 0 minutes 13 seconds 502 msec
