
                                        *****************
                                        * O   R   C   A *
                                        *****************

                                            #,                                       
                                            ###                                      
                                            ####                                     
                                            #####                                    
                                            ######                                   
                                           ########,                                 
                                     ,,################,,,,,                         
                               ,,#################################,,                 
                          ,,##########################################,,             
                       ,#########################################, ''#####,          
                    ,#############################################,,   '####,        
                  ,##################################################,,,,####,       
                ,###########''''           ''''###############################       
              ,#####''   ,,,,##########,,,,          '''####'''          '####       
            ,##' ,,,,###########################,,,                        '##       
           ' ,,###''''                  '''############,,,                           
         ,,##''                                '''############,,,,        ,,,,,,###''
      ,#''                                            '''#######################'''  
     '                                                          ''''####''''         
             ,#######,   #######,   ,#######,      ##                                
            ,#'     '#,  ##    ##  ,#'     '#,    #''#        ######   ,####,        
            ##       ##  ##   ,#'  ##            #'  '#       #        #'  '#        
            ##       ##  #######   ##           ,######,      #####,   #    #        
            '#,     ,#'  ##    ##  '#,     ,#' ,#      #,         ##   #,  ,#        
             '#######'   ##     ##  '#######'  #'      '#     #####' # '####'        



                  #######################################################
                  #                        -***-                        #
                  #          Department of theory and spectroscopy      #
                  #    Directorship and core code : Frank Neese         #
                  #        Max Planck Institute fuer Kohlenforschung    #
                  #                Kaiser Wilhelm Platz 1               #
                  #                 D-45470 Muelheim/Ruhr               #
                  #                      Germany                        #
                  #                                                     #
                  #                  All rights reserved                #
                  #                        -***-                        #
                  #######################################################


                         Program Version 5.0.0 -  RELEASE  -
                                (SVN: $Rev: 19529$)
                ($Date: 2021-06-28 11:36:33 +0200 (Mo, 28 Jun 2021) $)


 With contributions from (in alphabetic order):
   Daniel Aravena         : Magnetic Suceptibility
   Michael Atanasov       : Ab Initio Ligand Field Theory (pilot matlab implementation)
   Alexander A. Auer      : GIAO ZORA, VPT2 properties, NMR spectrum
   Ute Becker             : Parallelization
   Giovanni Bistoni       : ED, misc. LED, open-shell LED, HFLD
   Martin Brehm           : Molecular dynamics
   Dmytro Bykov           : SCF Hessian
   Vijay G. Chilkuri      : MRCI spin determinant printing, contributions to CSF-ICE
   Dipayan Datta          : RHF DLPNO-CCSD density
   Achintya Kumar Dutta   : EOM-CC, STEOM-CC
   Dmitry Ganyushin       : Spin-Orbit,Spin-Spin,Magnetic field MRCI
   Miquel Garcia          : C-PCM Hessian, Gaussian charge scheme
   Yang Guo               : DLPNO-NEVPT2, F12-NEVPT2, CIM, IAO-localization
   Andreas Hansen         : Spin unrestricted coupled pair/coupled cluster methods
   Benjamin Helmich-Paris : MC-RPA, TRAH-SCF, COSX integrals
   Lee Huntington         : MR-EOM, pCC
   Robert Izsak           : Overlap fitted RIJCOSX, COSX-SCS-MP3, EOM
   Marcus Kettner         : VPT2
   Christian Kollmar      : KDIIS, OOCD, Brueckner-CCSD(T), CCSD density, CASPT2, CASPT2-K
   Simone Kossmann        : Meta GGA functionals, TD-DFT gradient, OOMP2, MP2 Hessian
   Martin Krupicka        : Initial AUTO-CI
   Lucas Lang             : DCDCAS
   Marvin Lechner         : AUTO-CI (C++ implementation), FIC-MRCC
   Dagmar Lenk            : GEPOL surface, SMD
   Dimitrios Liakos       : Extrapolation schemes; Compound Job, initial MDCI parallelization
   Dimitrios Manganas     : Further ROCIS development; embedding schemes
   Dimitrios Pantazis     : SARC Basis sets
   Anastasios Papadopoulos: AUTO-CI, single reference methods and gradients
   Taras Petrenko         : DFT Hessian,TD-DFT gradient, ASA, ECA, R-Raman, ABS, FL, XAS/XES, NRVS
   Peter Pinski           : DLPNO-MP2, DLPNO-MP2 Gradient
   Christoph Reimann      : Effective Core Potentials
   Marius Retegan         : Local ZFS, SOC
   Christoph Riplinger    : Optimizer, TS searches, QM/MM, DLPNO-CCSD(T), (RO)-DLPNO pert. Triples
   Tobias Risthaus        : Range-separated hybrids, TD-DFT gradient, RPA, STAB
   Michael Roemelt        : Original ROCIS implementation
   Masaaki Saitow         : Open-shell DLPNO-CCSD energy and density
   Barbara Sandhoefer     : DKH picture change effects
   Avijit Sen             : IP-ROCIS
   Kantharuban Sivalingam : CASSCF convergence, NEVPT2, FIC-MRCI
   Bernardo de Souza      : ESD, SOC TD-DFT
   Georgi Stoychev        : AutoAux, RI-MP2 NMR
   Willem Van den Heuvel  : Paramagnetic NMR
   Boris Wezisla          : Elementary symmetry handling
   Frank Wennmohs         : Technical directorship


 We gratefully acknowledge several colleagues who have allowed us to
 interface, adapt or use parts of their codes:
   Stefan Grimme, W. Hujo, H. Kruse, P. Pracht,  : VdW corrections, initial TS optimization,
                  C. Bannwarth, S. Ehlert          DFT functionals, gCP, sTDA/sTD-DF
   Ed Valeev, F. Pavosevic, A. Kumar             : LibInt (2-el integral package), F12 methods
   Garnet Chan, S. Sharma, J. Yang, R. Olivares  : DMRG
   Ulf Ekstrom                                   : XCFun DFT Library
   Mihaly Kallay                                 : mrcc  (arbitrary order and MRCC methods)
   Jiri Pittner, Ondrej Demel                    : Mk-CCSD
   Frank Weinhold                                : gennbo (NPA and NBO analysis)
   Christopher J. Cramer and Donald G. Truhlar   : smd solvation model
   Lars Goerigk                                  : TD-DFT with DH, B97 family of functionals
   V. Asgeirsson, H. Jonsson                     : NEB implementation
   FAccTs GmbH                                   : IRC, NEB, NEB-TS, DLPNO-Multilevel, CI-OPT
                                                   MM, QMMM, 2- and 3-layer-ONIOM, Crystal-QMMM,
                                                   LR-CPCM, SF, NACMEs, symmetry and pop. for TD-DFT,
                                                   nearIR, NL-DFT gradient (VV10), updates on ESD,
                                                   ML-optimized integration grids
   S Lehtola, MJT Oliveira, MAL Marques          : LibXC Library
   Liviu Ungur et al                             : ANISO software


 Your calculation uses the libint2 library for the computation of 2-el integrals
 For citations please refer to: http://libint.valeyev.net

 Your ORCA version has been built with support for libXC version: 5.1.0
 For citations please refer to: https://tddft.org/programs/libxc/

 This ORCA versions uses:
   CBLAS   interface :  Fast vector & matrix operations
   LAPACKE interface :  Fast linear algebra routines
   SCALAPACK package :  Parallel linear algebra routines
   Shared memory     :  Shared parallel matrices
   BLAS/LAPACK       :  OpenBLAS 0.3.15  USE64BITINT DYNAMIC_ARCH NO_AFFINITY Haswell SINGLE_THREADED
        Core in use  :  Haswell
   Copyright (c) 2011-2014, The OpenBLAS Project


Your calculation utilizes the atom-pairwise dispersion correction
with the zero-damping scheme (D30)
Cite in your paper:
S.Grimme, J.Antony, S.Ehrlich and H.Krieg, J.Chem.Phys., 132, (2010), 154104 
   

XCFun DFT library Copyright 2009-2010 Ulf Ekstrom and contributors.
See http://admol.org/xcfun for more information.
This is free software; see the source code for copying conditions.
There is ABSOLUTELY NO WARRANTY; not even for MERCHANTABILITY or FITNESS FOR A PARTICULAR PURPOSE.
For details see the documentation.
Scientific users of this library should cite U. Ekstrom, L. Visscher, R. Bast, A. J. Thorvaldsen and K. Ruud;
J.Chem.Theor.Comp. 2010, DOI: 10.1021/ct100117s
XCFun Version 0.99 

================================================================================

----- Orbital basis set information -----
Your calculation utilizes the basis: def2-SVP
   F. Weigend and R. Ahlrichs, Phys. Chem. Chem. Phys. 7, 3297 (2005).

----- AuxJ basis set information -----
Your calculation utilizes the auxiliary basis: def2/J
   F. Weigend, Phys. Chem. Chem. Phys. 8, 1057 (2006).

================================================================================
                                        WARNINGS
                       Please study these warnings very carefully!
================================================================================


INFO   : the flag for use of the SHARK integral package has been found!

================================================================================
                                       INPUT FILE
================================================================================
NAME = C1_pos.com
|  1> !wB97X-D3 RIJCOSX def2-SVP def2/J TightSCF 
|  2> *xyz 0 1
|  3> C          2.20996       -2.81239       -3.66571
|  4> C          2.48901       -1.66851       -2.73754
|  5> C          3.59631       -0.94761       -2.95225
|  6> N          1.66394       -1.41369       -1.77781
|  7> H          0.81164       -1.96318       -1.70275
|  8> H          1.84550       -0.63508       -1.15875
|  9> H          4.20535       -1.17600       -3.73383
| 10> H          3.81723       -0.12585       -2.40604
| 11> H          2.99011       -2.87840       -4.39503
| 12> H          1.27381       -2.65174       -4.15838
| 13> H          2.16680       -3.72339       -3.10614
| 14> *
| 15> 
| 16> %MaxCore 64000
| 17> %pal nprocs 18
| 18> end  
| 19> 
| 20> %scf
| 21>   MaxIter 150
| 22> end
| 23> 
| 24> 
| 25>                          ****END OF INPUT****
================================================================================

                       ****************************
                       * Single Point Calculation *
                       ****************************

---------------------------------
CARTESIAN COORDINATES (ANGSTROEM)
---------------------------------
  C      2.209960   -2.812390   -3.665710
  C      2.489010   -1.668510   -2.737540
  C      3.596310   -0.947610   -2.952250
  N      1.663940   -1.413690   -1.777810
  H      0.811640   -1.963180   -1.702750
  H      1.845500   -0.635080   -1.158750
  H      4.205350   -1.176000   -3.733830
  H      3.817230   -0.125850   -2.406040
  H      2.990110   -2.878400   -4.395030
  H      1.273810   -2.651740   -4.158380
  H      2.166800   -3.723390   -3.106140

----------------------------
CARTESIAN COORDINATES (A.U.)
----------------------------
  NO LB      ZA    FRAG     MASS         X           Y           Z
   0 C     6.0000    0    12.011    4.176219   -5.314647   -6.927188
   1 C     6.0000    0    12.011    4.703547   -3.153027   -5.173201
   2 C     6.0000    0    12.011    6.796041   -1.790723   -5.578944
   3 N     7.0000    0    14.007    3.144391   -2.671487   -3.359574
   4 H     1.0000    0     1.008    1.533777   -3.709873   -3.217731
   5 H     1.0000    0     1.008    3.487490   -1.200127   -2.189720
   6 H     1.0000    0     1.008    7.946960   -2.222318   -7.055916
   7 H     1.0000    0     1.008    7.213519   -0.237822   -4.546757
   8 H     1.0000    0     1.008    5.650489   -5.439388   -8.305403
   9 H     1.0000    0     1.008    2.407152   -5.011062   -7.858199
  10 H     1.0000    0     1.008    4.094659   -7.036187   -5.869754

--------------------------------
INTERNAL COORDINATES (ANGSTROEM)
--------------------------------
 C      0   0   0     0.000000000000     0.00000000     0.00000000
 C      1   0   0     1.499276460764     0.00000000     0.00000000
 C      2   1   0     1.338622607048   117.74534069     0.00000000
 N      2   1   3     1.291028818501   119.46262227   179.73240873
 H      4   2   1     1.016852277226   118.93875800   356.56161909
 H      4   2   1     1.011154216378   119.49556415   180.77765573
 H      3   2   1     1.016837750135   119.85311119     0.99564669
 H      3   2   1     1.011158003529   122.12376033   175.86157171
 H      1   2   3     1.069999535047   109.47114110     0.26737248
 H      1   2   3     1.070004193403   109.47144096   240.26772953
 H      1   2   3     1.070001107710   109.47121684   120.26785412

---------------------------
INTERNAL COORDINATES (A.U.)
---------------------------
 C      0   0   0     0.000000000000     0.00000000     0.00000000
 C      1   0   0     2.833221909878     0.00000000     0.00000000
 C      2   1   0     2.529630123996   117.74534069     0.00000000
 N      2   1   3     2.439690897967   119.46262227   179.73240873
 H      4   2   1     1.921572322612   118.93875800   356.56161909
 H      4   2   1     1.910804548115   119.49556415   180.77765573
 H      3   2   1     1.921544870388   119.85311119     0.99564669
 H      3   2   1     1.910811704792   122.12376033   175.86157171
 H      1   2   3     2.022006084661   109.47114110     0.26737248
 H      1   2   3     2.022014887679   109.47144096   240.26772953
 H      1   2   3     2.022009056564   109.47121684   120.26785412

---------------------
BASIS SET INFORMATION
---------------------
There are 3 groups of distinct atoms

 Group   1 Type C   : 7s4p1d contracted to 3s2p1d pattern {511/31/1}
 Group   2 Type N   : 7s4p1d contracted to 3s2p1d pattern {511/31/1}
 Group   3 Type H   : 4s1p contracted to 2s1p pattern {31/1}

Atom   0C    basis set group =>   1
Atom   1C    basis set group =>   1
Atom   2C    basis set group =>   1
Atom   3N    basis set group =>   2
Atom   4H    basis set group =>   3
Atom   5H    basis set group =>   3
Atom   6H    basis set group =>   3
Atom   7H    basis set group =>   3
Atom   8H    basis set group =>   3
Atom   9H    basis set group =>   3
Atom  10H    basis set group =>   3
---------------------------------
AUXILIARY/J BASIS SET INFORMATION
---------------------------------
There are 3 groups of distinct atoms

 Group   1 Type C   : 12s5p4d2f1g contracted to 6s4p3d1f1g pattern {711111/2111/211/2/1}
 Group   2 Type N   : 12s5p4d2f1g contracted to 6s4p3d1f1g pattern {711111/2111/211/2/1}
 Group   3 Type H   : 5s2p1d contracted to 3s1p1d pattern {311/2/1}

Atom   0C    basis set group =>   1
Atom   1C    basis set group =>   1
Atom   2C    basis set group =>   1
Atom   3N    basis set group =>   2
Atom   4H    basis set group =>   3
Atom   5H    basis set group =>   3
Atom   6H    basis set group =>   3
Atom   7H    basis set group =>   3
Atom   8H    basis set group =>   3
Atom   9H    basis set group =>   3
Atom  10H    basis set group =>   3


           ************************************************************
           *        Program running with 18 parallel MPI-processes    *
           *              working on a common directory               *
           ************************************************************
------------------------------------------------------------------------------
                           ORCA GTO INTEGRAL CALCULATION
                           -- RI-GTO INTEGRALS CHOSEN --
------------------------------------------------------------------------------
------------------------------------------------------------------------------
                   ___                                                        
                  /   \      - P O W E R E D   B Y -                         
                 /     \                                                     
                 |  |  |   _    _      __       _____    __    __             
                 |  |  |  | |  | |    /  \     |  _  \  |  |  /  |          
                  \  \/   | |  | |   /    \    | | | |  |  | /  /          
                 / \  \   | |__| |  /  /\  \   | |_| |  |  |/  /          
                |  |  |   |  __  | /  /__\  \  |    /   |      \           
                |  |  |   | |  | | |   __   |  |    \   |  |\   \          
                \     /   | |  | | |  |  |  |  | |\  \  |  | \   \       
                 \___/    |_|  |_| |__|  |__|  |_| \__\ |__|  \__/        
                                                                              
                      - O R C A' S   B I G   F R I E N D -                    
                                      &                                       
                       - I N T E G R A L  F E E D E R -                       
                                                                              
 v1 FN, 2020, v2 2021                                                         
------------------------------------------------------------------------------


Reading SHARK input file C1_pos.SHARKINP.tmp ... ok
----------------------
SHARK INTEGRAL PACKAGE
----------------------

Number of atoms                             ...     11
Number of basis functions                   ...     91
Number of shells                            ...     45
Maximum angular momentum                    ...      2
Integral batch strategy                     ... SHARK/LIBINT Hybrid
RI-J (if used) integral strategy            ... SPLIT-RIJ (Revised 2003 algorithm where possible)
Printlevel                                  ...      1
Contraction scheme used                     ... SEGMENTED contraction
Coulomb Range Separation                    ... NOT USED
Exchange Range Separation                   ... Long Range
   Mu parameter                             ...  0.250000
   Scaling (regular/separated)              ...  0.195728  0.804272
Finite Nucleus Model                        ... NOT USED
Auxiliary Coulomb fitting basis             ... AVAILABLE
   # of basis functions in Aux-J            ...    273
   # of shells in Aux-J                     ...     95
   Maximum angular momentum in Aux-J        ...      4
Auxiliary J/K fitting basis                 ... NOT available
Auxiliary Correlation fitting basis         ... NOT available
Auxiliary 'external' fitting basis          ... NOT available
Integral threshold                          ...     2.500000e-11
Primitive cut-off                           ...     2.500000e-12
Primitive pair pre-selection threshold      ...     2.500000e-12

Calculating pre-screening integrals         ... done (  0.0 sec) Dimension = 45
Organizing shell pair data                  ... done (  0.0 sec)
Shell pair information
Total number of shell pairs                 ...      1035
Shell pairs after pre-screening             ...      1032
Total number of primitive shell pairs       ...      3559
Primitive shell pairs kept                  ...      2954
          la=0 lb=0:    348 shell pairs
          la=1 lb=0:    390 shell pairs
          la=1 lb=1:    120 shell pairs
          la=2 lb=0:    104 shell pairs
          la=2 lb=1:     60 shell pairs
          la=2 lb=2:     10 shell pairs

Calculating one electron integrals          ... done (  0.0 sec)
Calculating RI/J V-Matrix + Cholesky decomp.... done (  0.0 sec)
Calculating Nuclear repulsion               ... done (  0.0 sec) ENN=    124.561985141093 Eh

SHARK setup successfully completed in   0.2 seconds

Maximum memory used throughout the entire GTOINT-calculation: 8.8 MB


           ************************************************************
           *        Program running with 18 parallel MPI-processes    *
           *              working on a common directory               *
           ************************************************************
-------------------------------------------------------------------------------
                                 ORCA SCF
-------------------------------------------------------------------------------

------------
SCF SETTINGS
------------
Hamiltonian:
 Density Functional     Method          .... DFT(GTOs)
 Exchange Functional    Exchange        .... WB97X-D3
 Correlation Functional Correlation     .... WB97X-D3
 Gradients option       PostSCFGGA      .... off
 Hybrid DFT is turned on
   Fraction HF Exchange ScalHFX         ....  0.195728
   Scaling of DF-GGA-X  ScalDFX         ....  0.000000
   Scaling of DF-GGA-C  ScalDFC         ....  1.000000
   Scaling of DF-LDA-C  ScalLDAC        ....  1.000000
   Perturbative correction              ....  0.000000
   Density functional embedding theory  .... OFF
 Long-range corrected/Screened/Range-Separated Hybrid DFT is turned on
   Amount of maximum screened exact exchange              ....  0.804272
   Range separation parameter mu (erf(mu*r12)/r12)        ....  0.250000
 RI-approximation to the Coulomb term is turned on
   Number of AuxJ basis functions       .... 273
   RIJ-COSX (HFX calculated with COS-X)).... on


General Settings:
 Integral files         IntName         .... C1_pos
 Hartree-Fock type      HFTyp           .... RHF
 Total Charge           Charge          ....    0
 Multiplicity           Mult            ....    1
 Number of Electrons    NEL             ....   32
 Basis Dimension        Dim             ....   91
 Nuclear Repulsion      ENuc            ....    124.5619851411 Eh

Convergence Acceleration:
 DIIS                   CNVDIIS         .... on
   Start iteration      DIISMaxIt       ....    12
   Startup error        DIISStart       ....  0.200000
   # of expansion vecs  DIISMaxEq       ....     5
   Bias factor          DIISBfac        ....   1.050
   Max. coefficient     DIISMaxC        ....  10.000
 Trust-Rad. Augm. Hess. CNVTRAH         .... auto
   Auto Start mean grad. ratio tolernc. ....  1.125000
   Auto Start start iteration           ....    20
   Auto Start num. interpolation iter.  ....    10
   Max. Number of Micro iterations      ....    16
   Max. Number of Macro iterations      .... Maxiter - #DIIS iter
   Number of Davidson start vectors     ....     2
   Converg. threshold I  (grad. norm)   ....   1.000e-05
   Converg. threshold II (energy diff.) ....   1.000e-08
   Grad. Scal. Fac. for Micro threshold ....   0.100
   Minimum threshold for Micro iter.    ....   0.010
   NR start threshold (gradient norm)   ....   0.001
   Initial trust radius                 ....   0.400
   Minimum AH scaling param. (alpha)    ....   1.000
   Maximum AH scaling param. (alpha)    .... 1000.000
   Orbital update algorithm             .... Taylor
   White noise on init. David. guess    .... on
   Maximum white noise                  ....   0.010
   Quad. conv. algorithm                .... NR
 SOSCF                  CNVSOSCF        .... on
   Start iteration      SOSCFMaxIt      ....   150
   Startup grad/error   SOSCFStart      ....  0.003300
 Level Shifting         CNVShift        .... on
   Level shift para.    LevelShift      ....    0.2500
   Turn off err/grad.   ShiftErr        ....    0.0010
 Zerner damping         CNVZerner       .... off
 Static damping         CNVDamp         .... on
   Fraction old density DampFac         ....    0.7000
   Max. Damping (<1)    DampMax         ....    0.9800
   Min. Damping (>=0)   DampMin         ....    0.0000
   Turn off err/grad.   DampErr         ....    0.1000
 Fernandez-Rico         CNVRico         .... off

SCF Procedure:
 Maximum # iterations   MaxIter         ....   150
 SCF integral mode      SCFMode         .... Direct
   Integral package                     .... SHARK and LIBINT hybrid scheme
 Reset frequency        DirectResetFreq ....    20
 Integral Threshold     Thresh          ....  2.500e-11 Eh
 Primitive CutOff       TCut            ....  2.500e-12 Eh

Convergence Tolerance:
 Convergence Check Mode ConvCheckMode   .... Total+1el-Energy
 Convergence forced     ConvForced      .... 0
 Energy Change          TolE            ....  1.000e-08 Eh
 1-El. energy change                    ....  1.000e-05 Eh
 Orbital Gradient       TolG            ....  1.000e-05
 Orbital Rotation angle TolX            ....  1.000e-05
 DIIS Error             TolErr          ....  5.000e-07


Diagonalization of the overlap matrix:
Smallest eigenvalue                        ... 2.038e-03
Time for diagonalization                   ...    0.004 sec
Threshold for overlap eigenvalues          ... 1.000e-08
Number of eigenvalues below threshold      ... 0
Time for construction of square roots      ...    0.005 sec
Total time needed                          ...    0.010 sec

Time for model grid setup =    0.045 sec

------------------------------
INITIAL GUESS: MODEL POTENTIAL
------------------------------
Loading Hartree-Fock densities                     ... done
Calculating cut-offs                               ... done
Initializing the effective Hamiltonian             ... done
Setting up the integral package (SHARK)            ... done
Starting the Coulomb interaction                   ... done (   0.0 sec)
Reading the grid                                   ... done
Mapping shells                                     ... done
Starting the XC term evaluation                    ... done (   0.0 sec)
  promolecular density results
     # of electrons  =     32.000723030
     EX              =    -24.002504326
     EC              =     -1.035773583
     EX+EC           =    -25.038277909
Transforming the Hamiltonian                       ... done (   0.0 sec)
Diagonalizing the Hamiltonian                      ... done (   0.0 sec)
Back transforming the eigenvectors                 ... done (   0.0 sec)
Now organizing SCF variables                       ... done
                      ------------------
                      INITIAL GUESS DONE (   0.1 sec)
                      ------------------
-------------------
DFT GRID GENERATION
-------------------

General Integration Accuracy     IntAcc      ... 4.388
Radial Grid Type                 RadialGrid  ... OptM3 with GC (2021)
Angular Grid (max. ang.)         AngularGrid ... 4 (Lebedev-302)
Angular grid pruning method      GridPruning ... 4 (adaptive)
Weight generation scheme         WeightScheme... Becke
Basis function cutoff            BFCut       ... 1.0000e-11
Integration weight cutoff        WCut        ... 1.0000e-14
Angular grids for H and He will be reduced by one unit
Partially contracted basis set               ... off
Rotationally invariant grid construction     ... off

Total number of grid points                  ...    46928
Total number of batches                      ...      738
Average number of points per batch           ...       63
Average number of grid points per atom       ...     4266
Time for grid setup =    0.305 sec

--------------------
COSX GRID GENERATION
--------------------

GRIDX 1
-------
General Integration Accuracy     IntAcc      ... 3.816
Radial Grid Type                 RadialGrid  ... OptM3 with GC (2021)
Angular Grid (max. ang.)         AngularGrid ... 1 (Lebedev-50)
Angular grid pruning method      GridPruning ... 4 (adaptive)
Weight generation scheme         WeightScheme... Becke
Basis function cutoff            BFCut       ... 1.0000e-11
Integration weight cutoff        WCut        ... 1.0000e-14
Angular grids for H and He will be reduced by one unit
Partially contracted basis set               ... on
Rotationally invariant grid construction     ... off

Total number of grid points                  ...     6050
Total number of batches                      ...      100
Average number of points per batch           ...       60
Average number of grid points per atom       ...      550
UseSFitting                                  ... on

GRIDX 2
-------
General Integration Accuracy     IntAcc      ... 4.020
Radial Grid Type                 RadialGrid  ... OptM3 with GC (2021)
Angular Grid (max. ang.)         AngularGrid ... 2 (Lebedev-110)
Angular grid pruning method      GridPruning ... 4 (adaptive)
Weight generation scheme         WeightScheme... Becke
Basis function cutoff            BFCut       ... 1.0000e-11
Integration weight cutoff        WCut        ... 1.0000e-14
Angular grids for H and He will be reduced by one unit
Partially contracted basis set               ... on
Rotationally invariant grid construction     ... off

Total number of grid points                  ...    12776
Total number of batches                      ...      205
Average number of points per batch           ...       62
Average number of grid points per atom       ...     1161
UseSFitting                                  ... on

GRIDX 3
-------
General Integration Accuracy     IntAcc      ... 4.338
Radial Grid Type                 RadialGrid  ... OptM3 with GC (2021)
Angular Grid (max. ang.)         AngularGrid ... 3 (Lebedev-194)
Angular grid pruning method      GridPruning ... 4 (adaptive)
Weight generation scheme         WeightScheme... Becke
Basis function cutoff            BFCut       ... 1.0000e-11
Integration weight cutoff        WCut        ... 1.0000e-14
Angular grids for H and He will be reduced by one unit
Partially contracted basis set               ... on
Rotationally invariant grid construction     ... off

Total number of grid points                  ...    28021
Total number of batches                      ...      444
Average number of points per batch           ...       63
Average number of grid points per atom       ...     2547
UseSFitting                                  ... on

Time for X-Grid setup             =    0.182 sec

--------------
SCF ITERATIONS
--------------
ITER       Energy         Delta-E        Max-DP      RMS-DP      [F,P]     Damp
               ***  Starting incremental Fock matrix formation  ***
  0   -172.8805337463   0.000000000000 0.07820787  0.00299128  0.2051180 0.7000
  1   -172.9564898364  -0.075956090087 0.05265820  0.00219433  0.1246629 0.7000
                               ***Turning on DIIS***
  2   -172.9965602417  -0.040070405232 0.09130768  0.00429750  0.0647190 0.0000
  3   -173.0599894557  -0.063429214011 0.04135760  0.00143175  0.0477503 0.0000
  4   -173.0693800479  -0.009390592185 0.00647167  0.00027168  0.0080150 0.0000
                      *** Initiating the SOSCF procedure ***
                           *** Shutting down DIIS ***
                      *** Re-Reading the Fockian *** 
                      *** Removing any level shift *** 
ITER      Energy       Delta-E        Grad      Rot      Max-DP    RMS-DP
  5   -173.06965281  -0.0002727642  0.001011  0.001011  0.002037  0.000096
               *** Restarting incremental Fock matrix formation ***
  6   -173.06965083   0.0000019779  0.000389  0.000928  0.000990  0.000065
  7   -173.06965587  -0.0000050366  0.000367  0.001200  0.000432  0.000043
  8   -173.06965721  -0.0000013347  0.000086  0.000179  0.000139  0.000009
  9   -173.06965730  -0.0000000957  0.000031  0.000046  0.000063  0.000003
 10   -173.06965732  -0.0000000193  0.000008  0.000019  0.000022  0.000001
 11   -173.06965732  -0.0000000002  0.000003  0.000006  0.000006  0.000000
                  ***Gradient check signals convergence***
              ***Rediagonalizing the Fockian in SOSCF/NRSCF***

               *****************************************************
               *                     SUCCESS                       *
               *           SCF CONVERGED AFTER  12 CYCLES          *
               *****************************************************

Old exchange energy                            =     -8.266288223 Eh
New exchange energy                            =     -8.266296506 Eh
Exchange energy change after final integration =     -0.000008284 Eh
Total energy after final integration           =   -173.069665604 Eh
Final COS-X integration done in                =     0.478 sec

----------------
TOTAL SCF ENERGY
----------------

Total Energy       :         -173.06966560 Eh           -4709.46503 eV

Components:
Nuclear Repulsion  :          124.56198514 Eh            3389.50393 eV
Electronic Energy  :         -297.63165075 Eh           -8098.96896 eV
One Electron Energy:         -478.64326346 Eh          -13024.54535 eV
Two Electron Energy:          181.01161271 Eh            4925.57639 eV
Max COSX asymmetry :            0.00000162 Eh               0.00004 eV

Virial components:
Potential Energy   :         -344.66335042 Eh           -9378.76657 eV
Kinetic Energy     :          171.59368481 Eh            4669.30155 eV
Virial Ratio       :            2.00860160


DFT components:
N(Alpha)           :       15.999976906531 electrons
N(Beta)            :       15.999976906531 electrons
N(Total)           :       31.999953813063 electrons
E(XC)              :      -17.601263769300 Eh       
DFET-embed. en.    :        0.000000000000 Eh       

---------------
SCF CONVERGENCE
---------------

  Last Energy change         ...    2.9564e-10  Tolerance :   1.0000e-08
  Last MAX-Density change    ...    3.5527e-15  Tolerance :   1.0000e-07
  Last RMS-Density change    ...    6.4287e-17  Tolerance :   5.0000e-09
  Last Orbital Gradient      ...    1.0659e-06  Tolerance :   1.0000e-05
  Last Orbital Rotation      ...    2.4182e-06  Tolerance :   1.0000e-05

             **** THE GBW FILE WAS UPDATED (C1_pos.gbw) ****
             **** DENSITY C1_pos.scfp WAS UPDATED ****
             **** ENERGY FILE WAS UPDATED (C1_pos.en.tmp) ****
             **** THE GBW FILE WAS UPDATED (C1_pos.gbw) ****
             **** DENSITY C1_pos.scfp WAS UPDATED ****
----------------
ORBITAL ENERGIES
----------------

  NO   OCC          E(Eh)            E(eV) 
   0   2.0000     -14.434150      -392.7732 
   1   2.0000     -10.307066      -280.4695 
   2   2.0000     -10.277044      -279.6526 
   3   2.0000     -10.214536      -277.9517 
   4   2.0000      -1.041390       -28.3377 
   5   2.0000      -0.859825       -23.3970 
   6   2.0000      -0.787378       -21.4256 
   7   2.0000      -0.674117       -18.3437 
   8   2.0000      -0.631146       -17.1744 
   9   2.0000      -0.568470       -15.4688 
  10   2.0000      -0.531428       -14.4609 
  11   2.0000      -0.490758       -13.3542 
  12   2.0000      -0.482693       -13.1348 
  13   2.0000      -0.439251       -11.9526 
  14   2.0000      -0.432889       -11.7795 
  15   2.0000      -0.267069        -7.2673 
  16   0.0000       0.139810         3.8044 
  17   0.0000       0.151608         4.1255 
  18   0.0000       0.185434         5.0459 
  19   0.0000       0.199777         5.4362 
  20   0.0000       0.214096         5.8259 
  21   0.0000       0.243824         6.6348 
  22   0.0000       0.249500         6.7892 
  23   0.0000       0.293080         7.9751 
  24   0.0000       0.336850         9.1662 
  25   0.0000       0.403520        10.9803 
  26   0.0000       0.467269        12.7150 
  27   0.0000       0.524586        14.2747 
  28   0.0000       0.550806        14.9882 
  29   0.0000       0.554403        15.0861 
  30   0.0000       0.588834        16.0230 
  31   0.0000       0.640845        17.4383 
  32   0.0000       0.654730        17.8161 
  33   0.0000       0.672154        18.2902 
  34   0.0000       0.697302        18.9745 
  35   0.0000       0.711553        19.3623 
  36   0.0000       0.775641        21.1063 
  37   0.0000       0.789523        21.4840 
  38   0.0000       0.795891        21.6573 
  39   0.0000       0.800328        21.7780 
  40   0.0000       0.838164        22.8076 
  41   0.0000       0.846408        23.0319 
  42   0.0000       0.873787        23.7770 
  43   0.0000       0.905335        24.6354 
  44   0.0000       0.927883        25.2490 
  45   0.0000       0.983454        26.7611 
  46   0.0000       1.030483        28.0409 
  47   0.0000       1.144629        31.1469 
  48   0.0000       1.246474        33.9183 
  49   0.0000       1.282800        34.9068 
  50   0.0000       1.341563        36.5058 
  51   0.0000       1.358487        36.9663 
  52   0.0000       1.451257        39.4907 
  53   0.0000       1.492272        40.6068 
  54   0.0000       1.637193        44.5503 
  55   0.0000       1.640428        44.6383 
  56   0.0000       1.675153        45.5832 
  57   0.0000       1.737633        47.2834 
  58   0.0000       1.803639        49.0795 
  59   0.0000       1.830009        49.7971 
  60   0.0000       1.856555        50.5194 
  61   0.0000       1.875226        51.0275 
  62   0.0000       1.913933        52.0808 
  63   0.0000       1.925138        52.3857 
  64   0.0000       1.981118        53.9090 
  65   0.0000       1.988788        54.1177 
  66   0.0000       2.021648        55.0118 
  67   0.0000       2.066951        56.2446 
  68   0.0000       2.137352        58.1603 
  69   0.0000       2.200631        59.8822 
  70   0.0000       2.214945        60.2717 
  71   0.0000       2.339122        63.6508 
  72   0.0000       2.354143        64.0595 
  73   0.0000       2.426957        66.0409 
  74   0.0000       2.446109        66.5620 
  75   0.0000       2.463111        67.0247 
  76   0.0000       2.523438        68.6662 
  77   0.0000       2.619929        71.2919 
  78   0.0000       2.688238        73.1507 
  79   0.0000       2.748406        74.7879 
  80   0.0000       2.827335        76.9357 
  81   0.0000       2.874203        78.2110 
  82   0.0000       2.912300        79.2477 
  83   0.0000       2.982996        81.1714 
  84   0.0000       3.066689        83.4489 
  85   0.0000       3.090191        84.0884 
  86   0.0000       3.197017        86.9953 
  87   0.0000       3.241747        88.2124 
  88   0.0000       3.308794        90.0369 
  89   0.0000       3.527756        95.9951 
  90   0.0000       3.733059       101.5817 

                    ********************************
                    * MULLIKEN POPULATION ANALYSIS *
                    ********************************

-----------------------
MULLIKEN ATOMIC CHARGES
-----------------------
   0 C :    0.071236
   1 C :   -0.191543
   2 C :   -0.086045
   3 N :   -0.077580
   4 H :    0.122926
   5 H :    0.130254
   6 H :   -0.022296
   7 H :   -0.037242
   8 H :    0.028807
   9 H :    0.030417
  10 H :    0.031064
Sum of atomic charges:   -0.0000000

--------------------------------
MULLIKEN REDUCED ORBITAL CHARGES
--------------------------------
  0 C s       :     2.908856  s :     2.908856
      pz      :     0.993703  p :     2.991972
      px      :     1.017756
      py      :     0.980514
      dz2     :     0.002131  d :     0.027935
      dxz     :     0.007669
      dyz     :     0.007923
      dx2y2   :     0.008452
      dxy     :     0.001761
  1 C s       :     3.072472  s :     3.072472
      pz      :     0.986435  p :     3.044356
      px      :     1.003055
      py      :     1.054865
      dz2     :     0.016535  d :     0.074716
      dxz     :     0.016513
      dyz     :     0.013170
      dx2y2   :     0.015471
      dxy     :     0.013027
  2 C s       :     3.027169  s :     3.027169
      pz      :     1.009348  p :     3.033674
      px      :     1.026953
      py      :     0.997373
      dz2     :     0.002904  d :     0.025202
      dxz     :     0.005748
      dyz     :     0.004522
      dx2y2   :     0.006894
      dxy     :     0.005134
  3 N s       :     3.250220  s :     3.250220
      pz      :     1.314588  p :     3.809546
      px      :     1.201179
      py      :     1.293779
      dz2     :     0.003941  d :     0.017814
      dxz     :     0.003527
      dyz     :     0.003895
      dx2y2   :     0.002981
      dxy     :     0.003470
  4 H s       :     0.831377  s :     0.831377
      pz      :     0.009902  p :     0.045696
      px      :     0.020919
      py      :     0.014875
  5 H s       :     0.824548  s :     0.824548
      pz      :     0.016152  p :     0.045198
      px      :     0.009199
      py      :     0.019847
  6 H s       :     0.992922  s :     0.992922
      pz      :     0.012776  p :     0.029374
      px      :     0.009773
      py      :     0.006825
  7 H s       :     1.007907  s :     1.007907
      pz      :     0.009570  p :     0.029334
      px      :     0.006524
      py      :     0.013240
  8 H s       :     0.946335  s :     0.946335
      pz      :     0.009385  p :     0.024858
      px      :     0.010833
      py      :     0.004640
  9 H s       :     0.944156  s :     0.944156
      pz      :     0.007368  p :     0.025427
      px      :     0.012685
      py      :     0.005374
 10 H s       :     0.943556  s :     0.943556
      pz      :     0.007685  p :     0.025380
      px      :     0.005588
      py      :     0.012108


                     *******************************
                     * LOEWDIN POPULATION ANALYSIS *
                     *******************************

----------------------
LOEWDIN ATOMIC CHARGES
----------------------
   0 C :   -0.042879
   1 C :    0.000493
   2 C :   -0.196554
   3 N :   -0.002185
   4 H :    0.077279
   5 H :    0.082580
   6 H :   -0.000602
   7 H :   -0.009346
   8 H :    0.036915
   9 H :    0.027138
  10 H :    0.027162

-------------------------------
LOEWDIN REDUCED ORBITAL CHARGES
-------------------------------
  0 C s       :     2.810479  s :     2.810479
      pz      :     1.050923  p :     3.157437
      px      :     1.068775
      py      :     1.037739
      dz2     :     0.004723  d :     0.074963
      dxz     :     0.021060
      dyz     :     0.022245
      dx2y2   :     0.022800
      dxy     :     0.004134
  1 C s       :     2.821656  s :     2.821656
      pz      :     0.961897  p :     3.003817
      px      :     1.031510
      py      :     1.010410
      dz2     :     0.037938  d :     0.174034
      dxz     :     0.039897
      dyz     :     0.030295
      dx2y2   :     0.034517
      dxy     :     0.031388
  2 C s       :     2.825379  s :     2.825379
      pz      :     1.110995  p :     3.298219
      px      :     1.088968
      py      :     1.098255
      dz2     :     0.008880  d :     0.072956
      dxz     :     0.016916
      dyz     :     0.013166
      dx2y2   :     0.017852
      dxy     :     0.016142
  3 N s       :     2.992641  s :     2.992641
      pz      :     1.351574  p :     3.960065
      px      :     1.266007
      py      :     1.342484
      dz2     :     0.010087  d :     0.049478
      dxz     :     0.009874
      dyz     :     0.010996
      dx2y2   :     0.009017
      dxy     :     0.009504
  4 H s       :     0.800275  s :     0.800275
      pz      :     0.026028  p :     0.122446
      px      :     0.055688
      py      :     0.040730
  5 H s       :     0.794819  s :     0.794819
      pz      :     0.043710  p :     0.122601
      px      :     0.023236
      py      :     0.055655
  6 H s       :     0.915282  s :     0.915282
      pz      :     0.036480  p :     0.085320
      px      :     0.028244
      py      :     0.020596
  7 H s       :     0.922802  s :     0.922802
      pz      :     0.028302  p :     0.086544
      px      :     0.020748
      py      :     0.037494
  8 H s       :     0.894261  s :     0.894261
      pz      :     0.026588  p :     0.068825
      px      :     0.028992
      py      :     0.013245
  9 H s       :     0.902017  s :     0.902017
      pz      :     0.020542  p :     0.070845
      px      :     0.034793
      py      :     0.015510
 10 H s       :     0.901887  s :     0.901887
      pz      :     0.021656  p :     0.070951
      px      :     0.014555
      py      :     0.034740


                      *****************************
                      * MAYER POPULATION ANALYSIS *
                      *****************************

  NA   - Mulliken gross atomic population
  ZA   - Total nuclear charge
  QA   - Mulliken gross atomic charge
  VA   - Mayer's total valence
  BVA  - Mayer's bonded valence
  FA   - Mayer's free valence

  ATOM       NA         ZA         QA         VA         BVA        FA
  0 C      5.9288     6.0000     0.0712     3.8894     3.8894    -0.0000
  1 C      6.1915     6.0000    -0.1915     4.3640     4.3640    -0.0000
  2 C      6.0860     6.0000    -0.0860     3.8607     3.8607    -0.0000
  3 N      7.0776     7.0000    -0.0776     3.2407     3.2407    -0.0000
  4 H      0.8771     1.0000     0.1229     1.0010     1.0010    -0.0000
  5 H      0.8697     1.0000     0.1303     0.9989     0.9989    -0.0000
  6 H      1.0223     1.0000    -0.0223     0.9948     0.9948    -0.0000
  7 H      1.0372     1.0000    -0.0372     0.9917     0.9917    -0.0000
  8 H      0.9712     1.0000     0.0288     1.0096     1.0096    -0.0000
  9 H      0.9696     1.0000     0.0304     0.9943     0.9943    -0.0000
 10 H      0.9689     1.0000     0.0311     0.9942     0.9942    -0.0000

  Mayer bond orders larger than 0.100000
B(  0-C ,  1-C ) :   1.0328 B(  0-C ,  8-H ) :   0.9608 B(  0-C ,  9-H ) :   0.9584 
B(  0-C , 10-H ) :   0.9585 B(  1-C ,  2-C ) :   1.8410 B(  1-C ,  3-N ) :   1.2792 
B(  2-C ,  6-H ) :   0.9497 B(  2-C ,  7-H ) :   0.9670 B(  3-N ,  4-H ) :   0.9524 
B(  3-N ,  5-H ) :   0.9473 

-------
TIMINGS
-------

Total SCF time: 0 days 0 hours 0 min 4 sec 

Total time                  ....       4.717 sec
Sum of individual times     ....       4.565 sec  ( 96.8%)

Fock matrix formation       ....       3.916 sec  ( 83.0%)
  Split-RI-J                ....       0.392 sec  ( 10.0% of F)
  Chain of spheres X        ....       2.938 sec  ( 75.0% of F)
  XC integration            ....       0.546 sec  ( 13.9% of F)
    Basis function eval.    ....       0.188 sec  ( 34.5% of XC)
    Density eval.           ....       0.080 sec  ( 14.7% of XC)
    XC-Functional eval.     ....       0.081 sec  ( 14.8% of XC)
    XC-Potential eval.      ....       0.077 sec  ( 14.0% of XC)
Diagonalization             ....       0.027 sec  (  0.6%)
Density matrix formation    ....       0.003 sec  (  0.1%)
Population analysis         ....       0.007 sec  (  0.1%)
Initial guess               ....       0.029 sec  (  0.6%)
Orbital Transformation      ....       0.000 sec  (  0.0%)
Orbital Orthonormalization  ....       0.000 sec  (  0.0%)
DIIS solution               ....       0.024 sec  (  0.5%)
SOSCF solution              ....       0.027 sec  (  0.6%)
Grid generation             ....       0.531 sec  ( 11.3%)

Maximum memory used throughout the entire SCF-calculation: 46.6 MB


-------------------------------------------------------------------------------
                          DFT DISPERSION CORRECTION                            
                                                                               
                              DFTD3 V3.1  Rev 1                                
                              USING zero damping                               
-------------------------------------------------------------------------------
The omegaB97X-D3 functional is recognized. Fit by Chai et al.
Active option DFTDOPT                   ...         3   

molecular C6(AA) [au] = 933.757128 


            DFT-D V3
 parameters
 s6 scaling factor         :     1.0000 
 rs6 scaling factor        :     1.2810 
 s8 scaling factor         :     1.0000 
 rs8 scaling factor        :     1.0940 
 Damping factor alpha6     :    14.0000 
 Damping factor alpha8     :    16.0000 
 ad hoc parameters k1-k3   :    16.0000     1.3333    -4.0000 

 Edisp/kcal,au: -1.054238486580  -0.001680035789 
 E6   /kcal   :  -0.397076159 
 E8   /kcal   :  -0.657162328 
 % E8         :  62.335262509 

-------------------------   ----------------
Dispersion correction           -0.001680036
-------------------------   ----------------


-------------------------   --------------------
FINAL SINGLE POINT ENERGY      -173.071345639820
-------------------------   --------------------


                            ***************************************
                            *     ORCA property calculations      *
                            ***************************************

                                    ---------------------
                                    Active property flags
                                    ---------------------
   (+) Dipole Moment


------------------------------------------------------------------------------
                       ORCA ELECTRIC PROPERTIES CALCULATION
------------------------------------------------------------------------------

Dipole Moment Calculation                       ... on
Quadrupole Moment Calculation                   ... off
Polarizability Calculation                      ... off
GBWName                                         ... C1_pos.gbw
Electron density file                           ... C1_pos.scfp
The origin for moment calculation is the CENTER OF MASS  = ( 4.639875, -3.252220 -5.232588)

-------------
DIPOLE MOMENT
-------------
                                X             Y             Z
Electronic contribution:     -0.72984       0.83327       1.56358
Nuclear contribution   :     -0.07639      -1.03653      -1.19368
                        -----------------------------------------
Total Dipole Moment    :     -0.80623      -0.20326       0.36990
                        -----------------------------------------
Magnitude (a.u.)       :      0.91003
Magnitude (Debye)      :      2.31310



--------------------
Rotational spectrum 
--------------------
 
Rotational constants in cm-1:     0.347569     0.308531     0.168494 
Rotational constants in MHz : 10419.863808  9249.512495  5051.317883 

 Dipole components along the rotational axes: 
x,y,z [a.u.] :     0.083249    -0.903730    -0.066991 
x,y,z [Debye]:     0.211602    -2.297100    -0.170277 

 

Timings for individual modules:

Sum of individual times         ...        5.696 sec (=   0.095 min)
GTO integral calculation        ...        0.569 sec (=   0.009 min)  10.0 %
SCF iterations                  ...        5.127 sec (=   0.085 min)  90.0 %
                             ****ORCA TERMINATED NORMALLY****
TOTAL RUN TIME: 0 days 0 hours 0 minutes 6 seconds 251 msec
