
                                        *****************
                                        * O   R   C   A *
                                        *****************

                                            #,                                       
                                            ###                                      
                                            ####                                     
                                            #####                                    
                                            ######                                   
                                           ########,                                 
                                     ,,################,,,,,                         
                               ,,#################################,,                 
                          ,,##########################################,,             
                       ,#########################################, ''#####,          
                    ,#############################################,,   '####,        
                  ,##################################################,,,,####,       
                ,###########''''           ''''###############################       
              ,#####''   ,,,,##########,,,,          '''####'''          '####       
            ,##' ,,,,###########################,,,                        '##       
           ' ,,###''''                  '''############,,,                           
         ,,##''                                '''############,,,,        ,,,,,,###''
      ,#''                                            '''#######################'''  
     '                                                          ''''####''''         
             ,#######,   #######,   ,#######,      ##                                
            ,#'     '#,  ##    ##  ,#'     '#,    #''#        ######   ,####,        
            ##       ##  ##   ,#'  ##            #'  '#       #        #'  '#        
            ##       ##  #######   ##           ,######,      #####,   #    #        
            '#,     ,#'  ##    ##  '#,     ,#' ,#      #,         ##   #,  ,#        
             '#######'   ##     ##  '#######'  #'      '#     #####' # '####'        



                  #######################################################
                  #                        -***-                        #
                  #          Department of theory and spectroscopy      #
                  #    Directorship and core code : Frank Neese         #
                  #        Max Planck Institute fuer Kohlenforschung    #
                  #                Kaiser Wilhelm Platz 1               #
                  #                 D-45470 Muelheim/Ruhr               #
                  #                      Germany                        #
                  #                                                     #
                  #                  All rights reserved                #
                  #                        -***-                        #
                  #######################################################


                         Program Version 5.0.0 -  RELEASE  -
                                (SVN: $Rev: 19529$)
                ($Date: 2021-06-28 11:36:33 +0200 (Mo, 28 Jun 2021) $)


 With contributions from (in alphabetic order):
   Daniel Aravena         : Magnetic Suceptibility
   Michael Atanasov       : Ab Initio Ligand Field Theory (pilot matlab implementation)
   Alexander A. Auer      : GIAO ZORA, VPT2 properties, NMR spectrum
   Ute Becker             : Parallelization
   Giovanni Bistoni       : ED, misc. LED, open-shell LED, HFLD
   Martin Brehm           : Molecular dynamics
   Dmytro Bykov           : SCF Hessian
   Vijay G. Chilkuri      : MRCI spin determinant printing, contributions to CSF-ICE
   Dipayan Datta          : RHF DLPNO-CCSD density
   Achintya Kumar Dutta   : EOM-CC, STEOM-CC
   Dmitry Ganyushin       : Spin-Orbit,Spin-Spin,Magnetic field MRCI
   Miquel Garcia          : C-PCM Hessian, Gaussian charge scheme
   Yang Guo               : DLPNO-NEVPT2, F12-NEVPT2, CIM, IAO-localization
   Andreas Hansen         : Spin unrestricted coupled pair/coupled cluster methods
   Benjamin Helmich-Paris : MC-RPA, TRAH-SCF, COSX integrals
   Lee Huntington         : MR-EOM, pCC
   Robert Izsak           : Overlap fitted RIJCOSX, COSX-SCS-MP3, EOM
   Marcus Kettner         : VPT2
   Christian Kollmar      : KDIIS, OOCD, Brueckner-CCSD(T), CCSD density, CASPT2, CASPT2-K
   Simone Kossmann        : Meta GGA functionals, TD-DFT gradient, OOMP2, MP2 Hessian
   Martin Krupicka        : Initial AUTO-CI
   Lucas Lang             : DCDCAS
   Marvin Lechner         : AUTO-CI (C++ implementation), FIC-MRCC
   Dagmar Lenk            : GEPOL surface, SMD
   Dimitrios Liakos       : Extrapolation schemes; Compound Job, initial MDCI parallelization
   Dimitrios Manganas     : Further ROCIS development; embedding schemes
   Dimitrios Pantazis     : SARC Basis sets
   Anastasios Papadopoulos: AUTO-CI, single reference methods and gradients
   Taras Petrenko         : DFT Hessian,TD-DFT gradient, ASA, ECA, R-Raman, ABS, FL, XAS/XES, NRVS
   Peter Pinski           : DLPNO-MP2, DLPNO-MP2 Gradient
   Christoph Reimann      : Effective Core Potentials
   Marius Retegan         : Local ZFS, SOC
   Christoph Riplinger    : Optimizer, TS searches, QM/MM, DLPNO-CCSD(T), (RO)-DLPNO pert. Triples
   Tobias Risthaus        : Range-separated hybrids, TD-DFT gradient, RPA, STAB
   Michael Roemelt        : Original ROCIS implementation
   Masaaki Saitow         : Open-shell DLPNO-CCSD energy and density
   Barbara Sandhoefer     : DKH picture change effects
   Avijit Sen             : IP-ROCIS
   Kantharuban Sivalingam : CASSCF convergence, NEVPT2, FIC-MRCI
   Bernardo de Souza      : ESD, SOC TD-DFT
   Georgi Stoychev        : AutoAux, RI-MP2 NMR
   Willem Van den Heuvel  : Paramagnetic NMR
   Boris Wezisla          : Elementary symmetry handling
   Frank Wennmohs         : Technical directorship


 We gratefully acknowledge several colleagues who have allowed us to
 interface, adapt or use parts of their codes:
   Stefan Grimme, W. Hujo, H. Kruse, P. Pracht,  : VdW corrections, initial TS optimization,
                  C. Bannwarth, S. Ehlert          DFT functionals, gCP, sTDA/sTD-DF
   Ed Valeev, F. Pavosevic, A. Kumar             : LibInt (2-el integral package), F12 methods
   Garnet Chan, S. Sharma, J. Yang, R. Olivares  : DMRG
   Ulf Ekstrom                                   : XCFun DFT Library
   Mihaly Kallay                                 : mrcc  (arbitrary order and MRCC methods)
   Jiri Pittner, Ondrej Demel                    : Mk-CCSD
   Frank Weinhold                                : gennbo (NPA and NBO analysis)
   Christopher J. Cramer and Donald G. Truhlar   : smd solvation model
   Lars Goerigk                                  : TD-DFT with DH, B97 family of functionals
   V. Asgeirsson, H. Jonsson                     : NEB implementation
   FAccTs GmbH                                   : IRC, NEB, NEB-TS, DLPNO-Multilevel, CI-OPT
                                                   MM, QMMM, 2- and 3-layer-ONIOM, Crystal-QMMM,
                                                   LR-CPCM, SF, NACMEs, symmetry and pop. for TD-DFT,
                                                   nearIR, NL-DFT gradient (VV10), updates on ESD,
                                                   ML-optimized integration grids
   S Lehtola, MJT Oliveira, MAL Marques          : LibXC Library
   Liviu Ungur et al                             : ANISO software


 Your calculation uses the libint2 library for the computation of 2-el integrals
 For citations please refer to: http://libint.valeyev.net

 Your ORCA version has been built with support for libXC version: 5.1.0
 For citations please refer to: https://tddft.org/programs/libxc/

 This ORCA versions uses:
   CBLAS   interface :  Fast vector & matrix operations
   LAPACKE interface :  Fast linear algebra routines
   SCALAPACK package :  Parallel linear algebra routines
   Shared memory     :  Shared parallel matrices
   BLAS/LAPACK       :  OpenBLAS 0.3.15  USE64BITINT DYNAMIC_ARCH NO_AFFINITY Haswell SINGLE_THREADED
        Core in use  :  Haswell
   Copyright (c) 2011-2014, The OpenBLAS Project


================================================================================

----- Orbital basis set information -----
Your calculation utilizes the basis: def2-SVPD
   F. Weigend and R. Ahlrichs, Phys. Chem. Chem. Phys. 7, 3297 (2005).
   D. Rappoport and F. Furche, J. Chem. Phys. 133 134105 (2010).

----- AuxJ basis set information -----
Your calculation utilizes the auxiliary basis: def2/J
   F. Weigend, Phys. Chem. Chem. Phys. 8, 1057 (2006).

================================================================================
                                        WARNINGS
                       Please study these warnings very carefully!
================================================================================


INFO   : the flag for use of the SHARK integral package has been found!

================================================================================
                                       INPUT FILE
================================================================================
NAME = SVPD_LC_PBE_A_wt_dlpno_neg.com
|  1> !LC-PBE RIJCOSX def2-SVPD def2/J TightSCF
|  2> *xyz -1 1 
|  3> C          4.90646       -3.10282       -5.95484
|  4> C          3.51177       -2.80621       -6.49228
|  5> H          2.73604       -3.37345       -5.97374
|  6> H          3.44490       -3.04083       -7.55528
|  7> S          3.00462       -1.09621       -6.38926
|  8> O          4.12886       -0.32965       -6.95372
|  9> O          1.78128       -1.00078       -7.13640
| 10> O          2.85155       -0.78368       -4.95679
| 11> H          5.62703       -2.52424       -6.49422
| 12> H          5.12164       -4.14387       -6.07654
| 13> H          4.95004       -2.84862       -4.91639
| 14> *
| 15> 
| 16> %MaxCore 64000
| 17> 
| 18> %pal nprocs 4
| 19> end  
| 20> 
| 21> %scf
| 22>   MaxIter 150
| 23> end
| 24> 
| 25> 
| 26>                          ****END OF INPUT****
================================================================================

                       ****************************
                       * Single Point Calculation *
                       ****************************

---------------------------------
CARTESIAN COORDINATES (ANGSTROEM)
---------------------------------
  C      4.906460   -3.102820   -5.954840
  C      3.511770   -2.806210   -6.492280
  H      2.736040   -3.373450   -5.973740
  H      3.444900   -3.040830   -7.555280
  S      3.004620   -1.096210   -6.389260
  O      4.128860   -0.329650   -6.953720
  O      1.781280   -1.000780   -7.136400
  O      2.851550   -0.783680   -4.956790
  H      5.627030   -2.524240   -6.494220
  H      5.121640   -4.143870   -6.076540
  H      4.950040   -2.848620   -4.916390

----------------------------
CARTESIAN COORDINATES (A.U.)
----------------------------
  NO LB      ZA    FRAG     MASS         X           Y           Z
   0 C     6.0000    0    12.011    9.271866   -5.863480  -11.253017
   1 C     6.0000    0    12.011    6.636284   -5.302968  -12.268631
   2 H     1.0000    0     1.008    5.170366   -6.374897  -11.288733
   3 H     1.0000    0     1.008    6.509918   -5.746336  -14.277410
   4 S    16.0000    0    32.060    5.677909   -2.071537  -12.073952
   5 O     8.0000    0    15.999    7.802415   -0.622948  -13.140626
   6 O     8.0000    0    15.999    3.366131   -1.891200  -13.485842
   7 O     8.0000    0    15.999    5.388649   -1.480941   -9.366976
   8 H     1.0000    0     1.008   10.633546   -4.770122  -12.272297
   9 H     1.0000    0     1.008    9.678497   -7.830779  -11.482996
  10 H     1.0000    0     1.008    9.354220   -5.383112   -9.290631

--------------------------------
INTERNAL COORDINATES (ANGSTROEM)
--------------------------------
 C      0   0   0     0.000000000000     0.00000000     0.00000000
 C      1   0   0     1.523804266236     0.00000000     0.00000000
 H      2   1   0     1.091971603156   112.43304848     0.00000000
 H      2   1   3     1.090636117731   110.97760763   239.02835081
 S      2   1   3     1.786592914712   115.20009066   120.99053177
 O      5   2   1     1.473141168660   105.02979337    49.07237270
 O      5   2   1     1.436623061245   105.98059332   170.73836034
 O      5   2   1     1.474135586267   106.76390466   292.33415873
 H      1   2   3     1.070003142846   109.47058655   179.99921990
 H      1   2   3     1.069999263972   109.47118233    59.99951992
 H      1   2   3     1.069997784530   109.47113987   299.99930354

---------------------------
INTERNAL COORDINATES (A.U.)
---------------------------
 C      0   0   0     0.000000000000     0.00000000     0.00000000
 C      1   0   0     2.879572744887     0.00000000     0.00000000
 H      2   1   0     2.063527275985   112.43304848     0.00000000
 H      2   1   3     2.061003574275   110.97760763   239.02835081
 S      2   1   3     3.376171321610   115.20009066   120.99053177
 O      5   2   1     2.783833365371   105.02979337    49.07237270
 O      5   2   1     2.714824143428   105.98059332   170.73836034
 O      5   2   1     2.785712542313   106.76390466   292.33415873
 H      1   2   3     2.022012902414   109.47058655   179.99921990
 H      1   2   3     2.022005572404   109.47118233    59.99951992
 H      1   2   3     2.022002776665   109.47113987   299.99930354

---------------------
BASIS SET INFORMATION
---------------------
There are 4 groups of distinct atoms

 Group   1 Type C   : 8s4p2d contracted to 4s2p2d pattern {5111/31/11}
 Group   2 Type H   : 4s2p contracted to 2s2p pattern {31/11}
 Group   3 Type S   : 11s8p2d contracted to 5s4p2d pattern {53111/5111/11}
 Group   4 Type O   : 8s5p2d contracted to 4s3p2d pattern {5111/311/11}

Atom   0C    basis set group =>   1
Atom   1C    basis set group =>   1
Atom   2H    basis set group =>   2
Atom   3H    basis set group =>   2
Atom   4S    basis set group =>   3
Atom   5O    basis set group =>   4
Atom   6O    basis set group =>   4
Atom   7O    basis set group =>   4
Atom   8H    basis set group =>   2
Atom   9H    basis set group =>   2
Atom  10H    basis set group =>   2
---------------------------------
AUXILIARY/J BASIS SET INFORMATION
---------------------------------
There are 4 groups of distinct atoms

 Group   1 Type C   : 12s5p4d2f1g contracted to 6s4p3d1f1g pattern {711111/2111/211/2/1}
 Group   2 Type H   : 5s2p1d contracted to 3s1p1d pattern {311/2/1}
 Group   3 Type S   : 14s5p5d2f1g contracted to 8s4p3d1f1g pattern {71111111/2111/311/2/1}
 Group   4 Type O   : 12s5p4d2f1g contracted to 6s4p3d1f1g pattern {711111/2111/211/2/1}

Atom   0C    basis set group =>   1
Atom   1C    basis set group =>   1
Atom   2H    basis set group =>   2
Atom   3H    basis set group =>   2
Atom   4S    basis set group =>   3
Atom   5O    basis set group =>   4
Atom   6O    basis set group =>   4
Atom   7O    basis set group =>   4
Atom   8H    basis set group =>   2
Atom   9H    basis set group =>   2
Atom  10H    basis set group =>   2


           ************************************************************
           *        Program running with 4 parallel MPI-processes     *
           *              working on a common directory               *
           ************************************************************
------------------------------------------------------------------------------
                           ORCA GTO INTEGRAL CALCULATION
                           -- RI-GTO INTEGRALS CHOSEN --
------------------------------------------------------------------------------
------------------------------------------------------------------------------
                   ___                                                        
                  /   \      - P O W E R E D   B Y -                         
                 /     \                                                     
                 |  |  |   _    _      __       _____    __    __             
                 |  |  |  | |  | |    /  \     |  _  \  |  |  /  |          
                  \  \/   | |  | |   /    \    | | | |  |  | /  /          
                 / \  \   | |__| |  /  /\  \   | |_| |  |  |/  /          
                |  |  |   |  __  | /  /__\  \  |    /   |      \           
                |  |  |   | |  | | |   __   |  |    \   |  |\   \          
                \     /   | |  | | |  |  |  |  | |\  \  |  | \   \       
                 \___/    |_|  |_| |__|  |__|  |_| \__\ |__|  \__/        
                                                                              
                      - O R C A' S   B I G   F R I E N D -                    
                                      &                                       
                       - I N T E G R A L  F E E D E R -                       
                                                                              
 v1 FN, 2020, v2 2021                                                         
------------------------------------------------------------------------------


Reading SHARK input file SVPD_LC_PBE_A_wt_dlpno_neg.SHARKINP.tmp ... ok
----------------------
SHARK INTEGRAL PACKAGE
----------------------

Number of atoms                             ...     11
Number of basis functions                   ...    176
Number of shells                            ...     74
Maximum angular momentum                    ...      2
Integral batch strategy                     ... SHARK/LIBINT Hybrid
RI-J (if used) integral strategy            ... SPLIT-RIJ (Revised 2003 algorithm where possible)
Printlevel                                  ...      1
Contraction scheme used                     ... SEGMENTED contraction
Coulomb Range Separation                    ... NOT USED
Exchange Range Separation                   ... Long Range
   Mu parameter                             ...  0.470000
   Scaling (regular/separated)              ...  0.000000  1.000000
Finite Nucleus Model                        ... NOT USED
Auxiliary Coulomb fitting basis             ... AVAILABLE
   # of basis functions in Aux-J            ...    351
   # of shells in Aux-J                     ...    117
   Maximum angular momentum in Aux-J        ...      4
Auxiliary J/K fitting basis                 ... NOT available
Auxiliary Correlation fitting basis         ... NOT available
Auxiliary 'external' fitting basis          ... NOT available
Integral threshold                          ...     2.500000e-11
Primitive cut-off                           ...     2.500000e-12
Primitive pair pre-selection threshold      ...     2.500000e-12

Calculating pre-screening integrals         ... done (  0.0 sec) Dimension = 74
Organizing shell pair data                  ... done (  0.0 sec)
Shell pair information
Total number of shell pairs                 ...      2775
Shell pairs after pre-screening             ...      2732
Total number of primitive shell pairs       ...      7853
Primitive shell pairs kept                  ...      6405
          la=0 lb=0:    610 shell pairs
          la=1 lb=0:    929 shell pairs
          la=1 lb=1:    376 shell pairs
          la=2 lb=0:    416 shell pairs
          la=2 lb=1:    323 shell pairs
          la=2 lb=2:     78 shell pairs

Calculating one electron integrals          ... done (  0.0 sec)
Calculating RI/J V-Matrix + Cholesky decomp.... done (  0.0 sec)
Calculating Nuclear repulsion               ... done (  0.0 sec) ENN=    350.447826763946 Eh

SHARK setup successfully completed in   0.2 seconds

Maximum memory used throughout the entire GTOINT-calculation: 8.9 MB


           ************************************************************
           *        Program running with 4 parallel MPI-processes     *
           *              working on a common directory               *
           ************************************************************
-------------------------------------------------------------------------------
                                 ORCA SCF
-------------------------------------------------------------------------------

------------
SCF SETTINGS
------------
Hamiltonian:
 Density Functional     Method          .... DFT(GTOs)
 Exchange Functional    Exchange        .... LC-PBE
 Correlation Functional Correlation     .... PBE
   PBE beta parameter  CBetaPBE         ....  0.066725
 LDA part of GGA corr.  LDAOpt          .... PW91-LDA
 Gradients option       PostSCFGGA      .... off
   Density functional embedding theory  .... OFF
 Long-range corrected/Screened/Range-Separated Hybrid DFT is turned on
   Amount of maximum screened exact exchange              ....  1.000000
   Range separation parameter mu (erf(mu*r12)/r12)        ....  0.470000
   NL short-range parameter             ....  6.400000
 RI-approximation to the Coulomb term is turned on
   Number of AuxJ basis functions       .... 351
   RIJ-COSX (HFX calculated with COS-X)).... on


General Settings:
 Integral files         IntName         .... SVPD_LC_PBE_A_wt_dlpno_neg
 Hartree-Fock type      HFTyp           .... RHF
 Total Charge           Charge          ....   -1
 Multiplicity           Mult            ....    1
 Number of Electrons    NEL             ....   58
 Basis Dimension        Dim             ....  176
 Nuclear Repulsion      ENuc            ....    350.4478267639 Eh

Convergence Acceleration:
 DIIS                   CNVDIIS         .... on
   Start iteration      DIISMaxIt       ....    12
   Startup error        DIISStart       ....  0.200000
   # of expansion vecs  DIISMaxEq       ....     5
   Bias factor          DIISBfac        ....   1.050
   Max. coefficient     DIISMaxC        ....  10.000
 Trust-Rad. Augm. Hess. CNVTRAH         .... auto
   Auto Start mean grad. ratio tolernc. ....  1.125000
   Auto Start start iteration           ....    20
   Auto Start num. interpolation iter.  ....    10
   Max. Number of Micro iterations      ....    16
   Max. Number of Macro iterations      .... Maxiter - #DIIS iter
   Number of Davidson start vectors     ....     2
   Converg. threshold I  (grad. norm)   ....   1.000e-05
   Converg. threshold II (energy diff.) ....   1.000e-08
   Grad. Scal. Fac. for Micro threshold ....   0.100
   Minimum threshold for Micro iter.    ....   0.010
   NR start threshold (gradient norm)   ....   0.001
   Initial trust radius                 ....   0.400
   Minimum AH scaling param. (alpha)    ....   1.000
   Maximum AH scaling param. (alpha)    .... 1000.000
   Orbital update algorithm             .... Taylor
   White noise on init. David. guess    .... on
   Maximum white noise                  ....   0.010
   Quad. conv. algorithm                .... NR
 SOSCF                  CNVSOSCF        .... on
   Start iteration      SOSCFMaxIt      ....   150
   Startup grad/error   SOSCFStart      ....  0.003300
 Level Shifting         CNVShift        .... on
   Level shift para.    LevelShift      ....    0.2500
   Turn off err/grad.   ShiftErr        ....    0.0010
 Zerner damping         CNVZerner       .... off
 Static damping         CNVDamp         .... on
   Fraction old density DampFac         ....    0.7000
   Max. Damping (<1)    DampMax         ....    0.9800
   Min. Damping (>=0)   DampMin         ....    0.0000
   Turn off err/grad.   DampErr         ....    0.1000
 Fernandez-Rico         CNVRico         .... off

SCF Procedure:
 Maximum # iterations   MaxIter         ....   150
 SCF integral mode      SCFMode         .... Direct
   Integral package                     .... SHARK and LIBINT hybrid scheme
 Reset frequency        DirectResetFreq ....    20
 Integral Threshold     Thresh          ....  2.500e-11 Eh
 Primitive CutOff       TCut            ....  2.500e-12 Eh

Convergence Tolerance:
 Convergence Check Mode ConvCheckMode   .... Total+1el-Energy
 Convergence forced     ConvForced      .... 0
 Energy Change          TolE            ....  1.000e-08 Eh
 1-El. energy change                    ....  1.000e-05 Eh
 Orbital Gradient       TolG            ....  1.000e-05
 Orbital Rotation angle TolX            ....  1.000e-05
 DIIS Error             TolErr          ....  5.000e-07


Diagonalization of the overlap matrix:
Smallest eigenvalue                        ... 2.343e-04
Time for diagonalization                   ...    0.009 sec
Threshold for overlap eigenvalues          ... 1.000e-08
Number of eigenvalues below threshold      ... 0
Time for construction of square roots      ...    0.005 sec
Total time needed                          ...    0.015 sec

Time for model grid setup =    0.074 sec

------------------------------
INITIAL GUESS: MODEL POTENTIAL
------------------------------
Loading Hartree-Fock densities                     ... done
Calculating cut-offs                               ... done
Initializing the effective Hamiltonian             ... done
Setting up the integral package (SHARK)            ... done
Starting the Coulomb interaction                   ... done (   0.0 sec)
Reading the grid                                   ... done
Mapping shells                                     ... done
Starting the XC term evaluation                    ... done (   0.1 sec)
  promolecular density results
     # of electrons  =     56.997393846
     EX              =    -47.274629568
     EC              =     -2.016921797
     EX+EC           =    -49.291551365
Transforming the Hamiltonian                       ... done (   0.0 sec)
Diagonalizing the Hamiltonian                      ... done (   0.0 sec)
Back transforming the eigenvectors                 ... done (   0.0 sec)
Now organizing SCF variables                       ... done
                      ------------------
                      INITIAL GUESS DONE (   0.2 sec)
                      ------------------
-------------------
DFT GRID GENERATION
-------------------

General Integration Accuracy     IntAcc      ... 4.388
Radial Grid Type                 RadialGrid  ... OptM3 with GC (2021)
Angular Grid (max. ang.)         AngularGrid ... 4 (Lebedev-302)
Angular grid pruning method      GridPruning ... 4 (adaptive)
Weight generation scheme         WeightScheme... Becke
Basis function cutoff            BFCut       ... 1.0000e-11
Integration weight cutoff        WCut        ... 1.0000e-14
Angular grids for H and He will be reduced by one unit
Partially contracted basis set               ... off
Rotationally invariant grid construction     ... off

Total number of grid points                  ...    55999
Total number of batches                      ...      881
Average number of points per batch           ...       63
Average number of grid points per atom       ...     5091
Time for grid setup =    0.361 sec

--------------------
COSX GRID GENERATION
--------------------

GRIDX 1
-------
General Integration Accuracy     IntAcc      ... 3.816
Radial Grid Type                 RadialGrid  ... OptM3 with GC (2021)
Angular Grid (max. ang.)         AngularGrid ... 1 (Lebedev-50)
Angular grid pruning method      GridPruning ... 4 (adaptive)
Weight generation scheme         WeightScheme... Becke
Basis function cutoff            BFCut       ... 1.0000e-11
Integration weight cutoff        WCut        ... 1.0000e-14
Angular grids for H and He will be reduced by one unit
Partially contracted basis set               ... on
Rotationally invariant grid construction     ... off

Total number of grid points                  ...     6952
Total number of batches                      ...      116
Average number of points per batch           ...       59
Average number of grid points per atom       ...      632
UseSFitting                                  ... on

GRIDX 2
-------
General Integration Accuracy     IntAcc      ... 4.020
Radial Grid Type                 RadialGrid  ... OptM3 with GC (2021)
Angular Grid (max. ang.)         AngularGrid ... 2 (Lebedev-110)
Angular grid pruning method      GridPruning ... 4 (adaptive)
Weight generation scheme         WeightScheme... Becke
Basis function cutoff            BFCut       ... 1.0000e-11
Integration weight cutoff        WCut        ... 1.0000e-14
Angular grids for H and He will be reduced by one unit
Partially contracted basis set               ... on
Rotationally invariant grid construction     ... off

Total number of grid points                  ...    16696
Total number of batches                      ...      268
Average number of points per batch           ...       62
Average number of grid points per atom       ...     1518
UseSFitting                                  ... on

GRIDX 3
-------
General Integration Accuracy     IntAcc      ... 4.338
Radial Grid Type                 RadialGrid  ... OptM3 with GC (2021)
Angular Grid (max. ang.)         AngularGrid ... 3 (Lebedev-194)
Angular grid pruning method      GridPruning ... 4 (adaptive)
Weight generation scheme         WeightScheme... Becke
Basis function cutoff            BFCut       ... 1.0000e-11
Integration weight cutoff        WCut        ... 1.0000e-14
Angular grids for H and He will be reduced by one unit
Partially contracted basis set               ... on
Rotationally invariant grid construction     ... off

Total number of grid points                  ...    38010
Total number of batches                      ...      599
Average number of points per batch           ...       63
Average number of grid points per atom       ...     3455
UseSFitting                                  ... on

Time for X-Grid setup             =    0.330 sec

--------------
SCF ITERATIONS
--------------
ITER       Energy         Delta-E        Max-DP      RMS-DP      [F,P]     Damp
               ***  Starting incremental Fock matrix formation  ***
  0   -701.4370030932   0.000000000000 0.12613804  0.00193410  0.1496634 0.7000
  1   -701.4973543774  -0.060351284167 0.07404775  0.00123254  0.0764256 0.7000
                               ***Turning on DIIS***
  2   -701.5247588331  -0.027404455651 0.10133275  0.00223598  0.0412725 0.0000
  3   -701.5715119185  -0.046753085415 0.06294484  0.00093107  0.0353518 0.0000
  4   -701.5788404138  -0.007328495322 0.00826266  0.00029786  0.0045853 0.0000
                      *** Initiating the SOSCF procedure ***
                           *** Shutting down DIIS ***
                      *** Re-Reading the Fockian *** 
                      *** Removing any level shift *** 
ITER      Energy       Delta-E        Grad      Rot      Max-DP    RMS-DP
  5   -701.57911428  -0.0002738640  0.000973  0.000973  0.003247  0.000141
               *** Restarting incremental Fock matrix formation ***
  6   -701.57921547  -0.0001011894  0.000520  0.001099  0.001779  0.000077
  7   -701.57922430  -0.0000088349  0.000179  0.000703  0.001272  0.000051
  8   -701.57922520  -0.0000009007  0.000168  0.000171  0.000353  0.000015
  9   -701.57922579  -0.0000005888  0.000010  0.000013  0.000047  0.000002
 10   -701.57922580  -0.0000000049  0.000010  0.000007  0.000027  0.000001
                  ***Gradient check signals convergence***
              ***Rediagonalizing the Fockian in SOSCF/NRSCF***

               *****************************************************
               *                     SUCCESS                       *
               *           SCF CONVERGED AFTER  11 CYCLES          *
               *****************************************************


----------------
TOTAL SCF ENERGY
----------------

Total Energy       :         -701.57922580 Eh          -19090.94130 eV

Components:
Nuclear Repulsion  :          350.44782676 Eh            9536.17018 eV
Electronic Energy  :        -1052.02705256 Eh          -28627.11147 eV
One Electron Energy:        -1672.95827526 Eh          -45523.50904 eV
Two Electron Energy:          620.93122269 Eh           16896.39757 eV
Max COSX asymmetry :            0.00000859 Eh               0.00023 eV

Virial components:
Potential Energy   :        -1399.57946104 Eh          -38084.49331 eV
Kinetic Energy     :          698.00023524 Eh           18993.55201 eV
Virial Ratio       :            2.00512749


DFT components:
N(Alpha)           :       29.000183412001 electrons
N(Beta)            :       29.000183412001 electrons
N(Total)           :       58.000366824001 electrons
E(X)               :      -47.721130225976 Eh       
E(C)               :       -2.058546537102 Eh       
E(XC)              :      -49.779676763078 Eh       
DFET-embed. en.    :        0.000000000000 Eh       

---------------
SCF CONVERGENCE
---------------

  Last Energy change         ...   -1.6641e-09  Tolerance :   1.0000e-08
  Last MAX-Density change    ...    8.1626e-06  Tolerance :   1.0000e-07
  Last RMS-Density change    ...    3.0339e-07  Tolerance :   5.0000e-09
  Last Orbital Gradient      ...    1.2736e-06  Tolerance :   1.0000e-05
  Last Orbital Rotation      ...    2.1671e-06  Tolerance :   1.0000e-05

             **** THE GBW FILE WAS UPDATED (SVPD_LC_PBE_A_wt_dlpno_neg.gbw) ****
             **** DENSITY SVPD_LC_PBE_A_wt_dlpno_neg.scfp WAS UPDATED ****
             **** ENERGY FILE WAS UPDATED (SVPD_LC_PBE_A_wt_dlpno_neg.en.tmp) ****
             **** THE GBW FILE WAS UPDATED (SVPD_LC_PBE_A_wt_dlpno_neg.gbw) ****
             **** DENSITY SVPD_LC_PBE_A_wt_dlpno_neg.scfp WAS UPDATED ****
----------------
ORBITAL ENERGIES
----------------

  NO   OCC          E(Eh)            E(eV) 
   0   2.0000     -88.313960     -2403.1450 
   1   2.0000     -18.777758      -510.9688 
   2   2.0000     -18.765386      -510.6321 
   3   2.0000     -18.764951      -510.6203 
   4   2.0000      -9.997793      -272.0538 
   5   2.0000      -9.987191      -271.7653 
   6   2.0000      -7.935998      -215.9495 
   7   2.0000      -5.958299      -162.1336 
   8   2.0000      -5.958239      -162.1319 
   9   2.0000      -5.957895      -162.1226 
  10   2.0000      -1.108454       -30.1626 
  11   2.0000      -0.951720       -25.8976 
  12   2.0000      -0.930327       -25.3155 
  13   2.0000      -0.812555       -22.1108 
  14   2.0000      -0.676663       -18.4129 
  15   2.0000      -0.535976       -14.5847 
  16   2.0000      -0.471740       -12.8367 
  17   2.0000      -0.469349       -12.7716 
  18   2.0000      -0.427741       -11.6394 
  19   2.0000      -0.413345       -11.2477 
  20   2.0000      -0.400935       -10.9100 
  21   2.0000      -0.371636       -10.1127 
  22   2.0000      -0.349872        -9.5205 
  23   2.0000      -0.294167        -8.0047 
  24   2.0000      -0.292588        -7.9617 
  25   2.0000      -0.251719        -6.8496 
  26   2.0000      -0.238988        -6.5032 
  27   2.0000      -0.237625        -6.4661 
  28   2.0000      -0.197751        -5.3811 
  29   0.0000       0.204430         5.5628 
  30   0.0000       0.224861         6.1188 
  31   0.0000       0.228133         6.2078 
  32   0.0000       0.235283         6.4024 
  33   0.0000       0.256580         6.9819 
  34   0.0000       0.276077         7.5124 
  35   0.0000       0.297131         8.0853 
  36   0.0000       0.314688         8.5631 
  37   0.0000       0.317874         8.6498 
  38   0.0000       0.335242         9.1224 
  39   0.0000       0.350548         9.5389 
  40   0.0000       0.357355         9.7241 
  41   0.0000       0.358769         9.7626 
  42   0.0000       0.374339        10.1863 
  43   0.0000       0.385912        10.5012 
  44   0.0000       0.391311        10.6481 
  45   0.0000       0.401811        10.9338 
  46   0.0000       0.417520        11.3613 
  47   0.0000       0.420599        11.4451 
  48   0.0000       0.423454        11.5228 
  49   0.0000       0.445063        12.1108 
  50   0.0000       0.448699        12.2097 
  51   0.0000       0.455315        12.3897 
  52   0.0000       0.464421        12.6375 
  53   0.0000       0.469348        12.7716 
  54   0.0000       0.476864        12.9761 
  55   0.0000       0.481872        13.1124 
  56   0.0000       0.505105        13.7446 
  57   0.0000       0.516527        14.0554 
  58   0.0000       0.532877        14.5003 
  59   0.0000       0.544477        14.8160 
  60   0.0000       0.559778        15.2323 
  61   0.0000       0.576476        15.6867 
  62   0.0000       0.582338        15.8462 
  63   0.0000       0.591256        16.0889 
  64   0.0000       0.598797        16.2941 
  65   0.0000       0.605718        16.4824 
  66   0.0000       0.606379        16.5004 
  67   0.0000       0.615356        16.7447 
  68   0.0000       0.617107        16.7923 
  69   0.0000       0.623191        16.9579 
  70   0.0000       0.651496        17.7281 
  71   0.0000       0.660636        17.9768 
  72   0.0000       0.664422        18.0798 
  73   0.0000       0.688967        18.7478 
  74   0.0000       0.695075        18.9139 
  75   0.0000       0.706481        19.2243 
  76   0.0000       0.720992        19.6192 
  77   0.0000       0.731860        19.9149 
  78   0.0000       0.738560        20.0973 
  79   0.0000       0.740574        20.1520 
  80   0.0000       0.748580        20.3699 
  81   0.0000       0.759935        20.6789 
  82   0.0000       0.767391        20.8818 
  83   0.0000       0.774716        21.0811 
  84   0.0000       0.783128        21.3100 
  85   0.0000       0.809378        22.0243 
  86   0.0000       0.815749        22.1977 
  87   0.0000       0.853887        23.2355 
  88   0.0000       0.860160        23.4061 
  89   0.0000       0.893129        24.3033 
  90   0.0000       0.938184        25.5293 
  91   0.0000       0.942376        25.6434 
  92   0.0000       0.957780        26.0625 
  93   0.0000       0.966342        26.2955 
  94   0.0000       0.975522        26.5453 
  95   0.0000       0.984322        26.7848 
  96   0.0000       0.993961        27.0471 
  97   0.0000       1.007125        27.4053 
  98   0.0000       1.015859        27.6429 
  99   0.0000       1.036047        28.1923 
 100   0.0000       1.078660        29.3518 
 101   0.0000       1.097572        29.8664 
 102   0.0000       1.126849        30.6631 
 103   0.0000       1.211730        32.9728 
 104   0.0000       1.216499        33.1026 
 105   0.0000       1.244627        33.8680 
 106   0.0000       1.254362        34.1329 
 107   0.0000       1.258921        34.2570 
 108   0.0000       1.270521        34.5726 
 109   0.0000       1.280575        34.8462 
 110   0.0000       1.294820        35.2338 
 111   0.0000       1.304993        35.5107 
 112   0.0000       1.316611        35.8268 
 113   0.0000       1.371494        37.3202 
 114   0.0000       1.402154        38.1545 
 115   0.0000       1.441960        39.2377 
 116   0.0000       1.447120        39.3781 
 117   0.0000       1.485570        40.4244 
 118   0.0000       1.536523        41.8109 
 119   0.0000       1.553635        42.2766 
 120   0.0000       1.573503        42.8172 
 121   0.0000       1.582435        43.0603 
 122   0.0000       1.607221        43.7347 
 123   0.0000       1.662627        45.2424 
 124   0.0000       1.746592        47.5272 
 125   0.0000       1.810905        49.2772 
 126   0.0000       1.826011        49.6883 
 127   0.0000       1.835708        49.9522 
 128   0.0000       1.871789        50.9340 
 129   0.0000       1.879358        51.1399 
 130   0.0000       1.901457        51.7413 
 131   0.0000       1.928605        52.4800 
 132   0.0000       1.943904        52.8963 
 133   0.0000       1.961068        53.3634 
 134   0.0000       1.970324        53.6152 
 135   0.0000       1.979844        53.8743 
 136   0.0000       2.031417        55.2777 
 137   0.0000       2.044809        55.6421 
 138   0.0000       2.141796        58.2812 
 139   0.0000       2.176597        59.2282 
 140   0.0000       2.194559        59.7170 
 141   0.0000       2.229212        60.6599 
 142   0.0000       2.238951        60.9249 
 143   0.0000       2.297776        62.5257 
 144   0.0000       2.317994        63.0758 
 145   0.0000       2.328434        63.3599 
 146   0.0000       2.346607        63.8544 
 147   0.0000       2.439859        66.3919 
 148   0.0000       2.496212        67.9254 
 149   0.0000       2.528722        68.8100 
 150   0.0000       2.621830        71.3436 
 151   0.0000       2.725256        74.1580 
 152   0.0000       2.795519        76.0699 
 153   0.0000       2.856284        77.7234 
 154   0.0000       2.932354        79.7934 
 155   0.0000       2.943309        80.0915 
 156   0.0000       3.119527        84.8867 
 157   0.0000       3.166616        86.1680 
 158   0.0000       3.199942        87.0749 
 159   0.0000       3.204957        87.2113 
 160   0.0000       3.211208        87.3814 
 161   0.0000       3.232899        87.9717 
 162   0.0000       3.240195        88.1702 
 163   0.0000       3.251951        88.4901 
 164   0.0000       3.260671        88.7274 
 165   0.0000       3.279169        89.2307 
 166   0.0000       3.280672        89.2716 
 167   0.0000       3.312111        90.1271 
 168   0.0000       3.357793        91.3702 
 169   0.0000       3.416770        92.9751 
 170   0.0000       3.431834        93.3850 
 171   0.0000       3.466303        94.3229 
 172   0.0000       3.478266        94.6484 
 173   0.0000       3.654619        99.4472 
 174   0.0000       3.894727       105.9809 
 175   0.0000       3.928945       106.9120 

                    ********************************
                    * MULLIKEN POPULATION ANALYSIS *
                    ********************************

-----------------------
MULLIKEN ATOMIC CHARGES
-----------------------
   0 C :    0.515527
   1 C :   -0.503890
   2 H :    0.025955
   3 H :    0.055145
   4 S :    1.204210
   5 O :   -0.790649
   6 O :   -0.741577
   7 O :   -0.786203
   8 H :    0.025791
   9 H :   -0.023792
  10 H :    0.019483
Sum of atomic charges:   -1.0000000

--------------------------------
MULLIKEN REDUCED ORBITAL CHARGES
--------------------------------
  0 C s       :     2.485719  s :     2.485719
      pz      :     1.002316  p :     2.889549
      px      :     0.984122
      py      :     0.903112
      dz2     :     0.029404  d :     0.109205
      dxz     :     0.052830
      dyz     :    -0.010930
      dx2y2   :     0.034233
      dxy     :     0.003668
  1 C s       :     2.957356  s :     2.957356
      pz      :     1.053726  p :     3.147930
      px      :     1.074618
      py      :     1.019587
      dz2     :     0.104055  d :     0.398604
      dxz     :     0.109554
      dyz     :    -0.006026
      dx2y2   :     0.072336
      dxy     :     0.118684
  2 H s       :     0.924846  s :     0.924846
      pz      :    -0.005279  p :     0.049198
      px      :     0.026527
      py      :     0.027951
  3 H s       :     0.896596  s :     0.896596
      pz      :     0.050602  p :     0.048260
      px      :    -0.017689
      py      :     0.015347
  4 S s       :     4.968523  s :     4.968523
      pz      :     2.918090  p :     8.867553
      px      :     2.903049
      py      :     3.046414
      dz2     :     0.220251  d :     0.959714
      dxz     :     0.224062
      dyz     :     0.164798
      dx2y2   :     0.181319
      dxy     :     0.169284
  5 O s       :     3.931944  s :     3.931944
      pz      :     1.741696  p :     4.861150
      px      :     1.484824
      py      :     1.634630
      dz2     :    -0.004558  d :    -0.002445
      dxz     :    -0.001065
      dyz     :     0.002062
      dx2y2   :    -0.000318
      dxy     :     0.001434
  6 O s       :     3.910771  s :     3.910771
      pz      :     1.652090  p :     4.830259
      px      :     1.395999
      py      :     1.782171
      dz2     :    -0.004396  d :     0.000546
      dxz     :    -0.000019
      dyz     :     0.003177
      dx2y2   :     0.001594
      dxy     :     0.000189
  7 O s       :     3.931933  s :     3.931933
      pz      :     1.273684  p :     4.858022
      px      :     1.817934
      py      :     1.766404
      dz2     :     0.003581  d :    -0.003752
      dxz     :    -0.006639
      dyz     :    -0.001065
      dx2y2   :    -0.000609
      dxy     :     0.000980
  8 H s       :     0.912040  s :     0.912040
      pz      :     0.021787  p :     0.062169
      px      :     0.027113
      py      :     0.013268
  9 H s       :     1.012852  s :     1.012852
      pz      :    -0.025183  p :     0.010940
      px      :    -0.010839
      py      :     0.046962
 10 H s       :     0.934080  s :     0.934080
      pz      :     0.058053  p :     0.046438
      px      :     0.007096
      py      :    -0.018711


                     *******************************
                     * LOEWDIN POPULATION ANALYSIS *
                     *******************************

----------------------
LOEWDIN ATOMIC CHARGES
----------------------
   0 C :    0.075305
   1 C :   -0.165442
   2 H :    0.020157
   3 H :    0.017070
   4 S :    0.833312
   5 O :   -0.586656
   6 O :   -0.569687
   7 O :   -0.590399
   8 H :   -0.009777
   9 H :   -0.020151
  10 H :   -0.003733

-------------------------------
LOEWDIN REDUCED ORBITAL CHARGES
-------------------------------
  0 C s       :     2.688781  s :     2.688781
      pz      :     0.956219  p :     2.816325
      px      :     0.923910
      py      :     0.936197
      dz2     :     0.097575  d :     0.419589
      dxz     :     0.096273
      dyz     :     0.026300
      dx2y2   :     0.108699
      dxy     :     0.090742
  1 C s       :     2.713415  s :     2.713415
      pz      :     0.955129  p :     2.793866
      px      :     0.930497
      py      :     0.908240
      dz2     :     0.128819  d :     0.658161
      dxz     :     0.118318
      dyz     :     0.087311
      dx2y2   :     0.145218
      dxy     :     0.178495
  2 H s       :     0.720939  s :     0.720939
      pz      :     0.084323  p :     0.258905
      px      :     0.089553
      py      :     0.085029
  3 H s       :     0.718597  s :     0.718597
      pz      :     0.125087  p :     0.264333
      px      :     0.065755
      py      :     0.073491
  4 S s       :     4.665549  s :     4.665549
      pz      :     2.829067  p :     8.476229
      px      :     2.830813
      py      :     2.816349
      dz2     :     0.467789  d :     2.024909
      dxz     :     0.455165
      dyz     :     0.325124
      dx2y2   :     0.409279
      dxy     :     0.367553
  5 O s       :     3.545234  s :     3.545234
      pz      :     1.665036  p :     4.797450
      px      :     1.532286
      py      :     1.600128
      dz2     :     0.045564  d :     0.243971
      dxz     :     0.052464
      dyz     :     0.025948
      dx2y2   :     0.062921
      dxy     :     0.057075
  6 O s       :     3.531705  s :     3.531705
      pz      :     1.620057  p :     4.787361
      px      :     1.512796
      py      :     1.654508
      dz2     :     0.055096  d :     0.250621
      dxz     :     0.065414
      dyz     :     0.019860
      dx2y2   :     0.052817
      dxy     :     0.057434
  7 O s       :     3.549118  s :     3.549118
      pz      :     1.447969  p :     4.801254
      px      :     1.695657
      py      :     1.657627
      dz2     :     0.081452  d :     0.240027
      dxz     :     0.072625
      dyz     :     0.062288
      dx2y2   :     0.013350
      dxy     :     0.010312
  8 H s       :     0.719035  s :     0.719035
      pz      :     0.090607  p :     0.290741
      px      :     0.092556
      py      :     0.107579
  9 H s       :     0.741719  s :     0.741719
      pz      :     0.077593  p :     0.278432
      px      :     0.072581
      py      :     0.128258
 10 H s       :     0.722891  s :     0.722891
      pz      :     0.127241  p :     0.280842
      px      :     0.071298
      py      :     0.082303


                      *****************************
                      * MAYER POPULATION ANALYSIS *
                      *****************************

  NA   - Mulliken gross atomic population
  ZA   - Total nuclear charge
  QA   - Mulliken gross atomic charge
  VA   - Mayer's total valence
  BVA  - Mayer's bonded valence
  FA   - Mayer's free valence

  ATOM       NA         ZA         QA         VA         BVA        FA
  0 C      5.4845     6.0000     0.5155     3.8896     3.8896    -0.0000
  1 C      6.5039     6.0000    -0.5039     4.8764     4.8764     0.0000
  2 H      0.9740     1.0000     0.0260     1.1605     1.1605     0.0000
  3 H      0.9449     1.0000     0.0551     1.1562     1.1562     0.0000
  4 S     14.7958    16.0000     1.2042     5.0814     5.0814     0.0000
  5 O      8.7906     8.0000    -0.7906     1.3884     1.3884     0.0000
  6 O      8.7416     8.0000    -0.7416     1.4444     1.4444     0.0000
  7 O      8.7862     8.0000    -0.7862     1.3798     1.3798    -0.0000
  8 H      0.9742     1.0000     0.0258     1.1273     1.1273    -0.0000
  9 H      1.0238     1.0000    -0.0238     0.9987     0.9987    -0.0000
 10 H      0.9805     1.0000     0.0195     1.0938     1.0938    -0.0000

  Mayer bond orders larger than 0.100000
B(  0-C ,  1-C ) :   1.2653 B(  0-C ,  8-H ) :   0.8593 B(  0-C ,  9-H ) :   0.8024 
B(  0-C , 10-H ) :   0.8506 B(  1-C ,  2-H ) :   1.0025 B(  1-C ,  3-H ) :   0.9978 
B(  1-C ,  4-S ) :   0.9567 B(  1-C ,  8-H ) :   0.1645 B(  1-C ,  9-H ) :   0.1687 
B(  1-C , 10-H ) :   0.1599 B(  4-S ,  5-O ) :   1.3125 B(  4-S ,  6-O ) :   1.3855 
B(  4-S ,  7-O ) :   1.3122 

-------
TIMINGS
-------

Total SCF time: 0 days 0 hours 0 min 16 sec 

Total time                  ....      16.547 sec
Sum of individual times     ....      16.388 sec  ( 99.0%)

Fock matrix formation       ....      15.394 sec  ( 93.0%)
  Split-RI-J                ....       0.698 sec  (  4.5% of F)
  Chain of spheres X        ....      12.031 sec  ( 78.1% of F)
  XC integration            ....       2.630 sec  ( 17.1% of F)
    Basis function eval.    ....       0.863 sec  ( 32.8% of XC)
    Density eval.           ....       0.616 sec  ( 23.4% of XC)
    XC-Functional eval.     ....       0.244 sec  (  9.3% of XC)
    XC-Potential eval.      ....       0.818 sec  ( 31.1% of XC)
Diagonalization             ....       0.043 sec  (  0.3%)
Density matrix formation    ....       0.003 sec  (  0.0%)
Population analysis         ....       0.006 sec  (  0.0%)
Initial guess               ....       0.114 sec  (  0.7%)
Orbital Transformation      ....       0.000 sec  (  0.0%)
Orbital Orthonormalization  ....       0.000 sec  (  0.0%)
DIIS solution               ....       0.030 sec  (  0.2%)
SOSCF solution              ....       0.032 sec  (  0.2%)
Grid generation             ....       0.766 sec  (  4.6%)

Maximum memory used throughout the entire SCF-calculation: 21.8 MB

-------------------------   --------------------
FINAL SINGLE POINT ENERGY      -701.579225798234
-------------------------   --------------------


                            ***************************************
                            *     ORCA property calculations      *
                            ***************************************

                                    ---------------------
                                    Active property flags
                                    ---------------------
   (+) Dipole Moment


------------------------------------------------------------------------------
                       ORCA ELECTRIC PROPERTIES CALCULATION
------------------------------------------------------------------------------

Dipole Moment Calculation                       ... on
Quadrupole Moment Calculation                   ... off
Polarizability Calculation                      ... off
GBWName                                         ... SVPD_LC_PBE_A_wt_dlpno_neg.gbw
Electron density file                           ... SVPD_LC_PBE_A_wt_dlpno_neg.scfp
The origin for moment calculation is the CENTER OF MASS  = ( 6.228818, -2.701612 -11.955292)

-------------
DIPOLE MOMENT
-------------
                                X             Y             Z
Electronic contribution:     -4.30630       6.23270      -0.66978
Nuclear contribution   :      5.05690      -8.21735       0.57889
                        -----------------------------------------
Total Dipole Moment    :      0.75061      -1.98466      -0.09088
                        -----------------------------------------
Magnitude (a.u.)       :      2.12380
Magnitude (Debye)      :      5.39827



--------------------
Rotational spectrum 
--------------------
 
Rotational constants in cm-1:     0.162547     0.083494     0.081672 
Rotational constants in MHz :  4873.033504  2503.090885  2448.458543 

 Dipole components along the rotational axes: 
x,y,z [a.u.] :     1.937033    -0.868126    -0.069208 
x,y,z [Debye]:     4.923546    -2.206601    -0.175912 

 

Timings for individual modules:

Sum of individual times         ...       17.137 sec (=   0.286 min)
GTO integral calculation        ...        0.372 sec (=   0.006 min)   2.2 %
SCF iterations                  ...       16.765 sec (=   0.279 min)  97.8 %
                             ****ORCA TERMINATED NORMALLY****
TOTAL RUN TIME: 0 days 0 hours 0 minutes 17 seconds 479 msec
