
                                        *****************
                                        * O   R   C   A *
                                        *****************

                                            #,                                       
                                            ###                                      
                                            ####                                     
                                            #####                                    
                                            ######                                   
                                           ########,                                 
                                     ,,################,,,,,                         
                               ,,#################################,,                 
                          ,,##########################################,,             
                       ,#########################################, ''#####,          
                    ,#############################################,,   '####,        
                  ,##################################################,,,,####,       
                ,###########''''           ''''###############################       
              ,#####''   ,,,,##########,,,,          '''####'''          '####       
            ,##' ,,,,###########################,,,                        '##       
           ' ,,###''''                  '''############,,,                           
         ,,##''                                '''############,,,,        ,,,,,,###''
      ,#''                                            '''#######################'''  
     '                                                          ''''####''''         
             ,#######,   #######,   ,#######,      ##                                
            ,#'     '#,  ##    ##  ,#'     '#,    #''#        ######   ,####,        
            ##       ##  ##   ,#'  ##            #'  '#       #        #'  '#        
            ##       ##  #######   ##           ,######,      #####,   #    #        
            '#,     ,#'  ##    ##  '#,     ,#' ,#      #,         ##   #,  ,#        
             '#######'   ##     ##  '#######'  #'      '#     #####' # '####'        



                  #######################################################
                  #                        -***-                        #
                  #          Department of theory and spectroscopy      #
                  #    Directorship and core code : Frank Neese         #
                  #        Max Planck Institute fuer Kohlenforschung    #
                  #                Kaiser Wilhelm Platz 1               #
                  #                 D-45470 Muelheim/Ruhr               #
                  #                      Germany                        #
                  #                                                     #
                  #                  All rights reserved                #
                  #                        -***-                        #
                  #######################################################


                         Program Version 5.0.0 -  RELEASE  -
                                (SVN: $Rev: 19529$)
                ($Date: 2021-06-28 11:36:33 +0200 (Mo, 28 Jun 2021) $)


 With contributions from (in alphabetic order):
   Daniel Aravena         : Magnetic Suceptibility
   Michael Atanasov       : Ab Initio Ligand Field Theory (pilot matlab implementation)
   Alexander A. Auer      : GIAO ZORA, VPT2 properties, NMR spectrum
   Ute Becker             : Parallelization
   Giovanni Bistoni       : ED, misc. LED, open-shell LED, HFLD
   Martin Brehm           : Molecular dynamics
   Dmytro Bykov           : SCF Hessian
   Vijay G. Chilkuri      : MRCI spin determinant printing, contributions to CSF-ICE
   Dipayan Datta          : RHF DLPNO-CCSD density
   Achintya Kumar Dutta   : EOM-CC, STEOM-CC
   Dmitry Ganyushin       : Spin-Orbit,Spin-Spin,Magnetic field MRCI
   Miquel Garcia          : C-PCM Hessian, Gaussian charge scheme
   Yang Guo               : DLPNO-NEVPT2, F12-NEVPT2, CIM, IAO-localization
   Andreas Hansen         : Spin unrestricted coupled pair/coupled cluster methods
   Benjamin Helmich-Paris : MC-RPA, TRAH-SCF, COSX integrals
   Lee Huntington         : MR-EOM, pCC
   Robert Izsak           : Overlap fitted RIJCOSX, COSX-SCS-MP3, EOM
   Marcus Kettner         : VPT2
   Christian Kollmar      : KDIIS, OOCD, Brueckner-CCSD(T), CCSD density, CASPT2, CASPT2-K
   Simone Kossmann        : Meta GGA functionals, TD-DFT gradient, OOMP2, MP2 Hessian
   Martin Krupicka        : Initial AUTO-CI
   Lucas Lang             : DCDCAS
   Marvin Lechner         : AUTO-CI (C++ implementation), FIC-MRCC
   Dagmar Lenk            : GEPOL surface, SMD
   Dimitrios Liakos       : Extrapolation schemes; Compound Job, initial MDCI parallelization
   Dimitrios Manganas     : Further ROCIS development; embedding schemes
   Dimitrios Pantazis     : SARC Basis sets
   Anastasios Papadopoulos: AUTO-CI, single reference methods and gradients
   Taras Petrenko         : DFT Hessian,TD-DFT gradient, ASA, ECA, R-Raman, ABS, FL, XAS/XES, NRVS
   Peter Pinski           : DLPNO-MP2, DLPNO-MP2 Gradient
   Christoph Reimann      : Effective Core Potentials
   Marius Retegan         : Local ZFS, SOC
   Christoph Riplinger    : Optimizer, TS searches, QM/MM, DLPNO-CCSD(T), (RO)-DLPNO pert. Triples
   Tobias Risthaus        : Range-separated hybrids, TD-DFT gradient, RPA, STAB
   Michael Roemelt        : Original ROCIS implementation
   Masaaki Saitow         : Open-shell DLPNO-CCSD energy and density
   Barbara Sandhoefer     : DKH picture change effects
   Avijit Sen             : IP-ROCIS
   Kantharuban Sivalingam : CASSCF convergence, NEVPT2, FIC-MRCI
   Bernardo de Souza      : ESD, SOC TD-DFT
   Georgi Stoychev        : AutoAux, RI-MP2 NMR
   Willem Van den Heuvel  : Paramagnetic NMR
   Boris Wezisla          : Elementary symmetry handling
   Frank Wennmohs         : Technical directorship


 We gratefully acknowledge several colleagues who have allowed us to
 interface, adapt or use parts of their codes:
   Stefan Grimme, W. Hujo, H. Kruse, P. Pracht,  : VdW corrections, initial TS optimization,
                  C. Bannwarth, S. Ehlert          DFT functionals, gCP, sTDA/sTD-DF
   Ed Valeev, F. Pavosevic, A. Kumar             : LibInt (2-el integral package), F12 methods
   Garnet Chan, S. Sharma, J. Yang, R. Olivares  : DMRG
   Ulf Ekstrom                                   : XCFun DFT Library
   Mihaly Kallay                                 : mrcc  (arbitrary order and MRCC methods)
   Jiri Pittner, Ondrej Demel                    : Mk-CCSD
   Frank Weinhold                                : gennbo (NPA and NBO analysis)
   Christopher J. Cramer and Donald G. Truhlar   : smd solvation model
   Lars Goerigk                                  : TD-DFT with DH, B97 family of functionals
   V. Asgeirsson, H. Jonsson                     : NEB implementation
   FAccTs GmbH                                   : IRC, NEB, NEB-TS, DLPNO-Multilevel, CI-OPT
                                                   MM, QMMM, 2- and 3-layer-ONIOM, Crystal-QMMM,
                                                   LR-CPCM, SF, NACMEs, symmetry and pop. for TD-DFT,
                                                   nearIR, NL-DFT gradient (VV10), updates on ESD,
                                                   ML-optimized integration grids
   S Lehtola, MJT Oliveira, MAL Marques          : LibXC Library
   Liviu Ungur et al                             : ANISO software


 Your calculation uses the libint2 library for the computation of 2-el integrals
 For citations please refer to: http://libint.valeyev.net

 Your ORCA version has been built with support for libXC version: 5.1.0
 For citations please refer to: https://tddft.org/programs/libxc/

 This ORCA versions uses:
   CBLAS   interface :  Fast vector & matrix operations
   LAPACKE interface :  Fast linear algebra routines
   SCALAPACK package :  Parallel linear algebra routines
   Shared memory     :  Shared parallel matrices
   BLAS/LAPACK       :  OpenBLAS 0.3.15  USE64BITINT DYNAMIC_ARCH NO_AFFINITY Haswell SINGLE_THREADED
        Core in use  :  Haswell
   Copyright (c) 2011-2014, The OpenBLAS Project


Your calculation utilizes the atom-pairwise dispersion correction
with the Becke-Johnson damping scheme (D3BJ)
Cite in your paper:
S.Grimme, S.Ehrlich, L.Goerigk, J Comput Chem, (2011), 32, 1456–1465 
S.Grimme, J.Antony, S.Ehrlich and H.Krieg, J.Chem.Phys., 132, (2010), 154104 
   

================================================================================

----- Orbital basis set information -----
Your calculation utilizes the basis: def2-SVPD
   F. Weigend and R. Ahlrichs, Phys. Chem. Chem. Phys. 7, 3297 (2005).
   D. Rappoport and F. Furche, J. Chem. Phys. 133 134105 (2010).

----- AuxJ basis set information -----
Your calculation utilizes the auxiliary basis: def2/J
   F. Weigend, Phys. Chem. Chem. Phys. 8, 1057 (2006).

================================================================================
                                        WARNINGS
                       Please study these warnings very carefully!
================================================================================



WARNING: Found flag for RIJCOSX approximation but no HF exchange needed!
  ===> : RIJCOSX  will be disabled and Split-RI-J is turned on

INFO   : the flag for use of the SHARK integral package has been found!

================================================================================
                                       INPUT FILE
================================================================================
NAME = 14Feb_SVPD_BLYP_A_wt_wb97_typ1_neg.com
|  1> !BLYP D3BJ RIJCOSX def2-SVPD def2/J TightSCF 
|  2> *xyz -1 1 
|  3> C         -0.95121        1.33498       -0.97250
|  4> C         -0.77455        2.78833       -0.54394
|  5> H         -1.35261        3.45937       -1.19259
|  6> H         -1.17101        2.90233        0.46997
|  7> C          0.69721        3.22791       -0.52513
|  8> O          1.48929        2.37470        0.19919
|  9> H          0.71600        4.26403       -0.13077
| 10> H          1.03615        3.33092       -1.58367
| 11> H         -0.56808        1.20618       -1.96322
| 12> H         -1.99081        1.08225       -0.95647
| 13> H         -0.41866        0.69710       -0.29841
| 14> *
| 15> 
| 16> %MaxCore 64000
| 17> %pal nprocs 4
| 18> end  
| 19> 
| 20> %scf
| 21>   MaxIter 150
| 22> end
| 23> 
| 24> 
| 25>                          ****END OF INPUT****
================================================================================

                       ****************************
                       * Single Point Calculation *
                       ****************************

---------------------------------
CARTESIAN COORDINATES (ANGSTROEM)
---------------------------------
  C     -0.951210    1.334980   -0.972500
  C     -0.774550    2.788330   -0.543940
  H     -1.352610    3.459370   -1.192590
  H     -1.171010    2.902330    0.469970
  C      0.697210    3.227910   -0.525130
  O      1.489290    2.374700    0.199190
  H      0.716000    4.264030   -0.130770
  H      1.036150    3.330920   -1.583670
  H     -0.568080    1.206180   -1.963220
  H     -1.990810    1.082250   -0.956470
  H     -0.418660    0.697100   -0.298410

----------------------------
CARTESIAN COORDINATES (A.U.)
----------------------------
  NO LB      ZA    FRAG     MASS         X           Y           Z
   0 C     6.0000    0    12.011   -1.797526    2.522747   -1.837759
   1 C     6.0000    0    12.011   -1.463687    5.269180   -1.027898
   2 H     1.0000    0     1.008   -2.556062    6.537262   -2.253668
   3 H     1.0000    0     1.008   -2.212888    5.484609    0.888115
   4 C     6.0000    0    12.011    1.317536    6.099866   -0.992352
   5 O     8.0000    0    15.999    2.814350    4.487533    0.376415
   6 H     1.0000    0     1.008    1.353044    8.057849   -0.247119
   7 H     1.0000    0     1.008    1.958040    6.294527   -2.992703
   8 H     1.0000    0     1.008   -1.073516    2.279350   -3.709948
   9 H     1.0000    0     1.008   -3.762086    2.045156   -1.807466
  10 H     1.0000    0     1.008   -0.791153    1.317328   -0.563913

--------------------------------
INTERNAL COORDINATES (ANGSTROEM)
--------------------------------
 C      0   0   0     0.000000000000     0.00000000     0.00000000
 C      1   0   0     1.525483087976     0.00000000     0.00000000
 H      2   1   0     1.097813676222   110.81662298     0.00000000
 H      2   1   3     1.094618664056   108.51165715   117.24341890
 C      2   1   3     1.536119100233   112.76954078   236.60756609
 O      5   2   1     1.371130005835   112.45015817   308.05761124
 H      5   2   1     1.108791020932   106.73819398   184.14556847
 H      5   2   1     1.116242946361   107.80133579    72.66056267
 H      1   2   3     1.070001941727   109.47124826    62.75669464
 H      1   2   3     1.069998866261   109.47132016   302.75675043
 H      1   2   3     1.069998936915   109.47145062   182.75724067

---------------------------
INTERNAL COORDINATES (A.U.)
---------------------------
 C      0   0   0     0.000000000000     0.00000000     0.00000000
 C      1   0   0     2.882745258203     0.00000000     0.00000000
 H      2   1   0     2.074567194133   110.81662298     0.00000000
 H      2   1   3     2.068529496145   108.51165715   117.24341890
 C      2   1   3     2.902844408526   112.76954078   236.60756609
 O      5   2   1     2.591060205029   112.45015817   308.05761124
 H      5   2   1     2.095311369313   106.73819398   184.14556847
 H      5   2   1     2.109393467543   107.80133579    72.66056267
 H      1   2   3     2.022010632628   109.47124826    62.75669464
 H      1   2   3     2.022004820840   109.47132016   302.75675043
 H      1   2   3     2.022004954357   109.47145062   182.75724067

---------------------
BASIS SET INFORMATION
---------------------
There are 3 groups of distinct atoms

 Group   1 Type C   : 8s4p2d contracted to 4s2p2d pattern {5111/31/11}
 Group   2 Type H   : 4s2p contracted to 2s2p pattern {31/11}
 Group   3 Type O   : 8s5p2d contracted to 4s3p2d pattern {5111/311/11}

Atom   0C    basis set group =>   1
Atom   1C    basis set group =>   1
Atom   2H    basis set group =>   2
Atom   3H    basis set group =>   2
Atom   4C    basis set group =>   1
Atom   5O    basis set group =>   3
Atom   6H    basis set group =>   2
Atom   7H    basis set group =>   2
Atom   8H    basis set group =>   2
Atom   9H    basis set group =>   2
Atom  10H    basis set group =>   2
---------------------------------
AUXILIARY/J BASIS SET INFORMATION
---------------------------------
There are 3 groups of distinct atoms

 Group   1 Type C   : 12s5p4d2f1g contracted to 6s4p3d1f1g pattern {711111/2111/211/2/1}
 Group   2 Type H   : 5s2p1d contracted to 3s1p1d pattern {311/2/1}
 Group   3 Type O   : 12s5p4d2f1g contracted to 6s4p3d1f1g pattern {711111/2111/211/2/1}

Atom   0C    basis set group =>   1
Atom   1C    basis set group =>   1
Atom   2H    basis set group =>   2
Atom   3H    basis set group =>   2
Atom   4C    basis set group =>   1
Atom   5O    basis set group =>   3
Atom   6H    basis set group =>   2
Atom   7H    basis set group =>   2
Atom   8H    basis set group =>   2
Atom   9H    basis set group =>   2
Atom  10H    basis set group =>   2


           ************************************************************
           *        Program running with 4 parallel MPI-processes     *
           *              working on a common directory               *
           ************************************************************
------------------------------------------------------------------------------
                           ORCA GTO INTEGRAL CALCULATION
                           -- RI-GTO INTEGRALS CHOSEN --
------------------------------------------------------------------------------
------------------------------------------------------------------------------
                   ___                                                        
                  /   \      - P O W E R E D   B Y -                         
                 /     \                                                     
                 |  |  |   _    _      __       _____    __    __             
                 |  |  |  | |  | |    /  \     |  _  \  |  |  /  |          
                  \  \/   | |  | |   /    \    | | | |  |  | /  /          
                 / \  \   | |__| |  /  /\  \   | |_| |  |  |/  /          
                |  |  |   |  __  | /  /__\  \  |    /   |      \           
                |  |  |   | |  | | |   __   |  |    \   |  |\   \          
                \     /   | |  | | |  |  |  |  | |\  \  |  | \   \       
                 \___/    |_|  |_| |__|  |__|  |_| \__\ |__|  \__/        
                                                                              
                      - O R C A' S   B I G   F R I E N D -                    
                                      &                                       
                       - I N T E G R A L  F E E D E R -                       
                                                                              
 v1 FN, 2020, v2 2021                                                         
------------------------------------------------------------------------------


Reading SHARK input file 14Feb_SVPD_BLYP_A_wt_wb97_typ1_neg.SHARKINP.tmp ... ok
----------------------
SHARK INTEGRAL PACKAGE
----------------------

Number of atoms                             ...     11
Number of basis functions                   ...    139
Number of shells                            ...     61
Maximum angular momentum                    ...      2
Integral batch strategy                     ... SHARK/LIBINT Hybrid
RI-J (if used) integral strategy            ... SPLIT-RIJ (Revised 2003 algorithm where possible)
Printlevel                                  ...      1
Contraction scheme used                     ... SEGMENTED contraction
Coulomb Range Separation                    ... NOT USED
Exchange Range Separation                   ... NOT USED
Finite Nucleus Model                        ... NOT USED
Auxiliary Coulomb fitting basis             ... AVAILABLE
   # of basis functions in Aux-J            ...    273
   # of shells in Aux-J                     ...     95
   Maximum angular momentum in Aux-J        ...      4
Auxiliary J/K fitting basis                 ... NOT available
Auxiliary Correlation fitting basis         ... NOT available
Auxiliary 'external' fitting basis          ... NOT available
Integral threshold                          ...     2.500000e-11
Primitive cut-off                           ...     2.500000e-12
Primitive pair pre-selection threshold      ...     2.500000e-12

Calculating pre-screening integrals         ... done (  0.0 sec) Dimension = 61
Organizing shell pair data                  ... done (  0.0 sec)
Shell pair information
Total number of shell pairs                 ...      1891
Shell pairs after pre-screening             ...      1884
Total number of primitive shell pairs       ...      5023
Primitive shell pairs kept                  ...      4395
          la=0 lb=0:    462 shell pairs
          la=1 lb=0:    686 shell pairs
          la=1 lb=1:    276 shell pairs
          la=2 lb=0:    240 shell pairs
          la=2 lb=1:    184 shell pairs
          la=2 lb=2:     36 shell pairs

Calculating one electron integrals          ... done (  0.0 sec)
Calculating RI/J V-Matrix + Cholesky decomp.... done (  0.0 sec)
Calculating Nuclear repulsion               ... done (  0.0 sec) ENN=    124.472625660718 Eh

SHARK setup successfully completed in   0.1 seconds

Maximum memory used throughout the entire GTOINT-calculation: 8.8 MB


           ************************************************************
           *        Program running with 4 parallel MPI-processes     *
           *              working on a common directory               *
           ************************************************************
-------------------------------------------------------------------------------
                                 ORCA SCF
-------------------------------------------------------------------------------

------------
SCF SETTINGS
------------
Hamiltonian:
 Density Functional     Method          .... DFT(GTOs)
 Exchange Functional    Exchange        .... B88
   X-Alpha parameter    XAlpha          ....  0.666667
   Becke's b parameter  XBeta           ....  0.004200
 Correlation Functional Correlation     .... LYP
 Gradients option       PostSCFGGA      .... off
   Density functional embedding theory  .... OFF
   NL short-range parameter             ....  4.000000
 RI-approximation to the Coulomb term is turned on
   Number of AuxJ basis functions       .... 273


General Settings:
 Integral files         IntName         .... 14Feb_SVPD_BLYP_A_wt_wb97_typ1_neg
 Hartree-Fock type      HFTyp           .... RHF
 Total Charge           Charge          ....   -1
 Multiplicity           Mult            ....    1
 Number of Electrons    NEL             ....   34
 Basis Dimension        Dim             ....  139
 Nuclear Repulsion      ENuc            ....    124.4726256607 Eh

Convergence Acceleration:
 DIIS                   CNVDIIS         .... on
   Start iteration      DIISMaxIt       ....    12
   Startup error        DIISStart       ....  0.200000
   # of expansion vecs  DIISMaxEq       ....     5
   Bias factor          DIISBfac        ....   1.050
   Max. coefficient     DIISMaxC        ....  10.000
 Trust-Rad. Augm. Hess. CNVTRAH         .... auto
   Auto Start mean grad. ratio tolernc. ....  1.125000
   Auto Start start iteration           ....    20
   Auto Start num. interpolation iter.  ....    10
   Max. Number of Micro iterations      ....    16
   Max. Number of Macro iterations      .... Maxiter - #DIIS iter
   Number of Davidson start vectors     ....     2
   Converg. threshold I  (grad. norm)   ....   1.000e-05
   Converg. threshold II (energy diff.) ....   1.000e-08
   Grad. Scal. Fac. for Micro threshold ....   0.100
   Minimum threshold for Micro iter.    ....   0.010
   NR start threshold (gradient norm)   ....   0.001
   Initial trust radius                 ....   0.400
   Minimum AH scaling param. (alpha)    ....   1.000
   Maximum AH scaling param. (alpha)    .... 1000.000
   Orbital update algorithm             .... Taylor
   White noise on init. David. guess    .... on
   Maximum white noise                  ....   0.010
   Quad. conv. algorithm                .... NR
 SOSCF                  CNVSOSCF        .... on
   Start iteration      SOSCFMaxIt      ....   150
   Startup grad/error   SOSCFStart      ....  0.003300
 Level Shifting         CNVShift        .... on
   Level shift para.    LevelShift      ....    0.2500
   Turn off err/grad.   ShiftErr        ....    0.0010
 Zerner damping         CNVZerner       .... off
 Static damping         CNVDamp         .... on
   Fraction old density DampFac         ....    0.7000
   Max. Damping (<1)    DampMax         ....    0.9800
   Min. Damping (>=0)   DampMin         ....    0.0000
   Turn off err/grad.   DampErr         ....    0.1000
 Fernandez-Rico         CNVRico         .... off

SCF Procedure:
 Maximum # iterations   MaxIter         ....   150
 SCF integral mode      SCFMode         .... Direct
   Integral package                     .... SHARK and LIBINT hybrid scheme
 Reset frequency        DirectResetFreq ....    20
 Integral Threshold     Thresh          ....  2.500e-11 Eh
 Primitive CutOff       TCut            ....  2.500e-12 Eh

Convergence Tolerance:
 Convergence Check Mode ConvCheckMode   .... Total+1el-Energy
 Convergence forced     ConvForced      .... 0
 Energy Change          TolE            ....  1.000e-08 Eh
 1-El. energy change                    ....  1.000e-05 Eh
 Orbital Gradient       TolG            ....  1.000e-05
 Orbital Rotation angle TolX            ....  1.000e-05
 DIIS Error             TolErr          ....  5.000e-07


Diagonalization of the overlap matrix:
Smallest eigenvalue                        ... 2.303e-04
Time for diagonalization                   ...    0.006 sec
Threshold for overlap eigenvalues          ... 1.000e-08
Number of eigenvalues below threshold      ... 0
Time for construction of square roots      ...    0.005 sec
Total time needed                          ...    0.012 sec

Time for model grid setup =    0.053 sec

------------------------------
INITIAL GUESS: MODEL POTENTIAL
------------------------------
Loading Hartree-Fock densities                     ... done
Calculating cut-offs                               ... done
Initializing the effective Hamiltonian             ... done
Setting up the integral package (SHARK)            ... done
Starting the Coulomb interaction                   ... done (   0.0 sec)
Reading the grid                                   ... done
Mapping shells                                     ... done
Starting the XC term evaluation                    ... done (   0.0 sec)
  promolecular density results
     # of electrons  =     32.994463735
     EX              =    -25.649647090
     EC              =     -1.074906363
     EX+EC           =    -26.724553453
Transforming the Hamiltonian                       ... done (   0.0 sec)
Diagonalizing the Hamiltonian                      ... done (   0.0 sec)
Back transforming the eigenvectors                 ... done (   0.0 sec)
Now organizing SCF variables                       ... done
                      ------------------
                      INITIAL GUESS DONE (   0.1 sec)
                      ------------------
-------------------
DFT GRID GENERATION
-------------------

General Integration Accuracy     IntAcc      ... 4.388
Radial Grid Type                 RadialGrid  ... OptM3 with GC (2021)
Angular Grid (max. ang.)         AngularGrid ... 4 (Lebedev-302)
Angular grid pruning method      GridPruning ... 4 (adaptive)
Weight generation scheme         WeightScheme... Becke
Basis function cutoff            BFCut       ... 1.0000e-11
Integration weight cutoff        WCut        ... 1.0000e-14
Angular grids for H and He will be reduced by one unit
Partially contracted basis set               ... off
Rotationally invariant grid construction     ... off

Total number of grid points                  ...    48542
Total number of batches                      ...      765
Average number of points per batch           ...       63
Average number of grid points per atom       ...     4413
Time for grid setup =    0.271 sec

--------------
SCF ITERATIONS
--------------
ITER       Energy         Delta-E        Max-DP      RMS-DP      [F,P]     Damp
               ***  Starting incremental Fock matrix formation  ***
  0   -193.1889094177   0.000000000000 1.60444418  0.03320055  0.3539104 0.7000
  1   -193.3667031543  -0.177793736599 0.74353302  0.01687787  0.0881351 0.7000
                               ***Turning on DIIS***
  2   -193.3919899881  -0.025286833820 0.69498505  0.01616429  0.0663141 0.0000
  3   -193.4942267172  -0.102236729080 0.82408766  0.01821762  0.0858828 0.0000
  4   -193.5120789586  -0.017852241442 0.29560962  0.00703852  0.0737452 0.0000
  5   -193.5194159460  -0.007336987370 0.13263619  0.00318569  0.0312513 0.0000
  6   -193.5214580882  -0.002042142236 0.06368771  0.00159731  0.0154228 0.0000
  7   -193.5220229386  -0.000564850409 0.03293236  0.00090264  0.0037604 0.0000
                      *** Initiating the SOSCF procedure ***
                           *** Shutting down DIIS ***
                      *** Re-Reading the Fockian *** 
                      *** Removing any level shift *** 
ITER      Energy       Delta-E        Grad      Rot      Max-DP    RMS-DP
  8   -193.52210853  -0.0000855924  0.001099  0.001099  0.018707  0.000576
               *** Restarting incremental Fock matrix formation ***
  9   -193.52213620  -0.0000276712  0.000747  0.008579  0.031379  0.001239
 10   -193.52215483  -0.0000186286  0.000225  0.001771  0.006915  0.000240
 11   -193.52215062   0.0000042143  0.000474  0.001863  0.006364  0.000228
 12   -193.52215561  -0.0000049953  0.000027  0.000140  0.000676  0.000023
 13   -193.52215557   0.0000000387  0.000036  0.000041  0.000347  0.000010
 14   -193.52215568  -0.0000001039  0.000008  0.000020  0.000098  0.000004
 15   -193.52215568  -0.0000000015  0.000008  0.000010  0.000053  0.000002
                  ***Gradient check signals convergence***
              ***Rediagonalizing the Fockian in SOSCF/NRSCF***

               *****************************************************
               *                     SUCCESS                       *
               *           SCF CONVERGED AFTER  16 CYCLES          *
               *****************************************************


----------------
TOTAL SCF ENERGY
----------------

Total Energy       :         -193.52215568 Eh           -5266.00557 eV

Components:
Nuclear Repulsion  :          124.47262566 Eh            3387.07234 eV
Electronic Energy  :         -317.99478134 Eh           -8653.07791 eV
One Electron Energy:         -515.40586156 Eh          -14024.90651 eV
Two Electron Energy:          197.41108022 Eh            5371.82859 eV

Virial components:
Potential Energy   :         -385.23436357 Eh          -10482.75997 eV
Kinetic Energy     :          191.71220789 Eh            5216.75439 eV
Virial Ratio       :            2.00944096


DFT components:
N(Alpha)           :       17.000195742465 electrons
N(Beta)            :       17.000195742465 electrons
N(Total)           :       34.000391484929 electrons
E(X)               :      -26.459483978663 Eh       
E(C)               :       -1.110705576838 Eh       
E(XC)              :      -27.570189555501 Eh       
DFET-embed. en.    :        0.000000000000 Eh       

---------------
SCF CONVERGENCE
---------------

  Last Energy change         ...   -3.1305e-09  Tolerance :   1.0000e-08
  Last MAX-Density change    ...    2.1260e-05  Tolerance :   1.0000e-07
  Last RMS-Density change    ...    4.8354e-07  Tolerance :   5.0000e-09
  Last Orbital Gradient      ...    1.1634e-06  Tolerance :   1.0000e-05
  Last Orbital Rotation      ...    2.4508e-06  Tolerance :   1.0000e-05

             **** THE GBW FILE WAS UPDATED (14Feb_SVPD_BLYP_A_wt_wb97_typ1_neg.gbw) ****
             **** DENSITY 14Feb_SVPD_BLYP_A_wt_wb97_typ1_neg.scfp WAS UPDATED ****
             **** ENERGY FILE WAS UPDATED (14Feb_SVPD_BLYP_A_wt_wb97_typ1_neg.en.tmp) ****
             **** THE GBW FILE WAS UPDATED (14Feb_SVPD_BLYP_A_wt_wb97_typ1_neg.gbw) ****
             **** DENSITY 14Feb_SVPD_BLYP_A_wt_wb97_typ1_neg.scfp WAS UPDATED ****
----------------
ORBITAL ENERGIES
----------------

  NO   OCC          E(Eh)            E(eV) 
   0   2.0000     -18.474133      -502.7067 
   1   2.0000      -9.741318      -265.0747 
   2   2.0000      -9.738370      -264.9945 
   3   2.0000      -9.731367      -264.8040 
   4   2.0000      -0.593197       -16.1417 
   5   2.0000      -0.498701       -13.5704 
   6   2.0000      -0.393235       -10.7005 
   7   2.0000      -0.298595        -8.1252 
   8   2.0000      -0.222347        -6.0504 
   9   2.0000      -0.214138        -5.8270 
  10   2.0000      -0.168909        -4.5962 
  11   2.0000      -0.142293        -3.8720 
  12   2.0000      -0.117989        -3.2106 
  13   2.0000      -0.107433        -2.9234 
  14   2.0000      -0.070529        -1.9192 
  15   2.0000       0.062941         1.7127 
  16   2.0000       0.067164         1.8276 
  17   0.0000       0.149594         4.0707 
  18   0.0000       0.173556         4.7227 
  19   0.0000       0.189293         5.1509 
  20   0.0000       0.212319         5.7775 
  21   0.0000       0.230605         6.2751 
  22   0.0000       0.241809         6.5800 
  23   0.0000       0.248559         6.7636 
  24   0.0000       0.258110         7.0235 
  25   0.0000       0.264811         7.2059 
  26   0.0000       0.291040         7.9196 
  27   0.0000       0.300511         8.1773 
  28   0.0000       0.306056         8.3282 
  29   0.0000       0.312141         8.4938 
  30   0.0000       0.327297         8.9062 
  31   0.0000       0.332601         9.0505 
  32   0.0000       0.340780         9.2731 
  33   0.0000       0.370512        10.0821 
  34   0.0000       0.390566        10.6279 
  35   0.0000       0.415619        11.3096 
  36   0.0000       0.427540        11.6339 
  37   0.0000       0.437088        11.8938 
  38   0.0000       0.443718        12.0742 
  39   0.0000       0.457832        12.4582 
  40   0.0000       0.467768        12.7286 
  41   0.0000       0.472668        12.8620 
  42   0.0000       0.480879        13.0854 
  43   0.0000       0.485944        13.2232 
  44   0.0000       0.491464        13.3734 
  45   0.0000       0.500430        13.6174 
  46   0.0000       0.510776        13.8989 
  47   0.0000       0.524440        14.2707 
  48   0.0000       0.526892        14.3375 
  49   0.0000       0.531800        14.4710 
  50   0.0000       0.542758        14.7692 
  51   0.0000       0.547405        14.8957 
  52   0.0000       0.568640        15.4735 
  53   0.0000       0.581707        15.8290 
  54   0.0000       0.593618        16.1532 
  55   0.0000       0.610541        16.6137 
  56   0.0000       0.617044        16.7906 
  57   0.0000       0.627342        17.0708 
  58   0.0000       0.632244        17.2042 
  59   0.0000       0.642845        17.4927 
  60   0.0000       0.659679        17.9508 
  61   0.0000       0.680322        18.5125 
  62   0.0000       0.681336        18.5401 
  63   0.0000       0.693554        18.8726 
  64   0.0000       0.695454        18.9243 
  65   0.0000       0.717605        19.5270 
  66   0.0000       0.722850        19.6698 
  67   0.0000       0.738565        20.0974 
  68   0.0000       0.758630        20.6434 
  69   0.0000       0.783169        21.3111 
  70   0.0000       0.827732        22.5237 
  71   0.0000       0.848178        23.0801 
  72   0.0000       0.879369        23.9289 
  73   0.0000       0.903375        24.5821 
  74   0.0000       0.934852        25.4386 
  75   0.0000       0.966559        26.3014 
  76   0.0000       1.008847        27.4521 
  77   0.0000       1.029697        28.0195 
  78   0.0000       1.056765        28.7560 
  79   0.0000       1.091618        29.7044 
  80   0.0000       1.111493        30.2453 
  81   0.0000       1.131024        30.7767 
  82   0.0000       1.134985        30.8845 
  83   0.0000       1.143865        31.1261 
  84   0.0000       1.161266        31.5997 
  85   0.0000       1.206680        32.8354 
  86   0.0000       1.241945        33.7950 
  87   0.0000       1.268936        34.5295 
  88   0.0000       1.292459        35.1696 
  89   0.0000       1.370492        37.2930 
  90   0.0000       1.397947        38.0401 
  91   0.0000       1.416906        38.5560 
  92   0.0000       1.425250        38.7830 
  93   0.0000       1.476633        40.1812 
  94   0.0000       1.662172        45.2300 
  95   0.0000       1.688611        45.9494 
  96   0.0000       1.725047        46.9409 
  97   0.0000       1.728515        47.0353 
  98   0.0000       1.740990        47.3748 
  99   0.0000       1.762831        47.9691 
 100   0.0000       1.809926        49.2506 
 101   0.0000       1.839263        50.0489 
 102   0.0000       1.868532        50.8454 
 103   0.0000       1.941119        52.8205 
 104   0.0000       1.978813        53.8462 
 105   0.0000       2.005262        54.5659 
 106   0.0000       2.038356        55.4665 
 107   0.0000       2.084835        56.7313 
 108   0.0000       2.108378        57.3719 
 109   0.0000       2.122145        57.7465 
 110   0.0000       2.146402        58.4066 
 111   0.0000       2.161030        58.8046 
 112   0.0000       2.176028        59.2127 
 113   0.0000       2.202465        59.9321 
 114   0.0000       2.226938        60.5981 
 115   0.0000       2.310761        62.8790 
 116   0.0000       2.324745        63.2595 
 117   0.0000       2.405753        65.4639 
 118   0.0000       2.435654        66.2775 
 119   0.0000       2.500900        68.0529 
 120   0.0000       2.544635        69.2430 
 121   0.0000       2.610255        71.0287 
 122   0.0000       2.652708        72.1839 
 123   0.0000       2.683475        73.0211 
 124   0.0000       2.769050        75.3497 
 125   0.0000       2.791583        75.9628 
 126   0.0000       2.820679        76.7546 
 127   0.0000       2.942415        80.0672 
 128   0.0000       3.064627        83.3927 
 129   0.0000       3.082544        83.8803 
 130   0.0000       3.117230        84.8241 
 131   0.0000       3.155635        85.8692 
 132   0.0000       3.192249        86.8655 
 133   0.0000       3.234932        88.0270 
 134   0.0000       3.258988        88.6816 
 135   0.0000       3.285626        89.4064 
 136   0.0000       3.368810        91.6700 
 137   0.0000       3.376822        91.8880 
 138   0.0000       3.745554       101.9217 

                    ********************************
                    * MULLIKEN POPULATION ANALYSIS *
                    ********************************

-----------------------
MULLIKEN ATOMIC CHARGES
-----------------------
   0 C :    0.984260
   1 C :   -0.310554
   2 H :   -0.206406
   3 H :   -0.174881
   4 C :    0.603317
   5 O :   -0.806699
   6 H :   -0.301682
   7 H :   -0.224410
   8 H :   -0.189704
   9 H :   -0.236795
  10 H :   -0.136446
Sum of atomic charges:   -1.0000000

--------------------------------
MULLIKEN REDUCED ORBITAL CHARGES
--------------------------------
  0 C s       :     2.291393  s :     2.291393
      pz      :     0.824245  p :     2.575002
      px      :     0.729537
      py      :     1.021220
      dz2     :     0.015353  d :     0.149345
      dxz     :    -0.027422
      dyz     :     0.079155
      dx2y2   :     0.014419
      dxy     :     0.067840
  1 C s       :     2.839846  s :     2.839846
      pz      :     0.806265  p :     2.801491
      px      :     1.021152
      py      :     0.974073
      dz2     :     0.041365  d :     0.669217
      dxz     :     0.117263
      dyz     :     0.149658
      dx2y2   :     0.086325
      dxy     :     0.274608
  2 H s       :     1.157039  s :     1.157039
      pz      :     0.012133  p :     0.049368
      px      :     0.011567
      py      :     0.025668
  3 H s       :     1.144890  s :     1.144890
      pz      :     0.070685  p :     0.029991
      px      :    -0.005195
      py      :    -0.035499
  4 C s       :     2.776709  s :     2.776709
      pz      :     0.757360  p :     2.415405
      px      :     0.893658
      py      :     0.764387
      dz2     :     0.018729  d :     0.204569
      dxz     :     0.095970
      dyz     :     0.005054
      dx2y2   :     0.054505
      dxy     :     0.030312
  5 O s       :     3.862721  s :     3.862721
      pz      :     1.668774  p :     4.903438
      px      :     1.641575
      py      :     1.593089
      dz2     :     0.015931  d :     0.040539
      dxz     :     0.001112
      dyz     :     0.005949
      dx2y2   :     0.010270
      dxy     :     0.007277
  6 H s       :     1.207734  s :     1.207734
      pz      :     0.004056  p :     0.093948
      px      :    -0.015931
      py      :     0.105823
  7 H s       :     1.129500  s :     1.129500
      pz      :     0.107801  p :     0.094910
      px      :    -0.008900
      py      :    -0.003991
  8 H s       :     1.143542  s :     1.143542
      pz      :     0.070010  p :     0.046162
      px      :    -0.032499
      py      :     0.008652
  9 H s       :     1.215054  s :     1.215054
      pz      :    -0.044672  p :     0.021741
      px      :     0.073445
      py      :    -0.007032
 10 H s       :     1.074355  s :     1.074355
      pz      :     0.039563  p :     0.062091
      px      :     0.006594
      py      :     0.015935


                     *******************************
                     * LOEWDIN POPULATION ANALYSIS *
                     *******************************

----------------------
LOEWDIN ATOMIC CHARGES
----------------------
   0 C :    0.094992
   1 C :   -0.109046
   2 H :   -0.022434
   3 H :   -0.007410
   4 C :   -0.218281
   5 O :   -0.515065
   6 H :   -0.045241
   7 H :   -0.038849
   8 H :   -0.040153
   9 H :   -0.057020
  10 H :   -0.041492

-------------------------------
LOEWDIN REDUCED ORBITAL CHARGES
-------------------------------
  0 C s       :     2.716789  s :     2.716789
      pz      :     0.922258  p :     2.742945
      px      :     0.903408
      py      :     0.917279
      dz2     :     0.084628  d :     0.445274
      dxz     :     0.033189
      dyz     :     0.111937
      dx2y2   :     0.111119
      dxy     :     0.104400
  1 C s       :     2.729066  s :     2.729066
      pz      :     0.892050  p :     2.673499
      px      :     0.903588
      py      :     0.877860
      dz2     :     0.103147  d :     0.706481
      dxz     :     0.134745
      dyz     :     0.129396
      dx2y2   :     0.147322
      dxy     :     0.191870
  2 H s       :     0.751197  s :     0.751197
      pz      :     0.097260  p :     0.271236
      px      :     0.088657
      py      :     0.085319
  3 H s       :     0.740089  s :     0.740089
      pz      :     0.124892  p :     0.267322
      px      :     0.077465
      py      :     0.064965
  4 C s       :     2.712765  s :     2.712765
      pz      :     0.858739  p :     2.559240
      px      :     0.851156
      py      :     0.849344
      dz2     :     0.226347  d :     0.946276
      dxz     :     0.172937
      dyz     :     0.120024
      dx2y2   :     0.264537
      dxy     :     0.162432
  5 O s       :     3.527112  s :     3.527112
      pz      :     1.593936  p :     4.730515
      px      :     1.589000
      py      :     1.547579
      dz2     :     0.059069  d :     0.257438
      dxz     :     0.038457
      dyz     :     0.044423
      dx2y2   :     0.066080
      dxy     :     0.049408
  6 H s       :     0.761986  s :     0.761986
      pz      :     0.076636  p :     0.283255
      px      :     0.064652
      py      :     0.141967
  7 H s       :     0.758471  s :     0.758471
      pz      :     0.149943  p :     0.280379
      px      :     0.063699
      py      :     0.066737
  8 H s       :     0.750124  s :     0.750124
      pz      :     0.129017  p :     0.290028
      px      :     0.087006
      py      :     0.074006
  9 H s       :     0.761589  s :     0.761589
      pz      :     0.079830  p :     0.295431
      px      :     0.135378
      py      :     0.080223
 10 H s       :     0.731107  s :     0.731107
      pz      :     0.107711  p :     0.310384
      px      :     0.112705
      py      :     0.089969


                      *****************************
                      * MAYER POPULATION ANALYSIS *
                      *****************************

  NA   - Mulliken gross atomic population
  ZA   - Total nuclear charge
  QA   - Mulliken gross atomic charge
  VA   - Mayer's total valence
  BVA  - Mayer's bonded valence
  FA   - Mayer's free valence

  ATOM       NA         ZA         QA         VA         BVA        FA
  0 C      5.0157     6.0000     0.9843     3.7561     3.7561    -0.0000
  1 C      6.3106     6.0000    -0.3106     5.5794     5.5794    -0.0000
  2 H      1.2064     1.0000    -0.2064     1.0831     1.0831    -0.0000
  3 H      1.1749     1.0000    -0.1749     1.0004     1.0004     0.0000
  4 C      5.3967     6.0000     0.6033     4.3716     4.3716    -0.0000
  5 O      8.8067     8.0000    -0.8067     1.3005     1.3005     0.0000
  6 H      1.3017     1.0000    -0.3017     1.1782     1.1782    -0.0000
  7 H      1.2244     1.0000    -0.2244     1.1666     1.1666     0.0000
  8 H      1.1897     1.0000    -0.1897     1.0466     1.0466     0.0000
  9 H      1.2368     1.0000    -0.2368     0.9735     0.9735    -0.0000
 10 H      1.1364     1.0000    -0.1364     1.0753     1.0753     0.0000

  Mayer bond orders larger than 0.100000
B(  0-C ,  1-C ) :   1.2696 B(  0-C ,  2-H ) :   0.1106 B(  0-C ,  3-H ) :   0.1143 
B(  0-C ,  8-H ) :   0.7289 B(  0-C ,  9-H ) :   0.6831 B(  0-C , 10-H ) :   0.7415 
B(  1-C ,  2-H ) :   0.9718 B(  1-C ,  3-H ) :   0.8849 B(  1-C ,  4-C ) :   1.0458 
B(  1-C ,  5-O ) :   0.2063 B(  1-C ,  6-H ) :   0.2104 B(  1-C ,  7-H ) :   0.1956 
B(  1-C ,  8-H ) :   0.2572 B(  1-C ,  9-H ) :   0.2740 B(  1-C , 10-H ) :   0.2638 
B(  2-H ,  4-C ) :   0.1360 B(  3-H ,  4-C ) :   0.1566 B(  4-C ,  5-O ) :   1.1734 
B(  4-C ,  6-H ) :   0.8786 B(  4-C ,  7-H ) :   0.8871 B(  6-H ,  7-H ) :   0.1085 


-------
TIMINGS
-------

Total SCF time: 0 days 0 hours 0 min 3 sec 

Total time                  ....       3.608 sec
Sum of individual times     ....       3.471 sec  ( 96.2%)

Fock matrix formation       ....       2.967 sec  ( 82.2%)
  Split-RI-J                ....       0.539 sec  ( 18.2% of F)
  XC integration            ....       2.398 sec  ( 80.8% of F)
    Basis function eval.    ....       0.854 sec  ( 35.6% of XC)
    Density eval.           ....       0.549 sec  ( 22.9% of XC)
    XC-Functional eval.     ....       0.133 sec  (  5.5% of XC)
    XC-Potential eval.      ....       0.747 sec  ( 31.1% of XC)
Diagonalization             ....       0.040 sec  (  1.1%)
Density matrix formation    ....       0.003 sec  (  0.1%)
Population analysis         ....       0.004 sec  (  0.1%)
Initial guess               ....       0.072 sec  (  2.0%)
Orbital Transformation      ....       0.000 sec  (  0.0%)
Orbital Orthonormalization  ....       0.000 sec  (  0.0%)
DIIS solution               ....       0.036 sec  (  1.0%)
SOSCF solution              ....       0.026 sec  (  0.7%)
Grid generation             ....       0.324 sec  (  9.0%)

Maximum memory used throughout the entire SCF-calculation: 15.9 MB


-------------------------------------------------------------------------------
                          DFT DISPERSION CORRECTION                            
                                                                               
                              DFTD3 V3.1  Rev 1                                
                          USING Becke-Johnson damping                          
-------------------------------------------------------------------------------
The BLYP functional is recognized
Active option DFTDOPT                   ...         4   

molecular C6(AA) [au] = 819.242347 


            DFT-D V3
 parameters
 s6 scaling factor         :     1.0000 
 a1 scaling factor         :     0.4298 
 s8 scaling factor         :     2.6996 
 a2 scaling factor         :     4.2359 
 ad hoc parameters k1-k3   :    16.0000     1.3333    -4.0000 

 Edisp/kcal,au: -8.533234602612  -0.013598573480 
 E6   /kcal   :  -3.578937810 
 E8   /kcal   :  -4.954296792 
 % E8         :  58.058837278 

-------------------------   ----------------
Dispersion correction           -0.013598573
-------------------------   ----------------


-------------------------   --------------------
FINAL SINGLE POINT ENERGY      -193.535754255158
-------------------------   --------------------


                            ***************************************
                            *     ORCA property calculations      *
                            ***************************************

                                    ---------------------
                                    Active property flags
                                    ---------------------
   (+) Dipole Moment


------------------------------------------------------------------------------
                       ORCA ELECTRIC PROPERTIES CALCULATION
------------------------------------------------------------------------------

Dipole Moment Calculation                       ... on
Quadrupole Moment Calculation                   ... off
Polarizability Calculation                      ... off
GBWName                                         ... 14Feb_SVPD_BLYP_A_wt_wb97_typ1_neg.gbw
Electron density file                           ... 14Feb_SVPD_BLYP_A_wt_wb97_typ1_neg.scfp
The origin for moment calculation is the CENTER OF MASS  = ( 0.246073,  4.585069 -0.864617)

-------------
DIPOLE MOMENT
-------------
                                X             Y             Z
Electronic contribution:      2.65192      -0.03873       1.52097
Nuclear contribution   :     -4.35230      -0.04018      -2.29108
                        -----------------------------------------
Total Dipole Moment    :     -1.70038      -0.07892      -0.77012
                        -----------------------------------------
Magnitude (a.u.)       :      1.86832
Magnitude (Debye)      :      4.74889



--------------------
Rotational spectrum 
--------------------
 
Rotational constants in cm-1:     0.489965     0.184028     0.151025 
Rotational constants in MHz : 14688.769521  5517.006179  4527.605157 

 Dipole components along the rotational axes: 
x,y,z [a.u.] :     1.751620    -0.638626     0.120839 
x,y,z [Debye]:     4.452263    -1.623257     0.307148 

 

Timings for individual modules:

Sum of individual times         ...        4.221 sec (=   0.070 min)
GTO integral calculation        ...        0.384 sec (=   0.006 min)   9.1 %
SCF iterations                  ...        3.836 sec (=   0.064 min)  90.9 %
                             ****ORCA TERMINATED NORMALLY****
TOTAL RUN TIME: 0 days 0 hours 0 minutes 4 seconds 596 msec
