
                                        *****************
                                        * O   R   C   A *
                                        *****************

                                            #,                                       
                                            ###                                      
                                            ####                                     
                                            #####                                    
                                            ######                                   
                                           ########,                                 
                                     ,,################,,,,,                         
                               ,,#################################,,                 
                          ,,##########################################,,             
                       ,#########################################, ''#####,          
                    ,#############################################,,   '####,        
                  ,##################################################,,,,####,       
                ,###########''''           ''''###############################       
              ,#####''   ,,,,##########,,,,          '''####'''          '####       
            ,##' ,,,,###########################,,,                        '##       
           ' ,,###''''                  '''############,,,                           
         ,,##''                                '''############,,,,        ,,,,,,###''
      ,#''                                            '''#######################'''  
     '                                                          ''''####''''         
             ,#######,   #######,   ,#######,      ##                                
            ,#'     '#,  ##    ##  ,#'     '#,    #''#        ######   ,####,        
            ##       ##  ##   ,#'  ##            #'  '#       #        #'  '#        
            ##       ##  #######   ##           ,######,      #####,   #    #        
            '#,     ,#'  ##    ##  '#,     ,#' ,#      #,         ##   #,  ,#        
             '#######'   ##     ##  '#######'  #'      '#     #####' # '####'        



                  #######################################################
                  #                        -***-                        #
                  #          Department of theory and spectroscopy      #
                  #    Directorship and core code : Frank Neese         #
                  #        Max Planck Institute fuer Kohlenforschung    #
                  #                Kaiser Wilhelm Platz 1               #
                  #                 D-45470 Muelheim/Ruhr               #
                  #                      Germany                        #
                  #                                                     #
                  #                  All rights reserved                #
                  #                        -***-                        #
                  #######################################################


                         Program Version 5.0.0 -  RELEASE  -
                                (SVN: $Rev: 19529$)
                ($Date: 2021-06-28 11:36:33 +0200 (Mo, 28 Jun 2021) $)


 With contributions from (in alphabetic order):
   Daniel Aravena         : Magnetic Suceptibility
   Michael Atanasov       : Ab Initio Ligand Field Theory (pilot matlab implementation)
   Alexander A. Auer      : GIAO ZORA, VPT2 properties, NMR spectrum
   Ute Becker             : Parallelization
   Giovanni Bistoni       : ED, misc. LED, open-shell LED, HFLD
   Martin Brehm           : Molecular dynamics
   Dmytro Bykov           : SCF Hessian
   Vijay G. Chilkuri      : MRCI spin determinant printing, contributions to CSF-ICE
   Dipayan Datta          : RHF DLPNO-CCSD density
   Achintya Kumar Dutta   : EOM-CC, STEOM-CC
   Dmitry Ganyushin       : Spin-Orbit,Spin-Spin,Magnetic field MRCI
   Miquel Garcia          : C-PCM Hessian, Gaussian charge scheme
   Yang Guo               : DLPNO-NEVPT2, F12-NEVPT2, CIM, IAO-localization
   Andreas Hansen         : Spin unrestricted coupled pair/coupled cluster methods
   Benjamin Helmich-Paris : MC-RPA, TRAH-SCF, COSX integrals
   Lee Huntington         : MR-EOM, pCC
   Robert Izsak           : Overlap fitted RIJCOSX, COSX-SCS-MP3, EOM
   Marcus Kettner         : VPT2
   Christian Kollmar      : KDIIS, OOCD, Brueckner-CCSD(T), CCSD density, CASPT2, CASPT2-K
   Simone Kossmann        : Meta GGA functionals, TD-DFT gradient, OOMP2, MP2 Hessian
   Martin Krupicka        : Initial AUTO-CI
   Lucas Lang             : DCDCAS
   Marvin Lechner         : AUTO-CI (C++ implementation), FIC-MRCC
   Dagmar Lenk            : GEPOL surface, SMD
   Dimitrios Liakos       : Extrapolation schemes; Compound Job, initial MDCI parallelization
   Dimitrios Manganas     : Further ROCIS development; embedding schemes
   Dimitrios Pantazis     : SARC Basis sets
   Anastasios Papadopoulos: AUTO-CI, single reference methods and gradients
   Taras Petrenko         : DFT Hessian,TD-DFT gradient, ASA, ECA, R-Raman, ABS, FL, XAS/XES, NRVS
   Peter Pinski           : DLPNO-MP2, DLPNO-MP2 Gradient
   Christoph Reimann      : Effective Core Potentials
   Marius Retegan         : Local ZFS, SOC
   Christoph Riplinger    : Optimizer, TS searches, QM/MM, DLPNO-CCSD(T), (RO)-DLPNO pert. Triples
   Tobias Risthaus        : Range-separated hybrids, TD-DFT gradient, RPA, STAB
   Michael Roemelt        : Original ROCIS implementation
   Masaaki Saitow         : Open-shell DLPNO-CCSD energy and density
   Barbara Sandhoefer     : DKH picture change effects
   Avijit Sen             : IP-ROCIS
   Kantharuban Sivalingam : CASSCF convergence, NEVPT2, FIC-MRCI
   Bernardo de Souza      : ESD, SOC TD-DFT
   Georgi Stoychev        : AutoAux, RI-MP2 NMR
   Willem Van den Heuvel  : Paramagnetic NMR
   Boris Wezisla          : Elementary symmetry handling
   Frank Wennmohs         : Technical directorship


 We gratefully acknowledge several colleagues who have allowed us to
 interface, adapt or use parts of their codes:
   Stefan Grimme, W. Hujo, H. Kruse, P. Pracht,  : VdW corrections, initial TS optimization,
                  C. Bannwarth, S. Ehlert          DFT functionals, gCP, sTDA/sTD-DF
   Ed Valeev, F. Pavosevic, A. Kumar             : LibInt (2-el integral package), F12 methods
   Garnet Chan, S. Sharma, J. Yang, R. Olivares  : DMRG
   Ulf Ekstrom                                   : XCFun DFT Library
   Mihaly Kallay                                 : mrcc  (arbitrary order and MRCC methods)
   Jiri Pittner, Ondrej Demel                    : Mk-CCSD
   Frank Weinhold                                : gennbo (NPA and NBO analysis)
   Christopher J. Cramer and Donald G. Truhlar   : smd solvation model
   Lars Goerigk                                  : TD-DFT with DH, B97 family of functionals
   V. Asgeirsson, H. Jonsson                     : NEB implementation
   FAccTs GmbH                                   : IRC, NEB, NEB-TS, DLPNO-Multilevel, CI-OPT
                                                   MM, QMMM, 2- and 3-layer-ONIOM, Crystal-QMMM,
                                                   LR-CPCM, SF, NACMEs, symmetry and pop. for TD-DFT,
                                                   nearIR, NL-DFT gradient (VV10), updates on ESD,
                                                   ML-optimized integration grids
   S Lehtola, MJT Oliveira, MAL Marques          : LibXC Library
   Liviu Ungur et al                             : ANISO software


 Your calculation uses the libint2 library for the computation of 2-el integrals
 For citations please refer to: http://libint.valeyev.net

 Your ORCA version has been built with support for libXC version: 5.1.0
 For citations please refer to: https://tddft.org/programs/libxc/

 This ORCA versions uses:
   CBLAS   interface :  Fast vector & matrix operations
   LAPACKE interface :  Fast linear algebra routines
   SCALAPACK package :  Parallel linear algebra routines
   Shared memory     :  Shared parallel matrices
   BLAS/LAPACK       :  OpenBLAS 0.3.15  USE64BITINT DYNAMIC_ARCH NO_AFFINITY Haswell SINGLE_THREADED
        Core in use  :  Haswell
   Copyright (c) 2011-2014, The OpenBLAS Project




***************************************
The coordinates will be read from file: B.xyz
***************************************


XCFun DFT library Copyright 2009-2010 Ulf Ekstrom and contributors.
See http://admol.org/xcfun for more information.
This is free software; see the source code for copying conditions.
There is ABSOLUTELY NO WARRANTY; not even for MERCHANTABILITY or FITNESS FOR A PARTICULAR PURPOSE.
For details see the documentation.
Scientific users of this library should cite U. Ekstrom, L. Visscher, R. Bast, A. J. Thorvaldsen and K. Ruud;
J.Chem.Theor.Comp. 2010, DOI: 10.1021/ct100117s
XCFun Version 0.99 

================================================================================

----- Orbital basis set information -----
Your calculation utilizes the basis: def2-SVPD
   F. Weigend and R. Ahlrichs, Phys. Chem. Chem. Phys. 7, 3297 (2005).
   D. Rappoport and F. Furche, J. Chem. Phys. 133 134105 (2010).

----- AuxJ basis set information -----
Your calculation utilizes the auxiliary basis: def2/J
   F. Weigend, Phys. Chem. Chem. Phys. 8, 1057 (2006).

================================================================================
                                        WARNINGS
                       Please study these warnings very carefully!
================================================================================


INFO   : the flag for use of the SHARK integral package has been found!

================================================================================
                                       INPUT FILE
================================================================================
NAME = 28Oct_SVPD_CAMB3LYP_B_wt_wb97.com
|  1> !CAM-B3LYP RIJCOSX def2-SVPD def2/J TightSCF xyzfile                                                                                         
|  2> 
|  3> *xyzfile 0 1 B.xyz
|  4> 
|  5> %MaxCore 64000
|  6> 
|  7> %pal nprocs 4                                                                                                                                                  
|  8> end  
|  9> 
| 10> %scf
| 11>   MaxIter 150
| 12> end
| 13> 
| 14> 
| 15>                          ****END OF INPUT****
================================================================================

                       ****************************
                       * Single Point Calculation *
                       ****************************

---------------------------------
CARTESIAN COORDINATES (ANGSTROEM)
---------------------------------
  C      3.913853   -1.658291    3.015134
  N      5.039266   -0.901154    2.492821
  C      4.084215    1.742081   -2.114724
  C      4.265245    2.500518   -0.795890
  H      4.868534    3.392674   -0.981134
  H      3.307640    2.824571   -0.387809
  C      4.982240    1.650257    0.247422
  C      6.210384   -1.417261    2.178244
  N      6.535913   -2.677122    2.556078
  N      7.076754   -0.700820    1.478906
  H      7.954643   -1.121554    1.207554
  H      6.756161    0.106637    0.960278
  H      4.842168    0.017609    2.115191
  H      5.993876   -3.126918    3.282784
  H      7.498441   -2.975482    2.468776
  O      4.368065    1.389270    1.313706
  O      6.128919    1.233512   -0.045620
  C      3.139159   -2.376572    1.910609
  H      3.267235   -0.939401    3.520693
  H      4.247195   -2.355095    3.790065
  C      1.997274    0.430918   -1.399218
  C      3.412746    0.376886   -1.965497
  H      4.047407   -0.246590   -1.326706
  H      3.390774   -0.118719   -2.942839
  H      5.068475    1.598504   -2.565728
  H      3.503356    2.363939   -2.804565
  C      2.399946   -1.389579    1.009490
  H      2.440750   -3.087118    2.362976
  H      3.844475   -2.970462    1.318677
  C      2.070177   -1.936705   -0.372401
  H      1.481611   -1.061542    1.509912
  H      3.008628   -0.490001    0.897451
  C      1.322238   -0.935775   -1.256413
  H      1.472747   -2.850902   -0.283997
  H      3.003539   -2.234041   -0.862535
  H      1.376444    1.058920   -2.047420
  H      2.015341    0.929780   -0.426535
  H      0.316648   -0.787213   -0.848278
  H      1.185611   -1.379252   -2.248613

----------------------------
CARTESIAN COORDINATES (A.U.)
----------------------------
  NO LB      ZA    FRAG     MASS         X           Y           Z
   0 C     6.0000    0    12.011    7.396111   -3.133715    5.697778
   1 N     7.0000    0    14.007    9.522832   -1.702935    4.710749
   2 C     6.0000    0    12.011    7.718048    3.292056   -3.996250
   3 C     6.0000    0    12.011    8.060145    4.725294   -1.504014
   4 H     1.0000    0     1.008    9.200197    6.411225   -1.854074
   5 H     1.0000    0     1.008    6.250533    5.337665   -0.732852
   6 C     6.0000    0    12.011    9.415070    3.118533    0.467560
   7 C     6.0000    0    12.011   11.735926   -2.678236    4.116285
   8 N     7.0000    0    14.007   12.351086   -5.059027    4.830288
   9 N     7.0000    0    14.007   13.373127   -1.324358    2.794727
  10 H     1.0000    0     1.008   15.032097   -2.119429    2.281947
  11 H     1.0000    0     1.008   12.767294    0.201516    1.814662
  12 H     1.0000    0     1.008    9.150372    0.033277    3.997132
  13 H     1.0000    0     1.008   11.326784   -5.909018    6.203562
  14 H     1.0000    0     1.008   14.169999   -5.622847    4.665310
  15 O     8.0000    0    15.999    8.254446    2.625339    2.482544
  16 O     8.0000    0    15.999   11.581978    2.331000   -0.086210
  17 C     6.0000    0    12.011    5.932152   -4.491070    3.610528
  18 H     1.0000    0     1.008    6.174179   -1.775211    6.653145
  19 H     1.0000    0     1.008    8.026036   -4.450484    7.162184
  20 C     6.0000    0    12.011    3.774301    0.814318   -2.644139
  21 C     6.0000    0    12.011    6.449156    0.712212   -3.714252
  22 H     1.0000    0     1.008    7.648491   -0.465987   -2.507111
  23 H     1.0000    0     1.008    6.407634   -0.224346   -5.561161
  24 H     1.0000    0     1.008    9.578030    3.020734   -4.848524
  25 H     1.0000    0     1.008    6.620384    4.467196   -5.299860
  26 C     6.0000    0    12.011    4.535240   -2.625923    1.907659
  27 H     1.0000    0     1.008    4.612349   -5.833808    4.465377
  28 H     1.0000    0     1.008    7.265005   -5.613360    2.491938
  29 C     6.0000    0    12.011    3.912068   -3.659842   -0.703735
  30 H     1.0000    0     1.008    2.799840   -2.006023    2.853320
  31 H     1.0000    0     1.008    5.685483   -0.925968    1.695937
  32 C     6.0000    0    12.011    2.498667   -1.768358   -2.374277
  33 H     1.0000    0     1.008    2.783088   -5.387425   -0.536677
  34 H     1.0000    0     1.008    5.675866   -4.221725   -1.629955
  35 H     1.0000    0     1.008    2.601102    2.001069   -3.869064
  36 H     1.0000    0     1.008    3.808443    1.757029   -0.806034
  37 H     1.0000    0     1.008    0.598377   -1.487618   -1.603013
  38 H     1.0000    0     1.008    2.240481   -2.606408   -4.249264

--------------------------------
INTERNAL COORDINATES (ANGSTROEM)
--------------------------------
 C      0   0   0     0.000000000000     0.00000000     0.00000000
 N      1   0   0     1.453485443280     0.00000000     0.00000000
 C      2   1   0     5.397062831959   115.14348757     0.00000000
 C      3   2   1     1.532097611045    59.11314503   109.40719194
 H      4   3   2     1.092802021856   108.87189731   139.00405486
 H      4   3   2     1.090205655918   111.44258955   257.77719885
 C      4   3   2     1.524967567516   111.62104119    19.68257472
 C      2   1   3     1.317893766373   124.73852092   238.61776321
 N      8   2   1     1.354981786071   120.73396109   347.55295988
 N      8   2   1     1.323993306980   119.71283342   167.17472830
 H     10   8   2     1.010612779130   119.01054202   182.74777304
 H     10   8   2     1.011801586507   119.68596873   341.90401853
 H      2   1   3     1.012708267950   117.12238202    41.50352268
 H      9   8   2     1.012038255530   118.99951205   343.55991010
 H      9   8   2     1.011484164655   118.60809282   192.38988925
 O      7   4   3     1.257889696357   117.77873315   241.09573441
 O      7   4   3     1.254759572899   117.06973879    59.09677419
 C      1   2   3     1.528415415419   112.18313395    40.55299548
 H      1   2   3     1.091103498013   106.38904530   280.07132220
 H      1   2   3     1.094153031138   110.50914891   165.69684107
 C      3   2   1     2.566402161358    69.85918924   358.63373552
 C     21   3   2     1.525500843689    32.86803597   287.57417264
 H     22  21   3     1.095249262273   109.95802161   121.81463450
 H     22  21   3     1.096040506729   109.17304515   237.61374675
 H      3   2   1     1.092147522563    97.39336254   216.34966963
 H      3   2   1     1.095437941699   155.43261953    43.06177566
 C     18   1   2     1.527288090659   111.59234233   291.30595630
 H     18   1   2     1.094206250286   109.26450960   168.46195288
 H     18   1   2     1.095700648837   108.59364813    52.80241857
 C     27  18   1     1.522404354645   114.08859980   157.53677373
 H     27  18   1     1.096069675730   109.24160675   280.97905834
 H     27  18   1     1.091918658179   108.85287375    35.71174097
 C     30  27  18     1.530605579965   113.27107541   179.64303584
 H     30  27  18     1.095670751936   110.16542924    57.24922825
 H     30  27  18     1.095355598276   108.61125824   301.65869014
 H     21   3   2     1.095437356092    90.17181458   160.91850925
 H     21   3   2     1.093298677198    90.08509930    55.00215557
 H     33  30  27     1.095379590960   108.78969663   291.25991339
 H     33  30  27     1.095353635048   108.62394524   176.14504675

---------------------------
INTERNAL COORDINATES (A.U.)
---------------------------
 C      0   0   0     0.000000000000     0.00000000     0.00000000
 N      1   0   0     2.746689427440     0.00000000     0.00000000
 C      2   1   0    10.198970679968   115.14348757     0.00000000
 C      3   2   1     2.895244895311    59.11314503   109.40719194
 H      4   3   2     2.065096539903   108.87189731   139.00405486
 H      4   3   2     2.060190119337   111.44258955   257.77719885
 C      4   3   2     2.881771065717   111.62104119    19.68257472
 C      2   1   3     2.490458292047   124.73852092   238.61776321
 N      8   2   1     2.560544492126   120.73396109   347.55295988
 N      8   2   1     2.501984753337   119.71283342   167.17472830
 H     10   8   2     1.909781379998   119.01054202   182.74777304
 H     10   8   2     1.912027900366   119.68596873   341.90401853
 H      2   1   3     1.913741279984   117.12238202    41.50352268
 H      9   8   2     1.912475140003   118.99951205   343.55991010
 H      9   8   2     1.911428059996   118.60809282   192.38988925
 O      7   4   3     2.377067032797   117.77873315   241.09573441
 O      7   4   3     2.371151956695   117.06973879    59.09677419
 C      1   2   3     2.888286554006   112.18313395    40.55299548
 H      1   2   3     2.061886795008   106.38904530   280.07132220
 H      1   2   3     2.067649577451   110.50914891   165.69684107
 C      3   2   1     4.849797234470    69.85918924   358.63373552
 C     21   3   2     2.882778811638    32.86803597   287.57417264
 H     22  21   3     2.069721154075   109.95802161   121.81463450
 H     22  21   3     2.071216389401   109.17304515   237.61374675
 H      3   2   1     2.063859715485    97.39336254   216.34966963
 H      3   2   1     2.070077706517   155.43261953    43.06177566
 C     18   1   2     2.886156218945   111.59234233   291.30595630
 H     18   1   2     2.067750147065   109.26450960   168.46195288
 H     18   1   2     2.070574151061   108.59364813    52.80241857
 C     27  18   1     2.876927295368   114.08859980   157.53677373
 H     27  18   1     2.071271510826   109.24160675   280.97905834
 H     27  18   1     2.063427224477   108.85287375    35.71174097
 C     30  27  18     2.892425365185   113.27107541   179.64303584
 H     30  27  18     2.070517654106   110.16542924    57.24922825
 H     30  27  18     2.069922099999   108.61125824   301.65869014
 H     21   3   2     2.070076599880    90.17181458   160.91850925
 H     21   3   2     2.066035082482    90.08509930    55.00215557
 H     33  30  27     2.069967439602   108.78969663   291.25991339
 H     33  30  27     2.069918390037   108.62394524   176.14504675

---------------------
BASIS SET INFORMATION
---------------------
There are 4 groups of distinct atoms

 Group   1 Type C   : 8s4p2d contracted to 4s2p2d pattern {5111/31/11}
 Group   2 Type N   : 8s4p2d contracted to 4s2p2d pattern {5111/31/11}
 Group   3 Type H   : 4s2p contracted to 2s2p pattern {31/11}
 Group   4 Type O   : 8s5p2d contracted to 4s3p2d pattern {5111/311/11}

Atom   0C    basis set group =>   1
Atom   1N    basis set group =>   2
Atom   2C    basis set group =>   1
Atom   3C    basis set group =>   1
Atom   4H    basis set group =>   3
Atom   5H    basis set group =>   3
Atom   6C    basis set group =>   1
Atom   7C    basis set group =>   1
Atom   8N    basis set group =>   2
Atom   9N    basis set group =>   2
Atom  10H    basis set group =>   3
Atom  11H    basis set group =>   3
Atom  12H    basis set group =>   3
Atom  13H    basis set group =>   3
Atom  14H    basis set group =>   3
Atom  15O    basis set group =>   4
Atom  16O    basis set group =>   4
Atom  17C    basis set group =>   1
Atom  18H    basis set group =>   3
Atom  19H    basis set group =>   3
Atom  20C    basis set group =>   1
Atom  21C    basis set group =>   1
Atom  22H    basis set group =>   3
Atom  23H    basis set group =>   3
Atom  24H    basis set group =>   3
Atom  25H    basis set group =>   3
Atom  26C    basis set group =>   1
Atom  27H    basis set group =>   3
Atom  28H    basis set group =>   3
Atom  29C    basis set group =>   1
Atom  30H    basis set group =>   3
Atom  31H    basis set group =>   3
Atom  32C    basis set group =>   1
Atom  33H    basis set group =>   3
Atom  34H    basis set group =>   3
Atom  35H    basis set group =>   3
Atom  36H    basis set group =>   3
Atom  37H    basis set group =>   3
Atom  38H    basis set group =>   3
---------------------------------
AUXILIARY/J BASIS SET INFORMATION
---------------------------------
There are 4 groups of distinct atoms

 Group   1 Type C   : 12s5p4d2f1g contracted to 6s4p3d1f1g pattern {711111/2111/211/2/1}
 Group   2 Type N   : 12s5p4d2f1g contracted to 6s4p3d1f1g pattern {711111/2111/211/2/1}
 Group   3 Type H   : 5s2p1d contracted to 3s1p1d pattern {311/2/1}
 Group   4 Type O   : 12s5p4d2f1g contracted to 6s4p3d1f1g pattern {711111/2111/211/2/1}

Atom   0C    basis set group =>   1
Atom   1N    basis set group =>   2
Atom   2C    basis set group =>   1
Atom   3C    basis set group =>   1
Atom   4H    basis set group =>   3
Atom   5H    basis set group =>   3
Atom   6C    basis set group =>   1
Atom   7C    basis set group =>   1
Atom   8N    basis set group =>   2
Atom   9N    basis set group =>   2
Atom  10H    basis set group =>   3
Atom  11H    basis set group =>   3
Atom  12H    basis set group =>   3
Atom  13H    basis set group =>   3
Atom  14H    basis set group =>   3
Atom  15O    basis set group =>   4
Atom  16O    basis set group =>   4
Atom  17C    basis set group =>   1
Atom  18H    basis set group =>   3
Atom  19H    basis set group =>   3
Atom  20C    basis set group =>   1
Atom  21C    basis set group =>   1
Atom  22H    basis set group =>   3
Atom  23H    basis set group =>   3
Atom  24H    basis set group =>   3
Atom  25H    basis set group =>   3
Atom  26C    basis set group =>   1
Atom  27H    basis set group =>   3
Atom  28H    basis set group =>   3
Atom  29C    basis set group =>   1
Atom  30H    basis set group =>   3
Atom  31H    basis set group =>   3
Atom  32C    basis set group =>   1
Atom  33H    basis set group =>   3
Atom  34H    basis set group =>   3
Atom  35H    basis set group =>   3
Atom  36H    basis set group =>   3
Atom  37H    basis set group =>   3
Atom  38H    basis set group =>   3


           ************************************************************
           *        Program running with 4 parallel MPI-processes     *
           *              working on a common directory               *
           ************************************************************
------------------------------------------------------------------------------
                           ORCA GTO INTEGRAL CALCULATION
                           -- RI-GTO INTEGRALS CHOSEN --
------------------------------------------------------------------------------
------------------------------------------------------------------------------
                   ___                                                        
                  /   \      - P O W E R E D   B Y -                         
                 /     \                                                     
                 |  |  |   _    _      __       _____    __    __             
                 |  |  |  | |  | |    /  \     |  _  \  |  |  /  |          
                  \  \/   | |  | |   /    \    | | | |  |  | /  /          
                 / \  \   | |__| |  /  /\  \   | |_| |  |  |/  /          
                |  |  |   |  __  | /  /__\  \  |    /   |      \           
                |  |  |   | |  | | |   __   |  |    \   |  |\   \          
                \     /   | |  | | |  |  |  |  | |\  \  |  | \   \       
                 \___/    |_|  |_| |__|  |__|  |_| \__\ |__|  \__/        
                                                                              
                      - O R C A' S   B I G   F R I E N D -                    
                                      &                                       
                       - I N T E G R A L  F E E D E R -                       
                                                                              
 v1 FN, 2020, v2 2021                                                         
------------------------------------------------------------------------------


Reading SHARK input file 28Oct_SVPD_CAMB3LYP_B_wt_wb97.SHARKINP.tmp ... ok
----------------------
SHARK INTEGRAL PACKAGE
----------------------

Number of atoms                             ...     39
Number of basis functions                   ...    510
Number of shells                            ...    222
Maximum angular momentum                    ...      2
Integral batch strategy                     ... SHARK/LIBINT Hybrid
RI-J (if used) integral strategy            ... SPLIT-RIJ (Revised 2003 algorithm where possible)
Printlevel                                  ...      1
Contraction scheme used                     ... SEGMENTED contraction
Coulomb Range Separation                    ... NOT USED
Exchange Range Separation                   ... Long Range
   Mu parameter                             ...  0.330000
   Scaling (regular/separated)              ...  0.190000  0.460000
Finite Nucleus Model                        ... NOT USED
Auxiliary Coulomb fitting basis             ... AVAILABLE
   # of basis functions in Aux-J            ...   1037
   # of shells in Aux-J                     ...    355
   Maximum angular momentum in Aux-J        ...      4
Auxiliary J/K fitting basis                 ... NOT available
Auxiliary Correlation fitting basis         ... NOT available
Auxiliary 'external' fitting basis          ... NOT available
Integral threshold                          ...     2.500000e-11
Primitive cut-off                           ...     2.500000e-12
Primitive pair pre-selection threshold      ...     2.500000e-12

Calculating pre-screening integrals         ... done (  0.1 sec) Dimension = 222
Organizing shell pair data                  ... done (  0.2 sec)
Shell pair information
Total number of shell pairs                 ...     24753
Shell pairs after pre-screening             ...     22451
Total number of primitive shell pairs       ...     66707
Primitive shell pairs kept                  ...     45583
          la=0 lb=0:   5516 shell pairs
          la=1 lb=0:   7978 shell pairs
          la=1 lb=1:   2936 shell pairs
          la=2 lb=0:   3197 shell pairs
          la=2 lb=1:   2339 shell pairs
          la=2 lb=2:    485 shell pairs

Calculating one electron integrals          ... done (  0.1 sec)
Calculating RI/J V-Matrix + Cholesky decomp.... done (  0.1 sec)
Calculating Nuclear repulsion               ... done (  0.0 sec) ENN=   1239.787925846301 Eh

SHARK setup successfully completed in   0.6 seconds

Maximum memory used throughout the entire GTOINT-calculation: 33.1 MB


           ************************************************************
           *        Program running with 4 parallel MPI-processes     *
           *              working on a common directory               *
           ************************************************************
-------------------------------------------------------------------------------
                                 ORCA SCF
-------------------------------------------------------------------------------

------------
SCF SETTINGS
------------
Hamiltonian:
 Density Functional     Method          .... DFT(GTOs)
 Exchange Functional    Exchange        .... WB88
 Correlation Functional Correlation     .... LYP
 LDA part of GGA corr.  LDAOpt          .... VWN-5
 Gradients option       PostSCFGGA      .... off
 Hybrid DFT is turned on
   Fraction HF Exchange ScalHFX         ....  0.190000
   Scaling of DF-GGA-X  ScalDFX         ....  0.350000
   Scaling of DF-GGA-C  ScalDFC         ....  0.810000
   Scaling of DF-LDA-C  ScalLDAC        ....  1.000000
   Perturbative correction              ....  0.000000
   Density functional embedding theory  .... OFF
 Long-range corrected/Screened/Range-Separated Hybrid DFT is turned on
   Amount of maximum screened exact exchange              ....  0.460000
   Range separation parameter mu (erf(mu*r12)/r12)        ....  0.330000
 RI-approximation to the Coulomb term is turned on
   Number of AuxJ basis functions       .... 1037
   RIJ-COSX (HFX calculated with COS-X)).... on


General Settings:
 Integral files         IntName         .... 28Oct_SVPD_CAMB3LYP_B_wt_wb97
 Hartree-Fock type      HFTyp           .... RHF
 Total Charge           Charge          ....    0
 Multiplicity           Mult            ....    1
 Number of Electrons    NEL             ....  126
 Basis Dimension        Dim             ....  510
 Nuclear Repulsion      ENuc            ....   1239.7879258463 Eh

Convergence Acceleration:
 DIIS                   CNVDIIS         .... on
   Start iteration      DIISMaxIt       ....    12
   Startup error        DIISStart       ....  0.200000
   # of expansion vecs  DIISMaxEq       ....     5
   Bias factor          DIISBfac        ....   1.050
   Max. coefficient     DIISMaxC        ....  10.000
 Trust-Rad. Augm. Hess. CNVTRAH         .... auto
   Auto Start mean grad. ratio tolernc. ....  1.125000
   Auto Start start iteration           ....    20
   Auto Start num. interpolation iter.  ....    10
   Max. Number of Micro iterations      ....    16
   Max. Number of Macro iterations      .... Maxiter - #DIIS iter
   Number of Davidson start vectors     ....     2
   Converg. threshold I  (grad. norm)   ....   1.000e-05
   Converg. threshold II (energy diff.) ....   1.000e-08
   Grad. Scal. Fac. for Micro threshold ....   0.100
   Minimum threshold for Micro iter.    ....   0.010
   NR start threshold (gradient norm)   ....   0.001
   Initial trust radius                 ....   0.400
   Minimum AH scaling param. (alpha)    ....   1.000
   Maximum AH scaling param. (alpha)    .... 1000.000
   Orbital update algorithm             .... Taylor
   White noise on init. David. guess    .... on
   Maximum white noise                  ....   0.010
   Quad. conv. algorithm                .... NR
 SOSCF                  CNVSOSCF        .... on
   Start iteration      SOSCFMaxIt      ....   150
   Startup grad/error   SOSCFStart      ....  0.003300
 Level Shifting         CNVShift        .... on
   Level shift para.    LevelShift      ....    0.2500
   Turn off err/grad.   ShiftErr        ....    0.0010
 Zerner damping         CNVZerner       .... off
 Static damping         CNVDamp         .... on
   Fraction old density DampFac         ....    0.7000
   Max. Damping (<1)    DampMax         ....    0.9800
   Min. Damping (>=0)   DampMin         ....    0.0000
   Turn off err/grad.   DampErr         ....    0.1000
 Fernandez-Rico         CNVRico         .... off

SCF Procedure:
 Maximum # iterations   MaxIter         ....   150
 SCF integral mode      SCFMode         .... Direct
   Integral package                     .... SHARK and LIBINT hybrid scheme
 Reset frequency        DirectResetFreq ....    20
 Integral Threshold     Thresh          ....  2.500e-11 Eh
 Primitive CutOff       TCut            ....  2.500e-12 Eh

Convergence Tolerance:
 Convergence Check Mode ConvCheckMode   .... Total+1el-Energy
 Convergence forced     ConvForced      .... 0
 Energy Change          TolE            ....  1.000e-08 Eh
 1-El. energy change                    ....  1.000e-05 Eh
 Orbital Gradient       TolG            ....  1.000e-05
 Orbital Rotation angle TolX            ....  1.000e-05
 DIIS Error             TolErr          ....  5.000e-07


Diagonalization of the overlap matrix:
Smallest eigenvalue                        ... 2.394e-05
Time for diagonalization                   ...    0.067 sec
Threshold for overlap eigenvalues          ... 1.000e-08
Number of eigenvalues below threshold      ... 0
Time for construction of square roots      ...    0.081 sec
Total time needed                          ...    0.151 sec

Time for model grid setup =    0.491 sec

------------------------------
INITIAL GUESS: MODEL POTENTIAL
------------------------------
Loading Hartree-Fock densities                     ... done
Calculating cut-offs                               ... done
Initializing the effective Hamiltonian             ... done
Setting up the integral package (SHARK)            ... done
Starting the Coulomb interaction                   ... done (   0.6 sec)
Reading the grid                                   ... done
Mapping shells                                     ... done
Starting the XC term evaluation                    ... done (   0.7 sec)
  promolecular density results
     # of electrons  =    125.995416494
     EX              =    -99.107181057
     EC              =     -4.217065123
     EX+EC           =   -103.324246180
Transforming the Hamiltonian                       ... done (   0.0 sec)
Diagonalizing the Hamiltonian                      ... done (   0.1 sec)
Back transforming the eigenvectors                 ... done (   0.0 sec)
Now organizing SCF variables                       ... done
                      ------------------
                      INITIAL GUESS DONE (   1.9 sec)
                      ------------------
-------------------
DFT GRID GENERATION
-------------------

General Integration Accuracy     IntAcc      ... 4.388
Radial Grid Type                 RadialGrid  ... OptM3 with GC (2021)
Angular Grid (max. ang.)         AngularGrid ... 4 (Lebedev-302)
Angular grid pruning method      GridPruning ... 4 (adaptive)
Weight generation scheme         WeightScheme... Becke
Basis function cutoff            BFCut       ... 1.0000e-11
Integration weight cutoff        WCut        ... 1.0000e-14
Angular grids for H and He will be reduced by one unit
Partially contracted basis set               ... off
Rotationally invariant grid construction     ... off

Total number of grid points                  ...   172332
Total number of batches                      ...     2710
Average number of points per batch           ...       63
Average number of grid points per atom       ...     4419
Time for grid setup =    1.758 sec

--------------------
COSX GRID GENERATION
--------------------

GRIDX 1
-------
General Integration Accuracy     IntAcc      ... 3.816
Radial Grid Type                 RadialGrid  ... OptM3 with GC (2021)
Angular Grid (max. ang.)         AngularGrid ... 1 (Lebedev-50)
Angular grid pruning method      GridPruning ... 4 (adaptive)
Weight generation scheme         WeightScheme... Becke
Basis function cutoff            BFCut       ... 1.0000e-11
Integration weight cutoff        WCut        ... 1.0000e-14
Angular grids for H and He will be reduced by one unit
Partially contracted basis set               ... on
Rotationally invariant grid construction     ... off

Total number of grid points                  ...    21483
Total number of batches                      ...      363
Average number of points per batch           ...       59
Average number of grid points per atom       ...      551
UseSFitting                                  ... on

GRIDX 2
-------
General Integration Accuracy     IntAcc      ... 4.020
Radial Grid Type                 RadialGrid  ... OptM3 with GC (2021)
Angular Grid (max. ang.)         AngularGrid ... 2 (Lebedev-110)
Angular grid pruning method      GridPruning ... 4 (adaptive)
Weight generation scheme         WeightScheme... Becke
Basis function cutoff            BFCut       ... 1.0000e-11
Integration weight cutoff        WCut        ... 1.0000e-14
Angular grids for H and He will be reduced by one unit
Partially contracted basis set               ... on
Rotationally invariant grid construction     ... off

Total number of grid points                  ...    46773
Total number of batches                      ...      753
Average number of points per batch           ...       62
Average number of grid points per atom       ...     1199
UseSFitting                                  ... on

GRIDX 3
-------
General Integration Accuracy     IntAcc      ... 4.338
Radial Grid Type                 RadialGrid  ... OptM3 with GC (2021)
Angular Grid (max. ang.)         AngularGrid ... 3 (Lebedev-194)
Angular grid pruning method      GridPruning ... 4 (adaptive)
Weight generation scheme         WeightScheme... Becke
Basis function cutoff            BFCut       ... 1.0000e-11
Integration weight cutoff        WCut        ... 1.0000e-14
Angular grids for H and He will be reduced by one unit
Partially contracted basis set               ... on
Rotationally invariant grid construction     ... off

Total number of grid points                  ...   104925
Total number of batches                      ...     1659
Average number of points per batch           ...       63
Average number of grid points per atom       ...     2690
UseSFitting                                  ... on

Time for X-Grid setup             =    2.434 sec

--------------
SCF ITERATIONS
--------------
ITER       Energy         Delta-E        Max-DP      RMS-DP      [F,P]     Damp
               ***  Starting incremental Fock matrix formation  ***
  0   -746.4144415107   0.000000000000 0.39213491  0.00218861  0.2360236 0.7000
  1   -746.6367621333  -0.222320622576 0.22055355  0.00145836  0.1111821 0.7000
                               ***Turning on DIIS***
  2   -746.7375954054  -0.100833272135 0.31110715  0.00280297  0.0433106 0.0000
  3   -746.8924549481  -0.154859542636 0.20056419  0.00113828  0.0600578 0.0000
  4   -746.9242629635  -0.031808015448 0.01671423  0.00025306  0.0069983 0.0000
  5   -746.9249149520  -0.000651988437 0.00679400  0.00009060  0.0058647 0.0000
                      *** Initiating the SOSCF procedure ***
                           *** Shutting down DIIS ***
                      *** Re-Reading the Fockian *** 
                      *** Removing any level shift *** 
ITER      Energy       Delta-E        Grad      Rot      Max-DP    RMS-DP
  6   -746.92503766  -0.0001227036  0.000239  0.000239  0.004786  0.000055
               *** Restarting incremental Fock matrix formation ***
  7   -746.92507308  -0.0000354202  0.000071  0.000170  0.004917  0.000109
  8   -746.92507362  -0.0000005395  0.000092  0.000081  0.001045  0.000016
  9   -746.92507466  -0.0000010456  0.000017  0.000024  0.000463  0.000010
 10   -746.92507467  -0.0000000059  0.000014  0.000015  0.000190  0.000002
 11   -746.92507470  -0.0000000324  0.000004  0.000009  0.000238  0.000002
 12   -746.92507471  -0.0000000077  0.000005  0.000005  0.000107  0.000001
                  ***Gradient check signals convergence***
              ***Rediagonalizing the Fockian in SOSCF/NRSCF***

               *****************************************************
               *                     SUCCESS                       *
               *           SCF CONVERGED AFTER  13 CYCLES          *
               *****************************************************

Old exchange energy                            =    -29.133426521 Eh
New exchange energy                            =    -29.133379614 Eh
Exchange energy change after final integration =      0.000046907 Eh
Total energy after final integration           =   -746.925027800 Eh
Final COS-X integration done in                =    73.365 sec

----------------
TOTAL SCF ENERGY
----------------

Total Energy       :         -746.92502780 Eh          -20324.86330 eV

Components:
Nuclear Repulsion  :         1239.78792585 Eh           33736.34458 eV
Electronic Energy  :        -1986.71295365 Eh          -54061.20789 eV
One Electron Energy:        -3477.37396352 Eh          -94624.15615 eV
Two Electron Energy:         1490.66100987 Eh           40562.94826 eV
Max COSX asymmetry :            0.00001408 Eh               0.00038 eV

Virial components:
Potential Energy   :        -1485.88888762 Eh          -40433.09221 eV
Kinetic Energy     :          738.96385982 Eh           20108.22891 eV
Virial Ratio       :            2.01077342


DFT components:
N(Alpha)           :       63.000044114186 electrons
N(Beta)            :       63.000044114186 electrons
N(Total)           :      126.000088228373 electrons
E(XC)              :      -76.780810007895 Eh       
DFET-embed. en.    :        0.000000000000 Eh       

---------------
SCF CONVERGENCE
---------------

  Last Energy change         ...   -8.4265e-10  Tolerance :   1.0000e-08
  Last MAX-Density change    ...    3.5527e-15  Tolerance :   1.0000e-07
  Last RMS-Density change    ...    3.3868e-17  Tolerance :   5.0000e-09
  Last Orbital Gradient      ...    7.3176e-07  Tolerance :   1.0000e-05
  Last Orbital Rotation      ...    8.8645e-07  Tolerance :   1.0000e-05

             **** THE GBW FILE WAS UPDATED (28Oct_SVPD_CAMB3LYP_B_wt_wb97.gbw) ****
             **** DENSITY 28Oct_SVPD_CAMB3LYP_B_wt_wb97.scfp WAS UPDATED ****
             **** ENERGY FILE WAS UPDATED (28Oct_SVPD_CAMB3LYP_B_wt_wb97.en.tmp) ****
             **** THE GBW FILE WAS UPDATED (28Oct_SVPD_CAMB3LYP_B_wt_wb97.gbw) ****
             **** DENSITY 28Oct_SVPD_CAMB3LYP_B_wt_wb97.scfp WAS UPDATED ****
----------------
ORBITAL ENERGIES
----------------

  NO   OCC          E(Eh)            E(eV) 
   0   2.0000     -19.136690      -520.7358 
   1   2.0000     -19.135480      -520.7029 
   2   2.0000     -14.473434      -393.8422 
   3   2.0000     -14.436684      -392.8421 
   4   2.0000     -14.431856      -392.7108 
   5   2.0000     -10.423631      -283.6414 
   6   2.0000     -10.324689      -280.9491 
   7   2.0000     -10.316503      -280.7263 
   8   2.0000     -10.265824      -279.3473 
   9   2.0000     -10.243540      -278.7409 
  10   2.0000     -10.242888      -278.7232 
  11   2.0000     -10.239289      -278.6252 
  12   2.0000     -10.230381      -278.3828 
  13   2.0000     -10.229035      -278.3462 
  14   2.0000     -10.228250      -278.3248 
  15   2.0000     -10.219656      -278.0910 
  16   2.0000      -1.120358       -30.4865 
  17   2.0000      -1.083654       -29.4877 
  18   2.0000      -1.010757       -27.5041 
  19   2.0000      -0.995753       -27.0958 
  20   2.0000      -0.984045       -26.7772 
  21   2.0000      -0.889557       -24.2061 
  22   2.0000      -0.864639       -23.5280 
  23   2.0000      -0.835247       -22.7282 
  24   2.0000      -0.794355       -21.6155 
  25   2.0000      -0.755296       -20.5526 
  26   2.0000      -0.737630       -20.0719 
  27   2.0000      -0.706956       -19.2373 
  28   2.0000      -0.691794       -18.8247 
  29   2.0000      -0.677593       -18.4383 
  30   2.0000      -0.648867       -17.6566 
  31   2.0000      -0.642782       -17.4910 
  32   2.0000      -0.610828       -16.6215 
  33   2.0000      -0.597234       -16.2516 
  34   2.0000      -0.591725       -16.1017 
  35   2.0000      -0.571536       -15.5523 
  36   2.0000      -0.543112       -14.7788 
  37   2.0000      -0.537519       -14.6266 
  38   2.0000      -0.531329       -14.4582 
  39   2.0000      -0.525927       -14.3112 
  40   2.0000      -0.511851       -13.9282 
  41   2.0000      -0.493667       -13.4334 
  42   2.0000      -0.491955       -13.3868 
  43   2.0000      -0.486621       -13.2416 
  44   2.0000      -0.477255       -12.9868 
  45   2.0000      -0.470091       -12.7918 
  46   2.0000      -0.453687       -12.3455 
  47   2.0000      -0.440546       -11.9879 
  48   2.0000      -0.434043       -11.8109 
  49   2.0000      -0.422412       -11.4944 
  50   2.0000      -0.415048       -11.2940 
  51   2.0000      -0.407207       -11.0807 
  52   2.0000      -0.393201       -10.6996 
  53   2.0000      -0.385020       -10.4769 
  54   2.0000      -0.380528       -10.3547 
  55   2.0000      -0.374784       -10.1984 
  56   2.0000      -0.363861        -9.9012 
  57   2.0000      -0.359215        -9.7747 
  58   2.0000      -0.352136        -9.5821 
  59   2.0000      -0.340268        -9.2592 
  60   2.0000      -0.300092        -8.1659 
  61   2.0000      -0.290512        -7.9052 
  62   2.0000      -0.286544        -7.7973 
  63   0.0000       0.016594         0.4516 
  64   0.0000       0.039705         1.0804 
  65   0.0000       0.047213         1.2847 
  66   0.0000       0.063411         1.7255 
  67   0.0000       0.070263         1.9119 
  68   0.0000       0.076047         2.0694 
  69   0.0000       0.079476         2.1626 
  70   0.0000       0.087728         2.3872 
  71   0.0000       0.095393         2.5958 
  72   0.0000       0.100149         2.7252 
  73   0.0000       0.108363         2.9487 
  74   0.0000       0.111479         3.0335 
  75   0.0000       0.113187         3.0800 
  76   0.0000       0.123220         3.3530 
  77   0.0000       0.128316         3.4917 
  78   0.0000       0.131138         3.5685 
  79   0.0000       0.135892         3.6978 
  80   0.0000       0.141441         3.8488 
  81   0.0000       0.148514         4.0413 
  82   0.0000       0.153834         4.1860 
  83   0.0000       0.157415         4.2835 
  84   0.0000       0.166769         4.5380 
  85   0.0000       0.169339         4.6080 
  86   0.0000       0.170438         4.6378 
  87   0.0000       0.175497         4.7755 
  88   0.0000       0.180887         4.9222 
  89   0.0000       0.184745         5.0272 
  90   0.0000       0.188778         5.1369 
  91   0.0000       0.196584         5.3493 
  92   0.0000       0.204217         5.5570 
  93   0.0000       0.205082         5.5806 
  94   0.0000       0.208312         5.6685 
  95   0.0000       0.212610         5.7854 
  96   0.0000       0.217080         5.9071 
  97   0.0000       0.229075         6.2334 
  98   0.0000       0.233949         6.3661 
  99   0.0000       0.237621         6.4660 
 100   0.0000       0.241346         6.5674 
 101   0.0000       0.242866         6.6087 
 102   0.0000       0.245691         6.6856 
 103   0.0000       0.251115         6.8332 
 104   0.0000       0.255032         6.9398 
 105   0.0000       0.259923         7.0729 
 106   0.0000       0.265855         7.2343 
 107   0.0000       0.271577         7.3900 
 108   0.0000       0.276796         7.5320 
 109   0.0000       0.280950         7.6450 
 110   0.0000       0.286074         7.7845 
 111   0.0000       0.290138         7.8951 
 112   0.0000       0.296989         8.0815 
 113   0.0000       0.297807         8.1037 
 114   0.0000       0.301426         8.2022 
 115   0.0000       0.304479         8.2853 
 116   0.0000       0.307588         8.3699 
 117   0.0000       0.311137         8.4665 
 118   0.0000       0.317453         8.6383 
 119   0.0000       0.320367         8.7176 
 120   0.0000       0.327466         8.9108 
 121   0.0000       0.332669         9.0524 
 122   0.0000       0.333387         9.0719 
 123   0.0000       0.338139         9.2012 
 124   0.0000       0.342598         9.3226 
 125   0.0000       0.348512         9.4835 
 126   0.0000       0.351955         9.5772 
 127   0.0000       0.354969         9.6592 
 128   0.0000       0.356253         9.6941 
 129   0.0000       0.362536         9.8651 
 130   0.0000       0.365698         9.9511 
 131   0.0000       0.367467         9.9993 
 132   0.0000       0.369140        10.0448 
 133   0.0000       0.371985        10.1222 
 134   0.0000       0.374766        10.1979 
 135   0.0000       0.379239        10.3196 
 136   0.0000       0.380411        10.3515 
 137   0.0000       0.381549        10.3825 
 138   0.0000       0.388636        10.5753 
 139   0.0000       0.390803        10.6343 
 140   0.0000       0.396925        10.8009 
 141   0.0000       0.398722        10.8498 
 142   0.0000       0.401963        10.9380 
 143   0.0000       0.404233        10.9997 
 144   0.0000       0.405560        11.0359 
 145   0.0000       0.414650        11.2832 
 146   0.0000       0.416914        11.3448 
 147   0.0000       0.419458        11.4140 
 148   0.0000       0.421969        11.4824 
 149   0.0000       0.425225        11.5710 
 150   0.0000       0.426877        11.6159 
 151   0.0000       0.431374        11.7383 
 152   0.0000       0.435249        11.8437 
 153   0.0000       0.439075        11.9478 
 154   0.0000       0.440307        11.9814 
 155   0.0000       0.445295        12.1171 
 156   0.0000       0.449587        12.2339 
 157   0.0000       0.451258        12.2794 
 158   0.0000       0.455790        12.4027 
 159   0.0000       0.460494        12.5307 
 160   0.0000       0.463504        12.6126 
 161   0.0000       0.472058        12.8454 
 162   0.0000       0.475180        12.9303 
 163   0.0000       0.477133        12.9834 
 164   0.0000       0.479384        13.0447 
 165   0.0000       0.482004        13.1160 
 166   0.0000       0.487439        13.2639 
 167   0.0000       0.496528        13.5112 
 168   0.0000       0.498389        13.5618 
 169   0.0000       0.503695        13.7062 
 170   0.0000       0.503806        13.7092 
 171   0.0000       0.509582        13.8664 
 172   0.0000       0.514592        14.0028 
 173   0.0000       0.517339        14.0775 
 174   0.0000       0.521930        14.2024 
 175   0.0000       0.524093        14.2613 
 176   0.0000       0.529045        14.3960 
 177   0.0000       0.531607        14.4658 
 178   0.0000       0.533841        14.5266 
 179   0.0000       0.537281        14.6202 
 180   0.0000       0.541735        14.7414 
 181   0.0000       0.543417        14.7871 
 182   0.0000       0.546964        14.8836 
 183   0.0000       0.549478        14.9520 
 184   0.0000       0.556880        15.1535 
 185   0.0000       0.559464        15.2238 
 186   0.0000       0.563485        15.3332 
 187   0.0000       0.567910        15.4536 
 188   0.0000       0.570617        15.5273 
 189   0.0000       0.572646        15.5825 
 190   0.0000       0.575192        15.6518 
 191   0.0000       0.581904        15.8344 
 192   0.0000       0.588028        16.0011 
 193   0.0000       0.593469        16.1491 
 194   0.0000       0.595071        16.1927 
 195   0.0000       0.600798        16.3485 
 196   0.0000       0.604238        16.4421 
 197   0.0000       0.607706        16.5365 
 198   0.0000       0.610684        16.6176 
 199   0.0000       0.616682        16.7808 
 200   0.0000       0.620120        16.8743 
 201   0.0000       0.621976        16.9248 
 202   0.0000       0.624136        16.9836 
 203   0.0000       0.628349        17.0982 
 204   0.0000       0.632991        17.2246 
 205   0.0000       0.635472        17.2921 
 206   0.0000       0.639423        17.3996 
 207   0.0000       0.645117        17.5545 
 208   0.0000       0.649622        17.6771 
 209   0.0000       0.653327        17.7779 
 210   0.0000       0.655113        17.8265 
 211   0.0000       0.664975        18.0949 
 212   0.0000       0.669587        18.2204 
 213   0.0000       0.672140        18.2899 
 214   0.0000       0.673162        18.3177 
 215   0.0000       0.675044        18.3689 
 216   0.0000       0.679475        18.4895 
 217   0.0000       0.681141        18.5348 
 218   0.0000       0.691701        18.8222 
 219   0.0000       0.696160        18.9435 
 220   0.0000       0.700680        19.0665 
 221   0.0000       0.701101        19.0779 
 222   0.0000       0.709012        19.2932 
 223   0.0000       0.713928        19.4270 
 224   0.0000       0.715688        19.4749 
 225   0.0000       0.723080        19.6760 
 226   0.0000       0.728424        19.8214 
 227   0.0000       0.730194        19.8696 
 228   0.0000       0.740466        20.1491 
 229   0.0000       0.744193        20.2505 
 230   0.0000       0.748777        20.3753 
 231   0.0000       0.750579        20.4243 
 232   0.0000       0.754446        20.5295 
 233   0.0000       0.757443        20.6111 
 234   0.0000       0.767386        20.8816 
 235   0.0000       0.769761        20.9462 
 236   0.0000       0.776109        21.1190 
 237   0.0000       0.776930        21.1413 
 238   0.0000       0.781345        21.2615 
 239   0.0000       0.792379        21.5617 
 240   0.0000       0.795655        21.6509 
 241   0.0000       0.800544        21.7839 
 242   0.0000       0.806763        21.9531 
 243   0.0000       0.808880        22.0107 
 244   0.0000       0.810808        22.0632 
 245   0.0000       0.820395        22.3241 
 246   0.0000       0.826636        22.4939 
 247   0.0000       0.831781        22.6339 
 248   0.0000       0.839378        22.8406 
 249   0.0000       0.845646        23.0112 
 250   0.0000       0.848934        23.1007 
 251   0.0000       0.858496        23.3609 
 252   0.0000       0.861221        23.4350 
 253   0.0000       0.866692        23.5839 
 254   0.0000       0.869424        23.6582 
 255   0.0000       0.876551        23.8522 
 256   0.0000       0.885751        24.1025 
 257   0.0000       0.896835        24.4041 
 258   0.0000       0.908242        24.7145 
 259   0.0000       0.913716        24.8635 
 260   0.0000       0.918151        24.9842 
 261   0.0000       0.925717        25.1900 
 262   0.0000       0.936331        25.4789 
 263   0.0000       0.940361        25.5885 
 264   0.0000       0.949751        25.8440 
 265   0.0000       0.952283        25.9129 
 266   0.0000       0.957236        26.0477 
 267   0.0000       0.970655        26.4129 
 268   0.0000       0.974535        26.5185 
 269   0.0000       0.984044        26.7772 
 270   0.0000       0.991870        26.9902 
 271   0.0000       1.006472        27.3875 
 272   0.0000       1.015966        27.6458 
 273   0.0000       1.027391        27.9567 
 274   0.0000       1.033761        28.1301 
 275   0.0000       1.039494        28.2861 
 276   0.0000       1.043256        28.3884 
 277   0.0000       1.046860        28.4865 
 278   0.0000       1.061738        28.8914 
 279   0.0000       1.065502        28.9938 
 280   0.0000       1.070503        29.1299 
 281   0.0000       1.081316        29.4241 
 282   0.0000       1.087681        29.5973 
 283   0.0000       1.097301        29.8591 
 284   0.0000       1.103614        30.0309 
 285   0.0000       1.111166        30.2364 
 286   0.0000       1.114427        30.3251 
 287   0.0000       1.121761        30.5247 
 288   0.0000       1.133206        30.8361 
 289   0.0000       1.142987        31.1023 
 290   0.0000       1.144429        31.1415 
 291   0.0000       1.147261        31.2186 
 292   0.0000       1.160852        31.5884 
 293   0.0000       1.165993        31.7283 
 294   0.0000       1.171539        31.8792 
 295   0.0000       1.181566        32.1521 
 296   0.0000       1.192532        32.4504 
 297   0.0000       1.200724        32.6734 
 298   0.0000       1.200788        32.6751 
 299   0.0000       1.205124        32.7931 
 300   0.0000       1.215545        33.0767 
 301   0.0000       1.218285        33.1512 
 302   0.0000       1.228290        33.4235 
 303   0.0000       1.234526        33.5931 
 304   0.0000       1.244234        33.8573 
 305   0.0000       1.249149        33.9911 
 306   0.0000       1.257575        34.2204 
 307   0.0000       1.260362        34.2962 
 308   0.0000       1.276075        34.7238 
 309   0.0000       1.294907        35.2362 
 310   0.0000       1.301278        35.4096 
 311   0.0000       1.308013        35.5928 
 312   0.0000       1.318307        35.8730 
 313   0.0000       1.321962        35.9724 
 314   0.0000       1.334797        36.3217 
 315   0.0000       1.340902        36.4878 
 316   0.0000       1.354097        36.8468 
 317   0.0000       1.362296        37.0700 
 318   0.0000       1.370696        37.2985 
 319   0.0000       1.384563        37.6759 
 320   0.0000       1.389758        37.8172 
 321   0.0000       1.394890        37.9569 
 322   0.0000       1.405234        38.2384 
 323   0.0000       1.413012        38.4500 
 324   0.0000       1.431487        38.9527 
 325   0.0000       1.450515        39.4705 
 326   0.0000       1.454509        39.5792 
 327   0.0000       1.476716        40.1835 
 328   0.0000       1.487421        40.4748 
 329   0.0000       1.523819        41.4652 
 330   0.0000       1.530124        41.6368 
 331   0.0000       1.532683        41.7064 
 332   0.0000       1.552439        42.2440 
 333   0.0000       1.566839        42.6359 
 334   0.0000       1.578351        42.9491 
 335   0.0000       1.587019        43.1850 
 336   0.0000       1.597821        43.4789 
 337   0.0000       1.605332        43.6833 
 338   0.0000       1.627422        44.2844 
 339   0.0000       1.640493        44.6401 
 340   0.0000       1.649876        44.8954 
 341   0.0000       1.672990        45.5244 
 342   0.0000       1.676835        45.6290 
 343   0.0000       1.695163        46.1277 
 344   0.0000       1.701479        46.2996 
 345   0.0000       1.709092        46.5068 
 346   0.0000       1.722736        46.8780 
 347   0.0000       1.728572        47.0368 
 348   0.0000       1.748836        47.5883 
 349   0.0000       1.761235        47.9256 
 350   0.0000       1.762834        47.9691 
 351   0.0000       1.770506        48.1779 
 352   0.0000       1.778224        48.3879 
 353   0.0000       1.793181        48.7949 
 354   0.0000       1.800579        48.9963 
 355   0.0000       1.810368        49.2626 
 356   0.0000       1.826606        49.7045 
 357   0.0000       1.831338        49.8332 
 358   0.0000       1.839759        50.0624 
 359   0.0000       1.853353        50.4323 
 360   0.0000       1.870263        50.8924 
 361   0.0000       1.877252        51.0826 
 362   0.0000       1.894473        51.5512 
 363   0.0000       1.897442        51.6320 
 364   0.0000       1.906659        51.8828 
 365   0.0000       1.911743        52.0212 
 366   0.0000       1.912664        52.0462 
 367   0.0000       1.924565        52.3701 
 368   0.0000       1.944496        52.9124 
 369   0.0000       1.951053        53.0909 
 370   0.0000       1.956445        53.2376 
 371   0.0000       1.970438        53.6183 
 372   0.0000       1.973270        53.6954 
 373   0.0000       1.977597        53.8131 
 374   0.0000       1.989587        54.1394 
 375   0.0000       1.997596        54.3574 
 376   0.0000       2.008611        54.6571 
 377   0.0000       2.012147        54.7533 
 378   0.0000       2.021880        55.0181 
 379   0.0000       2.027038        55.1585 
 380   0.0000       2.029762        55.2326 
 381   0.0000       2.034647        55.3656 
 382   0.0000       2.039820        55.5063 
 383   0.0000       2.056453        55.9589 
 384   0.0000       2.061118        56.0859 
 385   0.0000       2.065812        56.2136 
 386   0.0000       2.074400        56.4473 
 387   0.0000       2.077832        56.5407 
 388   0.0000       2.087009        56.7904 
 389   0.0000       2.098065        57.0912 
 390   0.0000       2.106199        57.3126 
 391   0.0000       2.107987        57.3612 
 392   0.0000       2.115054        57.5536 
 393   0.0000       2.120400        57.6990 
 394   0.0000       2.126451        57.8637 
 395   0.0000       2.134335        58.0782 
 396   0.0000       2.144017        58.3417 
 397   0.0000       2.150465        58.5171 
 398   0.0000       2.151360        58.5415 
 399   0.0000       2.161811        58.8259 
 400   0.0000       2.168243        59.0009 
 401   0.0000       2.173314        59.1389 
 402   0.0000       2.176527        59.2263 
 403   0.0000       2.181497        59.3615 
 404   0.0000       2.189523        59.5800 
 405   0.0000       2.200451        59.8773 
 406   0.0000       2.208569        60.0982 
 407   0.0000       2.215948        60.2990 
 408   0.0000       2.236357        60.8544 
 409   0.0000       2.237515        60.8859 
 410   0.0000       2.240683        60.9721 
 411   0.0000       2.254478        61.3475 
 412   0.0000       2.261738        61.5450 
 413   0.0000       2.269282        61.7503 
 414   0.0000       2.279234        62.0211 
 415   0.0000       2.289187        62.2920 
 416   0.0000       2.307347        62.7861 
 417   0.0000       2.320595        63.1466 
 418   0.0000       2.348389        63.9029 
 419   0.0000       2.361079        64.2482 
 420   0.0000       2.368320        64.4453 
 421   0.0000       2.377624        64.6984 
 422   0.0000       2.380113        64.7662 
 423   0.0000       2.388289        64.9887 
 424   0.0000       2.396247        65.2052 
 425   0.0000       2.411841        65.6295 
 426   0.0000       2.426779        66.0360 
 427   0.0000       2.433173        66.2100 
 428   0.0000       2.440275        66.4032 
 429   0.0000       2.460536        66.9546 
 430   0.0000       2.467708        67.1497 
 431   0.0000       2.485776        67.6414 
 432   0.0000       2.496282        67.9273 
 433   0.0000       2.502452        68.0952 
 434   0.0000       2.508028        68.2469 
 435   0.0000       2.511153        68.3319 
 436   0.0000       2.535262        68.9880 
 437   0.0000       2.541960        69.1702 
 438   0.0000       2.562773        69.7366 
 439   0.0000       2.581297        70.2407 
 440   0.0000       2.587667        70.4140 
 441   0.0000       2.593897        70.5835 
 442   0.0000       2.611801        71.0707 
 443   0.0000       2.632240        71.6269 
 444   0.0000       2.636233        71.7355 
 445   0.0000       2.646611        72.0179 
 446   0.0000       2.656976        72.3000 
 447   0.0000       2.666281        72.5532 
 448   0.0000       2.679759        72.9199 
 449   0.0000       2.700221        73.4768 
 450   0.0000       2.704457        73.5920 
 451   0.0000       2.722468        74.0821 
 452   0.0000       2.727829        74.2280 
 453   0.0000       2.735649        74.4408 
 454   0.0000       2.749720        74.8237 
 455   0.0000       2.764560        75.2275 
 456   0.0000       2.772260        75.4370 
 457   0.0000       2.786847        75.8340 
 458   0.0000       2.791628        75.9641 
 459   0.0000       2.800376        76.2021 
 460   0.0000       2.808610        76.4262 
 461   0.0000       2.819499        76.7225 
 462   0.0000       2.845749        77.4368 
 463   0.0000       2.847027        77.4715 
 464   0.0000       2.868272        78.0497 
 465   0.0000       2.893693        78.7414 
 466   0.0000       2.901394        78.9509 
 467   0.0000       2.907072        79.1055 
 468   0.0000       2.919109        79.4330 
 469   0.0000       2.959138        80.5222 
 470   0.0000       2.967485        80.7494 
 471   0.0000       2.979817        81.0849 
 472   0.0000       3.004270        81.7503 
 473   0.0000       3.047285        82.9209 
 474   0.0000       3.119315        84.8809 
 475   0.0000       3.122165        84.9584 
 476   0.0000       3.133118        85.2565 
 477   0.0000       3.136309        85.3433 
 478   0.0000       3.148667        85.6796 
 479   0.0000       3.159818        85.9830 
 480   0.0000       3.169680        86.2514 
 481   0.0000       3.187111        86.7257 
 482   0.0000       3.195451        86.9526 
 483   0.0000       3.210657        87.3664 
 484   0.0000       3.221951        87.6738 
 485   0.0000       3.240902        88.1894 
 486   0.0000       3.250353        88.4466 
 487   0.0000       3.258881        88.6787 
 488   0.0000       3.268984        88.9536 
 489   0.0000       3.283543        89.3498 
 490   0.0000       3.288600        89.4874 
 491   0.0000       3.301721        89.8444 
 492   0.0000       3.315108        90.2087 
 493   0.0000       3.321827        90.3915 
 494   0.0000       3.341040        90.9143 
 495   0.0000       3.354666        91.2851 
 496   0.0000       3.367644        91.6383 
 497   0.0000       3.369767        91.6960 
 498   0.0000       3.383981        92.0828 
 499   0.0000       3.409517        92.7777 
 500   0.0000       3.428946        93.3064 
 501   0.0000       3.435402        93.4820 
 502   0.0000       3.476740        94.6069 
 503   0.0000       3.576220        97.3139 
 504   0.0000       3.615218        98.3751 
 505   0.0000       3.653322        99.4119 
 506   0.0000       3.814345       103.7936 
 507   0.0000       3.836955       104.4088 
 508   0.0000       3.935780       107.0980 
 509   0.0000       4.039298       109.9149 

                    ********************************
                    * MULLIKEN POPULATION ANALYSIS *
                    ********************************

-----------------------
MULLIKEN ATOMIC CHARGES
-----------------------
   0 C :    1.370642
   1 N :    0.222258
   2 C :    0.555083
   3 C :    0.493946
   4 H :   -0.200432
   5 H :    0.063400
   6 C :    0.155643
   7 C :    1.021621
   8 N :    0.199072
   9 N :    0.546906
  10 H :   -0.126485
  11 H :   -0.458698
  12 H :   -1.018293
  13 H :   -0.075954
  14 H :   -0.217354
  15 O :   -0.662643
  16 O :   -0.580648
  17 C :    0.485500
  18 H :   -0.360881
  19 H :   -0.356327
  20 C :    0.042537
  21 C :    0.020999
  22 H :   -0.100835
  23 H :   -0.247147
  24 H :   -0.065020
  25 H :   -0.208493
  26 C :    0.874613
  27 H :   -0.195082
  28 H :   -0.098819
  29 C :    0.162702
  30 H :   -0.087677
  31 H :   -1.080842
  32 C :    0.853485
  33 H :   -0.492885
  34 H :    0.071704
  35 H :   -0.482476
  36 H :    0.125724
  37 H :   -0.060231
  38 H :   -0.088613
Sum of atomic charges:    0.0000000

--------------------------------
MULLIKEN REDUCED ORBITAL CHARGES
--------------------------------
  0 C s       :     2.426226  s :     2.426226
      pz      :     0.899716  p :     2.270125
      px      :     0.789238
      py      :     0.581172
      dz2     :     0.074953  d :    -0.066993
      dxz     :     0.000545
      dyz     :     0.048471
      dx2y2   :    -0.141007
      dxy     :    -0.049955
  1 N s       :     2.935662  s :     2.935662
      pz      :     1.489289  p :     3.612018
      px      :     1.005809
      py      :     1.116920
      dz2     :     0.024394  d :     0.230061
      dxz     :     0.075738
      dyz     :     0.048570
      dx2y2   :     0.054604
      dxy     :     0.026755
  2 C s       :     2.546526  s :     2.546526
      pz      :     0.923097  p :     2.531689
      px      :     0.717313
      py      :     0.891279
      dz2     :     0.015594  d :     0.366701
      dxz     :     0.047848
      dyz     :     0.175052
      dx2y2   :     0.090884
      dxy     :     0.037323
  3 C s       :     2.483647  s :     2.483647
      pz      :     0.987050  p :     2.736081
      px      :     0.803776
      py      :     0.945255
      dz2     :     0.140004  d :     0.286327
      dxz     :     0.051633
      dyz     :     0.015921
      dx2y2   :     0.019845
      dxy     :     0.058924
  4 H s       :     1.201116  s :     1.201116
      pz      :    -0.036688  p :    -0.000684
      px      :    -0.001755
      py      :     0.037760
  5 H s       :     0.935034  s :     0.935034
      pz      :    -0.010213  p :     0.001566
      px      :     0.017400
      py      :    -0.005621
  6 C s       :     3.136585  s :     3.136585
      pz      :     0.743349  p :     2.225575
      px      :     0.800173
      py      :     0.682053
      dz2     :     0.055061  d :     0.482197
      dxz     :     0.084265
      dyz     :     0.137700
      dx2y2   :     0.109476
      dxy     :     0.095695
  7 C s       :     3.203597  s :     3.203597
      pz      :     0.695407  p :     2.124010
      px      :     0.839517
      py      :     0.589086
      dz2     :    -0.022385  d :    -0.349228
      dxz     :    -0.019069
      dyz     :    -0.030333
      dx2y2   :    -0.073151
      dxy     :    -0.204290
  8 N s       :     3.230094  s :     3.230094
      pz      :     1.398847  p :     3.609948
      px      :     1.075747
      py      :     1.135354
      dz2     :    -0.008173  d :    -0.039115
      dxz     :    -0.001915
      dyz     :     0.006434
      dx2y2   :    -0.019702
      dxy     :    -0.015758
  9 N s       :     2.923908  s :     2.923908
      pz      :     1.339936  p :     3.555321
      px      :     1.020712
      py      :     1.194673
      dz2     :     0.013369  d :    -0.026134
      dxz     :    -0.000770
      dyz     :    -0.010616
      dx2y2   :    -0.016644
      dxy     :    -0.011474
 10 H s       :     1.126563  s :     1.126563
      pz      :     0.033492  p :    -0.000078
      px      :    -0.016568
      py      :    -0.017003
 11 H s       :     1.331204  s :     1.331204
      pz      :     0.072956  p :     0.127494
      px      :    -0.109312
      py      :     0.163851
 12 H s       :     1.795835  s :     1.795835
      pz      :     0.072324  p :     0.222458
      px      :    -0.042367
      py      :     0.192501
 13 H s       :     1.052635  s :     1.052635
      pz      :     0.016242  p :     0.023318
      px      :    -0.015675
      py      :     0.022751
 14 H s       :     1.186992  s :     1.186992
      pz      :     0.031049  p :     0.030362
      px      :    -0.017437
      py      :     0.016750
 15 O s       :     3.921052  s :     3.921052
      pz      :     1.356368  p :     4.705876
      px      :     1.706815
      py      :     1.642693
      dz2     :     0.012240  d :     0.035715
      dxz     :     0.005603
      dyz     :     0.007999
      dx2y2   :    -0.002647
      dxy     :     0.012520
 16 O s       :     3.833106  s :     3.833106
      pz      :     1.770582  p :     4.744676
      px      :     1.330642
      py      :     1.643452
      dz2     :     0.004058  d :     0.002866
      dxz     :    -0.000023
      dyz     :    -0.010891
      dx2y2   :     0.005118
      dxy     :     0.004604
 17 C s       :     2.697083  s :     2.697083
      pz      :     0.918526  p :     2.584511
      px      :     0.764214
      py      :     0.901771
      dz2     :     0.207525  d :     0.232906
      dxz     :    -0.026235
      dyz     :     0.050741
      dx2y2   :     0.013892
      dxy     :    -0.013017
 18 H s       :     1.377640  s :     1.377640
      pz      :    -0.021304  p :    -0.016759
      px      :     0.014251
      py      :    -0.009707
 19 H s       :     1.353014  s :     1.353014
      pz      :     0.000467  p :     0.003313
      px      :     0.053821
      py      :    -0.050975
 20 C s       :     2.747417  s :     2.747417
      pz      :     0.855935  p :     2.645231
      px      :     0.941947
      py      :     0.847349
      dz2     :     0.031104  d :     0.564814
      dxz     :     0.063996
      dyz     :     0.175463
      dx2y2   :     0.032456
      dxy     :     0.261795
 21 C s       :     2.767443  s :     2.767443
      pz      :     0.828280  p :     2.667140
      px      :     0.945219
      py      :     0.893641
      dz2     :     0.043630  d :     0.544418
      dxz     :     0.036363
      dyz     :     0.125395
      dx2y2   :     0.100536
      dxy     :     0.238494
 22 H s       :     1.057630  s :     1.057630
      pz      :     0.012989  p :     0.043205
      px      :     0.017480
      py      :     0.012736
 23 H s       :     1.243083  s :     1.243083
      pz      :     0.030207  p :     0.004064
      px      :    -0.015864
      py      :    -0.010280
 24 H s       :     1.118521  s :     1.118521
      pz      :    -0.006544  p :    -0.053500
      px      :    -0.003128
      py      :    -0.043829
 25 H s       :     1.220145  s :     1.220145
      pz      :     0.011652  p :    -0.011653
      px      :    -0.021187
      py      :    -0.002118
 26 C s       :     1.836767  s :     1.836767
      pz      :     0.890061  p :     2.651419
      px      :     0.936414
      py      :     0.824944
      dz2     :     0.017754  d :     0.637202
      dxz     :     0.144069
      dyz     :     0.257794
      dx2y2   :     0.116327
      dxy     :     0.101258
 27 H s       :     1.204631  s :     1.204631
      pz      :    -0.008563  p :    -0.009549
      px      :    -0.011054
      py      :     0.010068
 28 H s       :     1.060202  s :     1.060202
      pz      :     0.042849  p :     0.038616
      px      :    -0.019319
      py      :     0.015086
 29 C s       :     2.751231  s :     2.751231
      pz      :     0.935752  p :     2.550857
      px      :     0.840669
      py      :     0.774436
      dz2     :     0.169972  d :     0.535210
      dxz     :     0.116180
      dyz     :     0.084724
      dx2y2   :     0.031645
      dxy     :     0.132690
 30 H s       :     1.085285  s :     1.085285
      pz      :     0.005446  p :     0.002392
      px      :     0.021913
      py      :    -0.024967
 31 H s       :     1.784519  s :     1.784519
      pz      :    -0.057853  p :     0.296323
      px      :     0.263067
      py      :     0.091110
 32 C s       :     2.379771  s :     2.379771
      pz      :     0.736884  p :     2.536055
      px      :     0.908521
      py      :     0.890651
      dz2     :     0.016379  d :     0.230688
      dxz     :    -0.011456
      dyz     :     0.109467
      dx2y2   :     0.105891
      dxy     :     0.010408
 33 H s       :     1.496668  s :     1.496668
      pz      :    -0.023259  p :    -0.003784
      px      :    -0.021021
      py      :     0.040496
 34 H s       :     0.937908  s :     0.937908
      pz      :     0.001364  p :    -0.009611
      px      :     0.017070
      py      :    -0.028045
 35 H s       :     1.462403  s :     1.462403
      pz      :     0.001224  p :     0.020073
      px      :     0.012980
      py      :     0.005869
 36 H s       :     0.863618  s :     0.863618
      pz      :     0.040766  p :     0.010658
      px      :    -0.029512
      py      :    -0.000596
 37 H s       :     1.095708  s :     1.095708
      pz      :    -0.038886  p :    -0.035477
      px      :     0.038400
      py      :    -0.034991
 38 H s       :     1.109955  s :     1.109955
      pz      :     0.028653  p :    -0.021342
      px      :    -0.035755
      py      :    -0.014240


                     *******************************
                     * LOEWDIN POPULATION ANALYSIS *
                     *******************************

----------------------
LOEWDIN ATOMIC CHARGES
----------------------
   0 C :    0.073046
   1 N :    0.082874
   2 C :   -0.022298
   3 C :    0.034761
   4 H :    0.028950
   5 H :    0.014629
   6 C :   -0.193501
   7 C :   -0.035750
   8 N :    0.250203
   9 N :    0.288258
  10 H :    0.022374
  11 H :   -0.112028
  12 H :   -0.081916
  13 H :   -0.008323
  14 H :    0.012168
  15 O :   -0.243336
  16 O :   -0.231975
  17 C :   -0.014695
  18 H :    0.040808
  19 H :    0.006322
  20 C :   -0.031410
  21 C :   -0.030593
  22 H :    0.011220
  23 H :    0.025206
  24 H :    0.021621
  25 H :    0.019188
  26 C :   -0.026363
  27 H :    0.025514
  28 H :    0.017165
  29 C :   -0.040164
  30 H :    0.039304
  31 H :   -0.021121
  32 C :   -0.032026
  33 H :    0.020911
  34 H :    0.016844
  35 H :    0.024195
  36 H :    0.009469
  37 H :    0.020696
  38 H :    0.019773

-------------------------------
LOEWDIN REDUCED ORBITAL CHARGES
-------------------------------
  0 C s       :     2.660246  s :     2.660246
      pz      :     0.889974  p :     2.586995
      px      :     0.821316
      py      :     0.875705
      dz2     :     0.113356  d :     0.679713
      dxz     :     0.146283
      dyz     :     0.163663
      dx2y2   :     0.091520
      dxy     :     0.164891
  1 N s       :     2.896215  s :     2.896215
      pz      :     1.257178  p :     3.437834
      px      :     1.054183
      py      :     1.126473
      dz2     :     0.064153  d :     0.583077
      dxz     :     0.132102
      dyz     :     0.073434
      dx2y2   :     0.163022
      dxy     :     0.150366
  2 C s       :     2.679675  s :     2.679675
      pz      :     0.884568  p :     2.677455
      px      :     0.903213
      py      :     0.889675
      dz2     :     0.104028  d :     0.665168
      dxz     :     0.129538
      dyz     :     0.182528
      dx2y2   :     0.132871
      dxy     :     0.116203
  3 C s       :     2.678036  s :     2.678036
      pz      :     0.888810  p :     2.683129
      px      :     0.898343
      py      :     0.895976
      dz2     :     0.160618  d :     0.604073
      dxz     :     0.130944
      dyz     :     0.125150
      dx2y2   :     0.076137
      dxy     :     0.111224
  4 H s       :     0.721834  s :     0.721834
      pz      :     0.062408  p :     0.249216
      px      :     0.086751
      py      :     0.100057
  5 H s       :     0.718507  s :     0.718507
      pz      :     0.073489  p :     0.266864
      px      :     0.116880
      py      :     0.076495
  6 C s       :     2.650533  s :     2.650533
      pz      :     0.831740  p :     2.364855
      px      :     0.851517
      py      :     0.681599
      dz2     :     0.249196  d :     1.178112
      dxz     :     0.312779
      dyz     :     0.197523
      dx2y2   :     0.206548
      dxy     :     0.212067
  7 C s       :     2.610043  s :     2.610043
      pz      :     0.712196  p :     2.388916
      px      :     0.853008
      py      :     0.823711
      dz2     :     0.167359  d :     1.036791
      dxz     :     0.182349
      dyz     :     0.180647
      dx2y2   :     0.253586
      dxy     :     0.252851
  8 N s       :     2.936132  s :     2.936132
      pz      :     1.270668  p :     3.513902
      px      :     1.105566
      py      :     1.137668
      dz2     :     0.040737  d :     0.299763
      dxz     :     0.027033
      dyz     :     0.071327
      dx2y2   :     0.078356
      dxy     :     0.082309
  9 N s       :     2.920770  s :     2.920770
      pz      :     1.229256  p :     3.473995
      px      :     1.085130
      py      :     1.159609
      dz2     :     0.045605  d :     0.316976
      dxz     :     0.057998
      dyz     :     0.065703
      dx2y2   :     0.077854
      dxy     :     0.069817
 10 H s       :     0.654073  s :     0.654073
      pz      :     0.099388  p :     0.323553
      px      :     0.129459
      py      :     0.094706
 11 H s       :     0.577841  s :     0.577841
      pz      :     0.183426  p :     0.534187
      px      :     0.117447
      py      :     0.233314
 12 H s       :     0.571117  s :     0.571117
      pz      :     0.141411  p :     0.510799
      px      :     0.104178
      py      :     0.265210
 13 H s       :     0.641130  s :     0.641130
      pz      :     0.145007  p :     0.367193
      px      :     0.128391
      py      :     0.093795
 14 H s       :     0.653404  s :     0.653404
      pz      :     0.100259  p :     0.334428
      px      :     0.148855
      py      :     0.085314
 15 O s       :     3.390842  s :     3.390842
      pz      :     1.448768  p :     4.573544
      px      :     1.603895
      py      :     1.520881
      dz2     :     0.069744  d :     0.278950
      dxz     :     0.067560
      dyz     :     0.071433
      dx2y2   :     0.037467
      dxy     :     0.032745
 16 O s       :     3.391437  s :     3.391437
      pz      :     1.638913  p :     4.571282
      px      :     1.427436
      py      :     1.504932
      dz2     :     0.032569  d :     0.269256
      dxz     :     0.073536
      dyz     :     0.033843
      dx2y2   :     0.057459
      dxy     :     0.071849
 17 C s       :     2.692228  s :     2.692228
      pz      :     0.885525  p :     2.679593
      px      :     0.892620
      py      :     0.901449
      dz2     :     0.124442  d :     0.642874
      dxz     :     0.133684
      dyz     :     0.150317
      dx2y2   :     0.085697
      dxy     :     0.148735
 18 H s       :     0.720447  s :     0.720447
      pz      :     0.070811  p :     0.238745
      px      :     0.078924
      py      :     0.089010
 19 H s       :     0.732656  s :     0.732656
      pz      :     0.088201  p :     0.261022
      px      :     0.082350
      py      :     0.090471
 20 C s       :     2.676939  s :     2.676939
      pz      :     0.904374  p :     2.676225
      px      :     0.888864
      py      :     0.882987
      dz2     :     0.095931  d :     0.678246
      dxz     :     0.123747
      dyz     :     0.140773
      dx2y2   :     0.141088
      dxy     :     0.176706
 21 C s       :     2.677754  s :     2.677754
      pz      :     0.893447  p :     2.672707
      px      :     0.889939
      py      :     0.889321
      dz2     :     0.095126  d :     0.680133
      dxz     :     0.117762
      dyz     :     0.140574
      dx2y2   :     0.154345
      dxy     :     0.172325
 22 H s       :     0.706046  s :     0.706046
      pz      :     0.103435  p :     0.282734
      px      :     0.087005
      py      :     0.092294
 23 H s       :     0.729925  s :     0.729925
      pz      :     0.109754  p :     0.244868
      px      :     0.061733
      py      :     0.073381
 24 H s       :     0.720796  s :     0.720796
      pz      :     0.076103  p :     0.257584
      px      :     0.118583
      py      :     0.062898
 25 H s       :     0.731868  s :     0.731868
      pz      :     0.083729  p :     0.248944
      px      :     0.087474
      py      :     0.077741
 26 C s       :     2.671245  s :     2.671245
      pz      :     0.877233  p :     2.671912
      px      :     0.896904
      py      :     0.897775
      dz2     :     0.154157  d :     0.683207
      dxz     :     0.151744
      dyz     :     0.161686
      dx2y2   :     0.083822
      dxy     :     0.131798
 27 H s       :     0.730530  s :     0.730530
      pz      :     0.069300  p :     0.243956
      px      :     0.089367
      py      :     0.085289
 28 H s       :     0.722214  s :     0.722214
      pz      :     0.085906  p :     0.260622
      px      :     0.098110
      py      :     0.076606
 29 C s       :     2.682456  s :     2.682456
      pz      :     0.884656  p :     2.679854
      px      :     0.901578
      py      :     0.893620
      dz2     :     0.170222  d :     0.677854
      dxz     :     0.149492
      dyz     :     0.133548
      dx2y2   :     0.089350
      dxy     :     0.135242
 30 H s       :     0.721892  s :     0.721892
      pz      :     0.069597  p :     0.238804
      px      :     0.103566
      py      :     0.065641
 31 H s       :     0.684846  s :     0.684846
      pz      :     0.081859  p :     0.336275
      px      :     0.115706
      py      :     0.138710
 32 C s       :     2.684127  s :     2.684127
      pz      :     0.893468  p :     2.683743
      px      :     0.897052
      py      :     0.893224
      dz2     :     0.118875  d :     0.664156
      dxz     :     0.078628
      dyz     :     0.161272
      dx2y2   :     0.178268
      dxy     :     0.127113
 33 H s       :     0.733570  s :     0.733570
      pz      :     0.060728  p :     0.245519
      px      :     0.083159
      py      :     0.101631
 34 H s       :     0.718582  s :     0.718582
      pz      :     0.074186  p :     0.264574
      px      :     0.113088
      py      :     0.077300
 35 H s       :     0.729984  s :     0.729984
      pz      :     0.087585  p :     0.245821
      px      :     0.077075
      py      :     0.081162
 36 H s       :     0.704100  s :     0.704100
      pz      :     0.124899  p :     0.286430
      px      :     0.073228
      py      :     0.088303
 37 H s       :     0.729504  s :     0.729504
      pz      :     0.078210  p :     0.249801
      px      :     0.109597
      py      :     0.061993
 38 H s       :     0.730212  s :     0.730212
      pz      :     0.113481  p :     0.250015
      px      :     0.067663
      py      :     0.068871


                      *****************************
                      * MAYER POPULATION ANALYSIS *
                      *****************************

  NA   - Mulliken gross atomic population
  ZA   - Total nuclear charge
  QA   - Mulliken gross atomic charge
  VA   - Mayer's total valence
  BVA  - Mayer's bonded valence
  FA   - Mayer's free valence

  ATOM       NA         ZA         QA         VA         BVA        FA
  0 C      4.6294     6.0000     1.3706     2.9581     2.9581     0.0000
  1 N      6.7777     7.0000     0.2223     3.9726     3.9726    -0.0000
  2 C      5.4449     6.0000     0.5551     4.3638     4.3638    -0.0000
  3 C      5.5061     6.0000     0.4939     4.0924     4.0924    -0.0000
  4 H      1.2004     1.0000    -0.2004     1.0171     1.0171    -0.0000
  5 H      0.9366     1.0000     0.0634     1.0015     1.0015    -0.0000
  6 C      5.8444     6.0000     0.1556     4.7098     4.7098    -0.0000
  7 C      4.9784     6.0000     1.0216     1.9760     1.9760    -0.0000
  8 N      6.8009     7.0000     0.1991     3.5599     3.5599    -0.0000
  9 N      6.4531     7.0000     0.5469     3.4650     3.4650     0.0000
 10 H      1.1265     1.0000    -0.1265     0.7788     0.7788    -0.0000
 11 H      1.4587     1.0000    -0.4587     0.9372     0.9372     0.0000
 12 H      2.0183     1.0000    -1.0183     0.4714     0.4714    -0.0000
 13 H      1.0760     1.0000    -0.0760     0.9055     0.9055    -0.0000
 14 H      1.2174     1.0000    -0.2174     0.8808     0.8808    -0.0000
 15 O      8.6626     8.0000    -0.6626     1.9424     1.9424    -0.0000
 16 O      8.5806     8.0000    -0.5806     1.7014     1.7014    -0.0000
 17 C      5.5145     6.0000     0.4855     4.3870     4.3870    -0.0000
 18 H      1.3609     1.0000    -0.3609     0.7537     0.7537     0.0000
 19 H      1.3563     1.0000    -0.3563     0.7685     0.7685     0.0000
 20 C      5.9575     6.0000     0.0425     5.0546     5.0546    -0.0000
 21 C      5.9790     6.0000     0.0210     4.9907     4.9907     0.0000
 22 H      1.1008     1.0000    -0.1008     1.2281     1.2281    -0.0000
 23 H      1.2471     1.0000    -0.2471     1.0138     1.0138     0.0000
 24 H      1.0650     1.0000    -0.0650     0.8863     0.8863    -0.0000
 25 H      1.2085     1.0000    -0.2085     0.9560     0.9560     0.0000
 26 C      5.1254     6.0000     0.8746     3.5105     3.5105    -0.0000
 27 H      1.1951     1.0000    -0.1951     0.9396     0.9396     0.0000
 28 H      1.0988     1.0000    -0.0988     1.0186     1.0186    -0.0000
 29 C      5.8373     6.0000     0.1627     4.9802     4.9802     0.0000
 30 H      1.0877     1.0000    -0.0877     0.9386     0.9386    -0.0000
 31 H      2.0808     1.0000    -1.0808     0.6053     0.6053     0.0000
 32 C      5.1465     6.0000     0.8535     3.6438     3.6438     0.0000
 33 H      1.4929     1.0000    -0.4929     0.9216     0.9216     0.0000
 34 H      0.9283     1.0000     0.0717     0.9637     0.9637     0.0000
 35 H      1.4825     1.0000    -0.4825     0.9888     0.9888    -0.0000
 36 H      0.8743     1.0000     0.1257     1.0373     1.0373     0.0000
 37 H      1.0602     1.0000    -0.0602     0.8771     0.8771     0.0000
 38 H      1.0886     1.0000    -0.0886     0.9415     0.9415    -0.0000

  Mayer bond orders larger than 0.100000
B(  0-C ,  1-N ) :   0.9172 B(  0-C , 12-H ) :  -0.4891 B(  0-C , 17-C ) :   1.0420 
B(  0-C , 18-H ) :   0.5552 B(  0-C , 19-H ) :   0.7120 B(  0-C , 26-C ) :   0.1761 
B(  1-N ,  7-C ) :   1.1885 B(  1-N ,  8-N ) :   0.1997 B(  1-N , 12-H ) :   1.1580 
B(  1-N , 18-H ) :   0.2487 B(  1-N , 19-H ) :   0.1145 B(  2-C ,  3-C ) :   1.1487 
B(  2-C ,  4-H ) :   0.1731 B(  2-C ,  5-H ) :   0.1057 B(  2-C ,  6-C ) :   0.1010 
B(  2-C , 21-C ) :   1.2158 B(  2-C , 22-H ) :   0.1140 B(  2-C , 24-H ) :   0.6232 
B(  2-C , 25-H ) :   0.7634 B(  3-C ,  4-H ) :   0.6053 B(  3-C ,  5-H ) :   0.7194 
B(  3-C ,  6-C ) :   1.1234 B(  3-C , 21-C ) :   0.1315 B(  3-C , 24-H ) :   0.1224 
B(  3-C , 25-H ) :   0.1651 B(  4-H ,  6-C ) :   0.2861 B(  5-H ,  6-C ) :   0.2853 
B(  6-C , 15-O ) :   1.4714 B(  6-C , 16-O ) :   1.3780 B(  7-C ,  8-N ) :   0.9079 
B(  7-C ,  9-N ) :   1.0051 B(  7-C , 11-H ) :  -0.2469 B(  7-C , 12-H ) :  -0.6346 
B(  7-C , 13-H ) :  -0.1003 B(  8-N ,  9-N ) :   0.1225 B(  8-N , 13-H ) :   1.0775 
B(  8-N , 14-H ) :   1.2120 B(  9-N , 10-H ) :   1.1379 B(  9-N , 11-H ) :   1.1351 
B( 10-H , 11-H ) :  -0.2460 B( 11-H , 16-O ) :   0.1436 B( 12-H , 15-O ) :   0.2626 
B( 12-H , 18-H ) :   0.1754 B( 13-H , 14-H ) :  -0.2049 B( 15-O , 31-H ) :   0.1096 
B( 17-C , 19-H ) :   0.1965 B( 17-C , 26-C ) :   1.1033 B( 17-C , 27-H ) :   0.8451 
B( 17-C , 28-H ) :   0.8559 B( 17-C , 29-C ) :   0.1106 B( 17-C , 30-H ) :   0.1513 
B( 18-H , 19-H ) :  -0.2576 B( 20-C , 21-C ) :   1.2084 B( 20-C , 22-H ) :   0.1244 
B( 20-C , 23-H ) :   0.1559 B( 20-C , 29-C ) :   0.1348 B( 20-C , 32-C ) :   1.1256 
B( 20-C , 35-H ) :   0.9475 B( 20-C , 36-H ) :   0.8211 B( 20-C , 37-H ) :   0.3133 
B( 20-C , 38-H ) :   0.1481 B( 21-C , 22-H ) :   0.9113 B( 21-C , 23-H ) :   0.8297 
B( 21-C , 24-H ) :   0.2755 B( 21-C , 25-H ) :   0.1904 B( 21-C , 35-H ) :   0.1191 
B( 21-C , 36-H ) :   0.1227 B( 24-H , 25-H ) :  -0.1459 B( 26-C , 27-H ) :   0.1641 
B( 26-C , 28-H ) :   0.1035 B( 26-C , 29-C ) :   1.2261 B( 26-C , 30-H ) :   0.5628 
B( 26-C , 31-H ) :  -0.2187 B( 26-C , 34-H ) :   0.1802 B( 27-H , 31-H ) :   0.1358 
B( 28-H , 33-H ) :  -0.1077 B( 29-C , 31-H ) :   0.1698 B( 29-C , 32-C ) :   1.0901 
B( 29-C , 33-H ) :   0.9583 B( 29-C , 34-H ) :   0.8020 B( 29-C , 37-H ) :   0.1171 
B( 29-C , 38-H ) :   0.2588 B( 30-H , 31-H ) :   0.3047 B( 31-H , 36-H ) :   0.1162 
B( 32-C , 37-H ) :   0.6080 B( 32-C , 38-H ) :   0.6363 B( 37-H , 38-H ) :  -0.1369 


-------
TIMINGS
-------

Total SCF time: 0 days 0 hours 7 min 1 sec 

Total time                  ....     421.999 sec
Sum of individual times     ....     421.161 sec  ( 99.8%)

Fock matrix formation       ....     413.522 sec  ( 98.0%)
  Split-RI-J                ....      16.810 sec  (  4.1% of F)
  Chain of spheres X        ....     367.087 sec  ( 88.8% of F)
  XC integration            ....      29.366 sec  (  7.1% of F)
    Basis function eval.    ....       7.703 sec  ( 26.2% of XC)
    Density eval.           ....       9.868 sec  ( 33.6% of XC)
    XC-Functional eval.     ....       1.768 sec  (  6.0% of XC)
    XC-Potential eval.      ....       8.627 sec  ( 29.4% of XC)
Diagonalization             ....       0.637 sec  (  0.2%)
Density matrix formation    ....       0.050 sec  (  0.0%)
Population analysis         ....       0.078 sec  (  0.0%)
Initial guess               ....       1.379 sec  (  0.3%)
Orbital Transformation      ....       0.000 sec  (  0.0%)
Orbital Orthonormalization  ....       0.000 sec  (  0.0%)
DIIS solution               ....       0.345 sec  (  0.1%)
SOSCF solution              ....       0.466 sec  (  0.1%)
Grid generation             ....       4.682 sec  (  1.1%)

Maximum memory used throughout the entire SCF-calculation: 106.7 MB

-------------------------   --------------------
FINAL SINGLE POINT ENERGY      -746.925027800337
-------------------------   --------------------


                            ***************************************
                            *     ORCA property calculations      *
                            ***************************************

                                    ---------------------
                                    Active property flags
                                    ---------------------
   (+) Dipole Moment


------------------------------------------------------------------------------
                       ORCA ELECTRIC PROPERTIES CALCULATION
------------------------------------------------------------------------------

Dipole Moment Calculation                       ... on
Quadrupole Moment Calculation                   ... off
Polarizability Calculation                      ... off
GBWName                                         ... 28Oct_SVPD_CAMB3LYP_B_wt_wb97.gbw
Electron density file                           ... 28Oct_SVPD_CAMB3LYP_B_wt_wb97.scfp
The origin for moment calculation is the CENTER OF MASS  = ( 7.982950, -0.558124  1.013267)

-------------
DIPOLE MOMENT
-------------
                                X             Y             Z
Electronic contribution:     12.27130       3.28526       7.68105
Nuclear contribution   :    -11.44764      -6.21818      -6.18483
                        -----------------------------------------
Total Dipole Moment    :      0.82367      -2.93292       1.49622
                        -----------------------------------------
Magnitude (a.u.)       :      3.39398
Magnitude (Debye)      :      8.62681



--------------------
Rotational spectrum 
--------------------
 
Rotational constants in cm-1:     0.020281     0.013510     0.009451 
Rotational constants in MHz :   608.005987   405.034308   283.324538 

 Dipole components along the rotational axes: 
x,y,z [a.u.] :    -2.892526    -1.447423    -1.028278 
x,y,z [Debye]:    -7.352217    -3.679058    -2.613676 

 

Timings for individual modules:

Sum of individual times         ...      423.349 sec (=   7.056 min)
GTO integral calculation        ...        0.978 sec (=   0.016 min)   0.2 %
SCF iterations                  ...      422.370 sec (=   7.040 min)  99.8 %
                             ****ORCA TERMINATED NORMALLY****
TOTAL RUN TIME: 0 days 0 hours 7 minutes 4 seconds 95 msec
