
                                        *****************
                                        * O   R   C   A *
                                        *****************

                                            #,                                       
                                            ###                                      
                                            ####                                     
                                            #####                                    
                                            ######                                   
                                           ########,                                 
                                     ,,################,,,,,                         
                               ,,#################################,,                 
                          ,,##########################################,,             
                       ,#########################################, ''#####,          
                    ,#############################################,,   '####,        
                  ,##################################################,,,,####,       
                ,###########''''           ''''###############################       
              ,#####''   ,,,,##########,,,,          '''####'''          '####       
            ,##' ,,,,###########################,,,                        '##       
           ' ,,###''''                  '''############,,,                           
         ,,##''                                '''############,,,,        ,,,,,,###''
      ,#''                                            '''#######################'''  
     '                                                          ''''####''''         
             ,#######,   #######,   ,#######,      ##                                
            ,#'     '#,  ##    ##  ,#'     '#,    #''#        ######   ,####,        
            ##       ##  ##   ,#'  ##            #'  '#       #        #'  '#        
            ##       ##  #######   ##           ,######,      #####,   #    #        
            '#,     ,#'  ##    ##  '#,     ,#' ,#      #,         ##   #,  ,#        
             '#######'   ##     ##  '#######'  #'      '#     #####' # '####'        



                  #######################################################
                  #                        -***-                        #
                  #          Department of theory and spectroscopy      #
                  #    Directorship and core code : Frank Neese         #
                  #        Max Planck Institute fuer Kohlenforschung    #
                  #                Kaiser Wilhelm Platz 1               #
                  #                 D-45470 Muelheim/Ruhr               #
                  #                      Germany                        #
                  #                                                     #
                  #                  All rights reserved                #
                  #                        -***-                        #
                  #######################################################


                         Program Version 5.0.0 -  RELEASE  -
                                (SVN: $Rev: 19529$)
                ($Date: 2021-06-28 11:36:33 +0200 (Mo, 28 Jun 2021) $)


 With contributions from (in alphabetic order):
   Daniel Aravena         : Magnetic Suceptibility
   Michael Atanasov       : Ab Initio Ligand Field Theory (pilot matlab implementation)
   Alexander A. Auer      : GIAO ZORA, VPT2 properties, NMR spectrum
   Ute Becker             : Parallelization
   Giovanni Bistoni       : ED, misc. LED, open-shell LED, HFLD
   Martin Brehm           : Molecular dynamics
   Dmytro Bykov           : SCF Hessian
   Vijay G. Chilkuri      : MRCI spin determinant printing, contributions to CSF-ICE
   Dipayan Datta          : RHF DLPNO-CCSD density
   Achintya Kumar Dutta   : EOM-CC, STEOM-CC
   Dmitry Ganyushin       : Spin-Orbit,Spin-Spin,Magnetic field MRCI
   Miquel Garcia          : C-PCM Hessian, Gaussian charge scheme
   Yang Guo               : DLPNO-NEVPT2, F12-NEVPT2, CIM, IAO-localization
   Andreas Hansen         : Spin unrestricted coupled pair/coupled cluster methods
   Benjamin Helmich-Paris : MC-RPA, TRAH-SCF, COSX integrals
   Lee Huntington         : MR-EOM, pCC
   Robert Izsak           : Overlap fitted RIJCOSX, COSX-SCS-MP3, EOM
   Marcus Kettner         : VPT2
   Christian Kollmar      : KDIIS, OOCD, Brueckner-CCSD(T), CCSD density, CASPT2, CASPT2-K
   Simone Kossmann        : Meta GGA functionals, TD-DFT gradient, OOMP2, MP2 Hessian
   Martin Krupicka        : Initial AUTO-CI
   Lucas Lang             : DCDCAS
   Marvin Lechner         : AUTO-CI (C++ implementation), FIC-MRCC
   Dagmar Lenk            : GEPOL surface, SMD
   Dimitrios Liakos       : Extrapolation schemes; Compound Job, initial MDCI parallelization
   Dimitrios Manganas     : Further ROCIS development; embedding schemes
   Dimitrios Pantazis     : SARC Basis sets
   Anastasios Papadopoulos: AUTO-CI, single reference methods and gradients
   Taras Petrenko         : DFT Hessian,TD-DFT gradient, ASA, ECA, R-Raman, ABS, FL, XAS/XES, NRVS
   Peter Pinski           : DLPNO-MP2, DLPNO-MP2 Gradient
   Christoph Reimann      : Effective Core Potentials
   Marius Retegan         : Local ZFS, SOC
   Christoph Riplinger    : Optimizer, TS searches, QM/MM, DLPNO-CCSD(T), (RO)-DLPNO pert. Triples
   Tobias Risthaus        : Range-separated hybrids, TD-DFT gradient, RPA, STAB
   Michael Roemelt        : Original ROCIS implementation
   Masaaki Saitow         : Open-shell DLPNO-CCSD energy and density
   Barbara Sandhoefer     : DKH picture change effects
   Avijit Sen             : IP-ROCIS
   Kantharuban Sivalingam : CASSCF convergence, NEVPT2, FIC-MRCI
   Bernardo de Souza      : ESD, SOC TD-DFT
   Georgi Stoychev        : AutoAux, RI-MP2 NMR
   Willem Van den Heuvel  : Paramagnetic NMR
   Boris Wezisla          : Elementary symmetry handling
   Frank Wennmohs         : Technical directorship


 We gratefully acknowledge several colleagues who have allowed us to
 interface, adapt or use parts of their codes:
   Stefan Grimme, W. Hujo, H. Kruse, P. Pracht,  : VdW corrections, initial TS optimization,
                  C. Bannwarth, S. Ehlert          DFT functionals, gCP, sTDA/sTD-DF
   Ed Valeev, F. Pavosevic, A. Kumar             : LibInt (2-el integral package), F12 methods
   Garnet Chan, S. Sharma, J. Yang, R. Olivares  : DMRG
   Ulf Ekstrom                                   : XCFun DFT Library
   Mihaly Kallay                                 : mrcc  (arbitrary order and MRCC methods)
   Jiri Pittner, Ondrej Demel                    : Mk-CCSD
   Frank Weinhold                                : gennbo (NPA and NBO analysis)
   Christopher J. Cramer and Donald G. Truhlar   : smd solvation model
   Lars Goerigk                                  : TD-DFT with DH, B97 family of functionals
   V. Asgeirsson, H. Jonsson                     : NEB implementation
   FAccTs GmbH                                   : IRC, NEB, NEB-TS, DLPNO-Multilevel, CI-OPT
                                                   MM, QMMM, 2- and 3-layer-ONIOM, Crystal-QMMM,
                                                   LR-CPCM, SF, NACMEs, symmetry and pop. for TD-DFT,
                                                   nearIR, NL-DFT gradient (VV10), updates on ESD,
                                                   ML-optimized integration grids
   S Lehtola, MJT Oliveira, MAL Marques          : LibXC Library
   Liviu Ungur et al                             : ANISO software


 Your calculation uses the libint2 library for the computation of 2-el integrals
 For citations please refer to: http://libint.valeyev.net

 Your ORCA version has been built with support for libXC version: 5.1.0
 For citations please refer to: https://tddft.org/programs/libxc/

 This ORCA versions uses:
   CBLAS   interface :  Fast vector & matrix operations
   LAPACKE interface :  Fast linear algebra routines
   SCALAPACK package :  Parallel linear algebra routines
   Shared memory     :  Shared parallel matrices
   BLAS/LAPACK       :  OpenBLAS 0.3.15  USE64BITINT DYNAMIC_ARCH NO_AFFINITY Haswell SINGLE_THREADED
        Core in use  :  Haswell
   Copyright (c) 2011-2014, The OpenBLAS Project




***************************************
The coordinates will be read from file: D3.xyz
***************************************


Your calculation utilizes the atom-pairwise dispersion correction
with the Becke-Johnson damping scheme (D3BJ)
Cite in your paper:
S.Grimme, S.Ehrlich, L.Goerigk, J Comput Chem, (2011), 32, 1456–1465 
S.Grimme, J.Antony, S.Ehrlich and H.Krieg, J.Chem.Phys., 132, (2010), 154104 
   

================================================================================

----- Orbital basis set information -----
Your calculation utilizes the basis: def2-TZVPD
   F. Weigend and R. Ahlrichs, Phys. Chem. Chem. Phys. 7, 3297 (2005).
   D. Rappoport and F. Furche, J. Chem. Phys. 133 134105 (2010).

----- AuxJ basis set information -----
Your calculation utilizes the auxiliary basis: def2/J
   F. Weigend, Phys. Chem. Chem. Phys. 8, 1057 (2006).

================================================================================
                                        WARNINGS
                       Please study these warnings very carefully!
================================================================================


INFO   : the flag for use of the SHARK integral package has been found!

================================================================================
                                       INPUT FILE
================================================================================
NAME = 28Oct_TZVPD_B3LYP_D3_wb97.com
|  1> !B3LYP D3BJ RIJCOSX def2-TZVPD def2/J TightSCF xyzfile                                                                                         
|  2> 
|  3> *xyzfile 0 1 D3.xyz
|  4> 
|  5> %MaxCore 64000
|  6> 
|  7> %pal nprocs 4                                                                                                                                                  
|  8> end  
|  9> 
| 10> %scf
| 11>   MaxIter 150
| 12> end
| 13> 
| 14> 
| 15>                          ****END OF INPUT****
================================================================================

                       ****************************
                       * Single Point Calculation *
                       ****************************

---------------------------------
CARTESIAN COORDINATES (ANGSTROEM)
---------------------------------
  C      4.999862   -1.596133   -5.924876
  N      5.281560   -1.974132   -4.535764
  C      3.766779   -2.266110   -6.511752
  C      2.496702   -1.844161   -5.735704
  H      1.626416   -2.217434   -6.308950
  H      2.481824   -2.456069   -4.793414
  F      2.459729   -0.509204   -5.505757
  C      4.792500   -1.361316   -3.457295
  N      3.939898   -0.374925   -3.557359
  C      5.259860   -1.754224   -2.239133
  H      5.922824   -2.521451   -2.186720
  H      4.654678   -1.640404   -1.442016
  H      5.709139   -2.875599   -4.387021
  H      3.330101   -0.317639   -4.361247
  H      3.698494    0.114468   -2.708333
  H      4.843333   -0.517930   -5.943019
  H      5.901695   -1.822503   -6.496467
  H      3.886191   -3.357076   -6.533604
  H      3.685602   -1.922168   -7.547128

----------------------------
CARTESIAN COORDINATES (A.U.)
----------------------------
  NO LB      ZA    FRAG     MASS         X           Y           Z
   0 C     6.0000    0    12.011    9.448370   -3.016254  -11.196392
   1 N     7.0000    0    14.007    9.980702   -3.730569   -8.571352
   2 C     6.0000    0    12.011    7.118182   -4.282328  -12.305427
   3 C     6.0000    0    12.011    4.718083   -3.484959  -10.838910
   4 H     1.0000    0     1.008    3.073481   -4.190343  -11.922187
   5 H     1.0000    0     1.008    4.689968   -4.641298   -9.058240
   6 F     9.0000    0    18.998    4.648215   -0.962256  -10.404372
   7 C     6.0000    0    12.011    9.056513   -2.572515   -6.533342
   8 N     7.0000    0    14.007    7.445328   -0.708505   -6.722435
   9 C     6.0000    0    12.011    9.939695   -3.315002   -4.231347
  10 H     1.0000    0     1.008   11.192516   -4.764851   -4.132303
  11 H     1.0000    0     1.008    8.796068   -3.099915   -2.725015
  12 H     1.0000    0     1.008   10.788710   -5.434094   -8.290268
  13 H     1.0000    0     1.008    6.292979   -0.600251   -8.241562
  14 H     1.0000    0     1.008    6.989141    0.216313   -5.118007
  15 H     1.0000    0     1.008    9.152573   -0.978745  -11.230678
  16 H     1.0000    0     1.008   11.152587   -3.444032  -12.276543
  17 H     1.0000    0     1.008    7.343836   -6.343954  -12.346723
  18 H     1.0000    0     1.008    6.964779   -3.632371  -14.262004

--------------------------------
INTERNAL COORDINATES (ANGSTROEM)
--------------------------------
 C      0   0   0     0.000000000000     0.00000000     0.00000000
 N      1   0   0     1.466924750206     0.00000000     0.00000000
 C      1   2   0     1.521113392766   114.04966592     0.00000000
 C      3   1   2     1.547057623845   110.59998023    62.81935347
 H      4   3   1     1.106951293405   107.07946246   170.42764673
 H      4   3   1     1.123638308975   106.43986060   281.07966070
 F      4   3   1     1.355121078382   112.09872702    45.34055250
 C      2   1   3     1.333348078827   125.24467399   271.38349535
 N      8   2   1     1.307636083220   121.59795092     3.37727598
 C      8   2   1     1.362615791871   117.69499979   186.46452058
 H     10   8   2     1.015335410544   119.20847195   357.06926359
 H     10   8   2     1.007270659929   117.95742983   207.37687725
 H      2   1   3     1.008756832951   116.82720843    77.45319175
 H      9   8   2     1.010627998268   119.80461425    27.35380844
 H      9   8   2     1.009270616395   117.21652192   187.25441364
 H      1   2   3     1.089657123989   107.35707377   119.90290291
 H      1   2   3     1.091449785076   106.48738639   235.80944954
 H      3   1   2     1.097698899720   110.93119055   298.25137993
 H      3   1   2     1.094024376157   106.66748579   181.39979219

---------------------------
INTERNAL COORDINATES (A.U.)
---------------------------
 C      0   0   0     0.000000000000     0.00000000     0.00000000
 N      1   0   0     2.772086036961     0.00000000     0.00000000
 C      1   2   0     2.874487730967   114.04966592     0.00000000
 C      3   1   2     2.923515222463   110.59998023    62.81935347
 H      4   3   1     2.091834788125   107.07946246   170.42764673
 H      4   3   1     2.123368677545   106.43986060   281.07966070
 F      4   3   1     2.560807716446   112.09872702    45.34055250
 C      2   1   3     2.519662710174   125.24467399   271.38349535
 N      8   2   1     2.471074080119   121.59795092     3.37727598
 C      8   2   1     2.574970672393   117.69499979   186.46452058
 H     10   8   2     1.918705860000   119.20847195   357.06926359
 H     10   8   2     1.903465690000   117.95742983   207.37687725
 H      2   1   3     1.906274150000   116.82720843    77.45319175
 H      9   8   2     1.909810140000   119.80461425    27.35380844
 H      9   8   2     1.907245060000   117.21652192   187.25441364
 H      1   2   3     2.059153544216   107.35707377   119.90290291
 H      1   2   3     2.062541182722   106.48738639   235.80944954
 H      3   1   2     2.074350297978   110.93119055   298.25137993
 H      3   1   2     2.067406454771   106.66748579   181.39979219

---------------------
BASIS SET INFORMATION
---------------------
There are 4 groups of distinct atoms

 Group   1 Type C   : 12s6p3d1f contracted to 6s3p3d1f pattern {621111/411/111/1}
 Group   2 Type N   : 12s6p3d1f contracted to 6s3p3d1f pattern {621111/411/111/1}
 Group   3 Type H   : 5s2p contracted to 3s2p pattern {311/11}
 Group   4 Type F   : 12s7p3d1f contracted to 6s4p3d1f pattern {621111/4111/111/1}

Atom   0C    basis set group =>   1
Atom   1N    basis set group =>   2
Atom   2C    basis set group =>   1
Atom   3C    basis set group =>   1
Atom   4H    basis set group =>   3
Atom   5H    basis set group =>   3
Atom   6F    basis set group =>   4
Atom   7C    basis set group =>   1
Atom   8N    basis set group =>   2
Atom   9C    basis set group =>   1
Atom  10H    basis set group =>   3
Atom  11H    basis set group =>   3
Atom  12H    basis set group =>   3
Atom  13H    basis set group =>   3
Atom  14H    basis set group =>   3
Atom  15H    basis set group =>   3
Atom  16H    basis set group =>   3
Atom  17H    basis set group =>   3
Atom  18H    basis set group =>   3
---------------------------------
AUXILIARY/J BASIS SET INFORMATION
---------------------------------
There are 4 groups of distinct atoms

 Group   1 Type C   : 12s5p4d2f1g contracted to 6s4p3d1f1g pattern {711111/2111/211/2/1}
 Group   2 Type N   : 12s5p4d2f1g contracted to 6s4p3d1f1g pattern {711111/2111/211/2/1}
 Group   3 Type H   : 5s2p1d contracted to 3s1p1d pattern {311/2/1}
 Group   4 Type F   : 12s5p4d2f1g contracted to 6s4p3d1f1g pattern {711111/2111/211/2/1}

Atom   0C    basis set group =>   1
Atom   1N    basis set group =>   2
Atom   2C    basis set group =>   1
Atom   3C    basis set group =>   1
Atom   4H    basis set group =>   3
Atom   5H    basis set group =>   3
Atom   6F    basis set group =>   4
Atom   7C    basis set group =>   1
Atom   8N    basis set group =>   2
Atom   9C    basis set group =>   1
Atom  10H    basis set group =>   3
Atom  11H    basis set group =>   3
Atom  12H    basis set group =>   3
Atom  13H    basis set group =>   3
Atom  14H    basis set group =>   3
Atom  15H    basis set group =>   3
Atom  16H    basis set group =>   3
Atom  17H    basis set group =>   3
Atom  18H    basis set group =>   3


           ************************************************************
           *        Program running with 4 parallel MPI-processes     *
           *              working on a common directory               *
           ************************************************************
------------------------------------------------------------------------------
                           ORCA GTO INTEGRAL CALCULATION
                           -- RI-GTO INTEGRALS CHOSEN --
------------------------------------------------------------------------------
------------------------------------------------------------------------------
                   ___                                                        
                  /   \      - P O W E R E D   B Y -                         
                 /     \                                                     
                 |  |  |   _    _      __       _____    __    __             
                 |  |  |  | |  | |    /  \     |  _  \  |  |  /  |          
                  \  \/   | |  | |   /    \    | | | |  |  | /  /          
                 / \  \   | |__| |  /  /\  \   | |_| |  |  |/  /          
                |  |  |   |  __  | /  /__\  \  |    /   |      \           
                |  |  |   | |  | | |   __   |  |    \   |  |\   \          
                \     /   | |  | | |  |  |  |  | |\  \  |  | \   \       
                 \___/    |_|  |_| |__|  |__|  |_| \__\ |__|  \__/        
                                                                              
                      - O R C A' S   B I G   F R I E N D -                    
                                      &                                       
                       - I N T E G R A L  F E E D E R -                       
                                                                              
 v1 FN, 2020, v2 2021                                                         
------------------------------------------------------------------------------


Reading SHARK input file 28Oct_TZVPD_B3LYP_D3_wb97.SHARKINP.tmp ... ok
----------------------
SHARK INTEGRAL PACKAGE
----------------------

Number of atoms                             ...     19
Number of basis functions                   ...    398
Number of shells                            ...    160
Maximum angular momentum                    ...      3
Integral batch strategy                     ... SHARK/LIBINT Hybrid
RI-J (if used) integral strategy            ... SPLIT-RIJ (Revised 2003 algorithm where possible)
Printlevel                                  ...      1
Contraction scheme used                     ... SEGMENTED contraction
Coulomb Range Separation                    ... NOT USED
Exchange Range Separation                   ... NOT USED
Finite Nucleus Model                        ... NOT USED
Auxiliary Coulomb fitting basis             ... AVAILABLE
   # of basis functions in Aux-J            ...    513
   # of shells in Aux-J                     ...    175
   Maximum angular momentum in Aux-J        ...      4
Auxiliary J/K fitting basis                 ... NOT available
Auxiliary Correlation fitting basis         ... NOT available
Auxiliary 'external' fitting basis          ... NOT available
Integral threshold                          ...     2.500000e-11
Primitive cut-off                           ...     2.500000e-12
Primitive pair pre-selection threshold      ...     2.500000e-12

Calculating pre-screening integrals         ... done (  0.1 sec) Dimension = 160
Organizing shell pair data                  ... done (  0.1 sec)
Shell pair information
Total number of shell pairs                 ...     12880
Shell pairs after pre-screening             ...     12206
Total number of primitive shell pairs       ...     32594
Primitive shell pairs kept                  ...     24681
          la=0 lb=0:   3036 shell pairs
          la=1 lb=0:   3626 shell pairs
          la=1 lb=1:   1101 shell pairs
          la=2 lb=0:   1855 shell pairs
          la=2 lb=1:   1101 shell pairs
          la=2 lb=2:    295 shell pairs
          la=3 lb=0:    601 shell pairs
          la=3 lb=1:    367 shell pairs
          la=3 lb=2:    189 shell pairs
          la=3 lb=3:     35 shell pairs

Calculating one electron integrals          ... done (  0.0 sec)
Calculating RI/J V-Matrix + Cholesky decomp.... done (  0.0 sec)
Calculating Nuclear repulsion               ... done (  0.0 sec) ENN=    415.014907056432 Eh

SHARK setup successfully completed in   0.4 seconds

Maximum memory used throughout the entire GTOINT-calculation: 19.8 MB


           ************************************************************
           *        Program running with 4 parallel MPI-processes     *
           *              working on a common directory               *
           ************************************************************
-------------------------------------------------------------------------------
                                 ORCA SCF
-------------------------------------------------------------------------------

------------
SCF SETTINGS
------------
Hamiltonian:
 Density Functional     Method          .... DFT(GTOs)
 Exchange Functional    Exchange        .... B88
   X-Alpha parameter    XAlpha          ....  0.666667
   Becke's b parameter  XBeta           ....  0.004200
 Correlation Functional Correlation     .... LYP
 LDA part of GGA corr.  LDAOpt          .... VWN-5
 Gradients option       PostSCFGGA      .... off
 Hybrid DFT is turned on
   Fraction HF Exchange ScalHFX         ....  0.200000
   Scaling of DF-GGA-X  ScalDFX         ....  0.720000
   Scaling of DF-GGA-C  ScalDFC         ....  0.810000
   Scaling of DF-LDA-C  ScalLDAC        ....  1.000000
   Perturbative correction              ....  0.000000
   Density functional embedding theory  .... OFF
   NL short-range parameter             ....  4.800000
 RI-approximation to the Coulomb term is turned on
   Number of AuxJ basis functions       .... 513
   RIJ-COSX (HFX calculated with COS-X)).... on


General Settings:
 Integral files         IntName         .... 28Oct_TZVPD_B3LYP_D3_wb97
 Hartree-Fock type      HFTyp           .... RHF
 Total Charge           Charge          ....    0
 Multiplicity           Mult            ....    1
 Number of Electrons    NEL             ....   64
 Basis Dimension        Dim             ....  398
 Nuclear Repulsion      ENuc            ....    415.0149070564 Eh

Convergence Acceleration:
 DIIS                   CNVDIIS         .... on
   Start iteration      DIISMaxIt       ....    12
   Startup error        DIISStart       ....  0.200000
   # of expansion vecs  DIISMaxEq       ....     5
   Bias factor          DIISBfac        ....   1.050
   Max. coefficient     DIISMaxC        ....  10.000
 Trust-Rad. Augm. Hess. CNVTRAH         .... auto
   Auto Start mean grad. ratio tolernc. ....  1.125000
   Auto Start start iteration           ....    20
   Auto Start num. interpolation iter.  ....    10
   Max. Number of Micro iterations      ....    16
   Max. Number of Macro iterations      .... Maxiter - #DIIS iter
   Number of Davidson start vectors     ....     2
   Converg. threshold I  (grad. norm)   ....   1.000e-05
   Converg. threshold II (energy diff.) ....   1.000e-08
   Grad. Scal. Fac. for Micro threshold ....   0.100
   Minimum threshold for Micro iter.    ....   0.010
   NR start threshold (gradient norm)   ....   0.001
   Initial trust radius                 ....   0.400
   Minimum AH scaling param. (alpha)    ....   1.000
   Maximum AH scaling param. (alpha)    .... 1000.000
   Orbital update algorithm             .... Taylor
   White noise on init. David. guess    .... on
   Maximum white noise                  ....   0.010
   Quad. conv. algorithm                .... NR
 SOSCF                  CNVSOSCF        .... on
   Start iteration      SOSCFMaxIt      ....   150
   Startup grad/error   SOSCFStart      ....  0.003300
 Level Shifting         CNVShift        .... on
   Level shift para.    LevelShift      ....    0.2500
   Turn off err/grad.   ShiftErr        ....    0.0010
 Zerner damping         CNVZerner       .... off
 Static damping         CNVDamp         .... on
   Fraction old density DampFac         ....    0.7000
   Max. Damping (<1)    DampMax         ....    0.9800
   Min. Damping (>=0)   DampMin         ....    0.0000
   Turn off err/grad.   DampErr         ....    0.1000
 Fernandez-Rico         CNVRico         .... off

SCF Procedure:
 Maximum # iterations   MaxIter         ....   150
 SCF integral mode      SCFMode         .... Direct
   Integral package                     .... SHARK and LIBINT hybrid scheme
 Reset frequency        DirectResetFreq ....    20
 Integral Threshold     Thresh          ....  2.500e-11 Eh
 Primitive CutOff       TCut            ....  2.500e-12 Eh

Convergence Tolerance:
 Convergence Check Mode ConvCheckMode   .... Total+1el-Energy
 Convergence forced     ConvForced      .... 0
 Energy Change          TolE            ....  1.000e-08 Eh
 1-El. energy change                    ....  1.000e-05 Eh
 Orbital Gradient       TolG            ....  1.000e-05
 Orbital Rotation angle TolX            ....  1.000e-05
 DIIS Error             TolErr          ....  5.000e-07


Diagonalization of the overlap matrix:
Smallest eigenvalue                        ... 4.392e-06
Time for diagonalization                   ...    0.037 sec
Threshold for overlap eigenvalues          ... 1.000e-08
Number of eigenvalues below threshold      ... 0
Time for construction of square roots      ...    0.027 sec
Total time needed                          ...    0.065 sec

Time for model grid setup =    0.195 sec

------------------------------
INITIAL GUESS: MODEL POTENTIAL
------------------------------
Loading Hartree-Fock densities                     ... done
Calculating cut-offs                               ... done
Initializing the effective Hamiltonian             ... done
Setting up the integral package (SHARK)            ... done
Starting the Coulomb interaction                   ... done (   0.2 sec)
Reading the grid                                   ... done
Mapping shells                                     ... done
Starting the XC term evaluation                    ... done (   0.3 sec)
  promolecular density results
     # of electrons  =     63.991458938
     EX              =    -52.294707500
     EC              =     -2.168320653
     EX+EC           =    -54.463028153
Transforming the Hamiltonian                       ... done (   0.0 sec)
Diagonalizing the Hamiltonian                      ... done (   0.0 sec)
Back transforming the eigenvectors                 ... done (   0.0 sec)
Now organizing SCF variables                       ... done
                      ------------------
                      INITIAL GUESS DONE (   0.8 sec)
                      ------------------
-------------------
DFT GRID GENERATION
-------------------

General Integration Accuracy     IntAcc      ... 4.388
Radial Grid Type                 RadialGrid  ... OptM3 with GC (2021)
Angular Grid (max. ang.)         AngularGrid ... 4 (Lebedev-302)
Angular grid pruning method      GridPruning ... 4 (adaptive)
Weight generation scheme         WeightScheme... Becke
Basis function cutoff            BFCut       ... 1.0000e-11
Integration weight cutoff        WCut        ... 1.0000e-14
Angular grids for H and He will be reduced by one unit
Partially contracted basis set               ... off
Rotationally invariant grid construction     ... off

Total number of grid points                  ...    87369
Total number of batches                      ...     1375
Average number of points per batch           ...       63
Average number of grid points per atom       ...     4598
Time for grid setup =    0.693 sec

--------------------
COSX GRID GENERATION
--------------------

GRIDX 1
-------
General Integration Accuracy     IntAcc      ... 3.816
Radial Grid Type                 RadialGrid  ... OptM3 with GC (2021)
Angular Grid (max. ang.)         AngularGrid ... 1 (Lebedev-50)
Angular grid pruning method      GridPruning ... 4 (adaptive)
Weight generation scheme         WeightScheme... Becke
Basis function cutoff            BFCut       ... 1.0000e-11
Integration weight cutoff        WCut        ... 1.0000e-14
Angular grids for H and He will be reduced by one unit
Partially contracted basis set               ... on
Rotationally invariant grid construction     ... off

Total number of grid points                  ...    10941
Total number of batches                      ...      180
Average number of points per batch           ...       60
Average number of grid points per atom       ...      576
UseSFitting                                  ... on

GRIDX 2
-------
General Integration Accuracy     IntAcc      ... 4.020
Radial Grid Type                 RadialGrid  ... OptM3 with GC (2021)
Angular Grid (max. ang.)         AngularGrid ... 2 (Lebedev-110)
Angular grid pruning method      GridPruning ... 4 (adaptive)
Weight generation scheme         WeightScheme... Becke
Basis function cutoff            BFCut       ... 1.0000e-11
Integration weight cutoff        WCut        ... 1.0000e-14
Angular grids for H and He will be reduced by one unit
Partially contracted basis set               ... on
Rotationally invariant grid construction     ... off

Total number of grid points                  ...    25820
Total number of batches                      ...      412
Average number of points per batch           ...       62
Average number of grid points per atom       ...     1359
UseSFitting                                  ... on

GRIDX 3
-------
General Integration Accuracy     IntAcc      ... 4.338
Radial Grid Type                 RadialGrid  ... OptM3 with GC (2021)
Angular Grid (max. ang.)         AngularGrid ... 3 (Lebedev-194)
Angular grid pruning method      GridPruning ... 4 (adaptive)
Weight generation scheme         WeightScheme... Becke
Basis function cutoff            BFCut       ... 1.0000e-11
Integration weight cutoff        WCut        ... 1.0000e-14
Angular grids for H and He will be reduced by one unit
Partially contracted basis set               ... on
Rotationally invariant grid construction     ... off

Total number of grid points                  ...    57634
Total number of batches                      ...      913
Average number of points per batch           ...       63
Average number of grid points per atom       ...     3033
UseSFitting                                  ... on

Time for X-Grid setup             =    1.001 sec

--------------
SCF ITERATIONS
--------------
ITER       Energy         Delta-E        Max-DP      RMS-DP      [F,P]     Damp
               ***  Starting incremental Fock matrix formation  ***
  0   -406.0253563460   0.000000000000 0.10540833  0.00170615  0.2708545 0.7000
  1   -406.1835040478  -0.158147701806 0.07132013  0.00149979  0.1399747 0.7000
                               ***Turning on DIIS***
  2   -406.2475680660  -0.064064018239 0.16409926  0.00325202  0.0491465 0.0000
  3   -406.3360828119  -0.088514745915 0.06753768  0.00099459  0.0871564 0.0000
  4   -406.3632655330  -0.027182721099 0.03701702  0.00056830  0.0177842 0.0000
  5   -406.3646041887  -0.001338655625 0.01971264  0.00031518  0.0052752 0.0000
                      *** Initiating the SOSCF procedure ***
                           *** Shutting down DIIS ***
                      *** Re-Reading the Fockian *** 
                      *** Removing any level shift *** 
ITER      Energy       Delta-E        Grad      Rot      Max-DP    RMS-DP
  6   -406.36472506  -0.0001208700  0.000554  0.000554  0.010759  0.000162
               *** Restarting incremental Fock matrix formation ***
  7   -406.36476443  -0.0000393710  0.000191  0.001093  0.007173  0.000146
  8   -406.36476740  -0.0000029728  0.000065  0.000305  0.002132  0.000041
  9   -406.36476757  -0.0000001676  0.000049  0.000186  0.001460  0.000029
 10   -406.36476793  -0.0000003604  0.000009  0.000021  0.000536  0.000005
 11   -406.36476793  -0.0000000013  0.000007  0.000018  0.000339  0.000003
                  ***Gradient check signals convergence***
              ***Rediagonalizing the Fockian in SOSCF/NRSCF***

               *****************************************************
               *                     SUCCESS                       *
               *           SCF CONVERGED AFTER  12 CYCLES          *
               *****************************************************

Old exchange energy                            =    -10.659832740 Eh
New exchange energy                            =    -10.659838582 Eh
Exchange energy change after final integration =     -0.000005842 Eh
Total energy after final integration           =   -406.364773785 Eh
Final COS-X integration done in                =    13.590 sec

----------------
TOTAL SCF ENERGY
----------------

Total Energy       :         -406.36477379 Eh          -11057.74766 eV

Components:
Nuclear Repulsion  :          415.01490706 Eh           11293.12975 eV
Electronic Energy  :         -821.37968084 Eh          -22350.87741 eV
One Electron Energy:        -1375.88610248 Eh          -37439.76425 eV
Two Electron Energy:          554.50642164 Eh           15088.88684 eV
Max COSX asymmetry :            0.00000168 Eh               0.00005 eV

Virial components:
Potential Energy   :         -811.63930934 Eh          -22085.82843 eV
Kinetic Energy     :          405.27453556 Eh           11028.08077 eV
Virial Ratio       :            2.00269012


DFT components:
N(Alpha)           :       32.000054891413 electrons
N(Beta)            :       32.000054891413 electrons
N(Total)           :       64.000109782826 electrons
E(X)               :      -42.345265156765 Eh       
E(C)               :       -2.557916664240 Eh       
E(XC)              :      -44.903181821005 Eh       
DFET-embed. en.    :        0.000000000000 Eh       

---------------
SCF CONVERGENCE
---------------

  Last Energy change         ...   -1.1016e-08  Tolerance :   1.0000e-08
  Last MAX-Density change    ...    1.3323e-15  Tolerance :   1.0000e-07
  Last RMS-Density change    ...    1.3488e-17  Tolerance :   5.0000e-09
  Last Orbital Gradient      ...    1.8989e-06  Tolerance :   1.0000e-05
  Last Orbital Rotation      ...    7.2657e-06  Tolerance :   1.0000e-05

             **** THE GBW FILE WAS UPDATED (28Oct_TZVPD_B3LYP_D3_wb97.gbw) ****
             **** DENSITY 28Oct_TZVPD_B3LYP_D3_wb97.scfp WAS UPDATED ****
             **** ENERGY FILE WAS UPDATED (28Oct_TZVPD_B3LYP_D3_wb97.en.tmp) ****
             **** THE GBW FILE WAS UPDATED (28Oct_TZVPD_B3LYP_D3_wb97.gbw) ****
             **** DENSITY 28Oct_TZVPD_B3LYP_D3_wb97.scfp WAS UPDATED ****
----------------
ORBITAL ENERGIES
----------------

  NO   OCC          E(Eh)            E(eV) 
   0   2.0000     -24.718605      -672.6274 
   1   2.0000     -14.314864      -389.5272 
   2   2.0000     -14.290335      -388.8598 
   3   2.0000     -10.270753      -279.4814 
   4   2.0000     -10.210586      -277.8442 
   5   2.0000     -10.207363      -277.7565 
   6   2.0000     -10.190881      -277.3080 
   7   2.0000     -10.069144      -273.9953 
   8   2.0000      -1.262085       -34.3431 
   9   2.0000      -0.963562       -26.2199 
  10   2.0000      -0.881628       -23.9903 
  11   2.0000      -0.799723       -21.7616 
  12   2.0000      -0.728876       -19.8337 
  13   2.0000      -0.671854       -18.2821 
  14   2.0000      -0.621395       -16.9090 
  15   2.0000      -0.596845       -16.2410 
  16   2.0000      -0.575541       -15.6613 
  17   2.0000      -0.546185       -14.8624 
  18   2.0000      -0.516472       -14.0539 
  19   2.0000      -0.504169       -13.7191 
  20   2.0000      -0.474423       -12.9097 
  21   2.0000      -0.471222       -12.8226 
  22   2.0000      -0.436786       -11.8855 
  23   2.0000      -0.426675       -11.6104 
  24   2.0000      -0.389046       -10.5865 
  25   2.0000      -0.381118       -10.3708 
  26   2.0000      -0.372525       -10.1369 
  27   2.0000      -0.357532        -9.7289 
  28   2.0000      -0.346906        -9.4398 
  29   2.0000      -0.340626        -9.2689 
  30   2.0000      -0.248645        -6.7660 
  31   2.0000      -0.151998        -4.1361 
  32   0.0000      -0.005198        -0.1414 
  33   0.0000       0.017500         0.4762 
  34   0.0000       0.021064         0.5732 
  35   0.0000       0.023788         0.6473 
  36   0.0000       0.048993         1.3332 
  37   0.0000       0.051831         1.4104 
  38   0.0000       0.055919         1.5216 
  39   0.0000       0.059006         1.6056 
  40   0.0000       0.067726         1.8429 
  41   0.0000       0.079279         2.1573 
  42   0.0000       0.089761         2.4425 
  43   0.0000       0.100245         2.7278 
  44   0.0000       0.102267         2.7828 
  45   0.0000       0.118042         3.2121 
  46   0.0000       0.119353         3.2478 
  47   0.0000       0.130406         3.5485 
  48   0.0000       0.134745         3.6666 
  49   0.0000       0.142165         3.8685 
  50   0.0000       0.149928         4.0798 
  51   0.0000       0.152776         4.1572 
  52   0.0000       0.162366         4.4182 
  53   0.0000       0.169232         4.6051 
  54   0.0000       0.182392         4.9632 
  55   0.0000       0.185770         5.0550 
  56   0.0000       0.188951         5.1416 
  57   0.0000       0.199747         5.4354 
  58   0.0000       0.203676         5.5423 
  59   0.0000       0.206214         5.6114 
  60   0.0000       0.213567         5.8115 
  61   0.0000       0.219638         5.9767 
  62   0.0000       0.227758         6.1976 
  63   0.0000       0.234017         6.3679 
  64   0.0000       0.234432         6.3792 
  65   0.0000       0.239847         6.5266 
  66   0.0000       0.241919         6.5830 
  67   0.0000       0.251983         6.8568 
  68   0.0000       0.255060         6.9405 
  69   0.0000       0.261898         7.1266 
  70   0.0000       0.265971         7.2374 
  71   0.0000       0.271446         7.3864 
  72   0.0000       0.278601         7.5811 
  73   0.0000       0.282207         7.6792 
  74   0.0000       0.288571         7.8524 
  75   0.0000       0.291500         7.9321 
  76   0.0000       0.296433         8.0664 
  77   0.0000       0.302327         8.2267 
  78   0.0000       0.303893         8.2694 
  79   0.0000       0.314553         8.5594 
  80   0.0000       0.318635         8.6705 
  81   0.0000       0.320976         8.7342 
  82   0.0000       0.325798         8.8654 
  83   0.0000       0.330362         8.9896 
  84   0.0000       0.339367         9.2346 
  85   0.0000       0.348381         9.4799 
  86   0.0000       0.351511         9.5651 
  87   0.0000       0.358356         9.7514 
  88   0.0000       0.363005         9.8779 
  89   0.0000       0.372491        10.1360 
  90   0.0000       0.376494        10.2449 
  91   0.0000       0.378442        10.2979 
  92   0.0000       0.385191        10.4816 
  93   0.0000       0.391996        10.6668 
  94   0.0000       0.395879        10.7724 
  95   0.0000       0.401577        10.9275 
  96   0.0000       0.408975        11.1288 
  97   0.0000       0.414979        11.2921 
  98   0.0000       0.417623        11.3641 
  99   0.0000       0.420269        11.4361 
 100   0.0000       0.430214        11.7067 
 101   0.0000       0.433732        11.8025 
 102   0.0000       0.442595        12.0436 
 103   0.0000       0.446099        12.1390 
 104   0.0000       0.450662        12.2631 
 105   0.0000       0.458489        12.4761 
 106   0.0000       0.467026        12.7084 
 107   0.0000       0.472370        12.8538 
 108   0.0000       0.477255        12.9868 
 109   0.0000       0.483508        13.1569 
 110   0.0000       0.493493        13.4286 
 111   0.0000       0.493532        13.4297 
 112   0.0000       0.499918        13.6035 
 113   0.0000       0.507249        13.8029 
 114   0.0000       0.515173        14.0186 
 115   0.0000       0.515673        14.0322 
 116   0.0000       0.523468        14.2443 
 117   0.0000       0.528572        14.3832 
 118   0.0000       0.538476        14.6527 
 119   0.0000       0.545964        14.8564 
 120   0.0000       0.554722        15.0948 
 121   0.0000       0.557669        15.1749 
 122   0.0000       0.569165        15.4878 
 123   0.0000       0.574529        15.6337 
 124   0.0000       0.594133        16.1672 
 125   0.0000       0.596334        16.2271 
 126   0.0000       0.603238        16.4149 
 127   0.0000       0.625377        17.0174 
 128   0.0000       0.628433        17.1005 
 129   0.0000       0.631177        17.1752 
 130   0.0000       0.636307        17.3148 
 131   0.0000       0.641339        17.4517 
 132   0.0000       0.646763        17.5993 
 133   0.0000       0.654240        17.8028 
 134   0.0000       0.661622        18.0036 
 135   0.0000       0.668830        18.1998 
 136   0.0000       0.676658        18.4128 
 137   0.0000       0.683950        18.6112 
 138   0.0000       0.684890        18.6368 
 139   0.0000       0.695035        18.9129 
 140   0.0000       0.699961        19.0469 
 141   0.0000       0.708337        19.2748 
 142   0.0000       0.712409        19.3856 
 143   0.0000       0.721724        19.6391 
 144   0.0000       0.732568        19.9342 
 145   0.0000       0.739239        20.1157 
 146   0.0000       0.750339        20.4178 
 147   0.0000       0.762199        20.7405 
 148   0.0000       0.768071        20.9003 
 149   0.0000       0.775004        21.0889 
 150   0.0000       0.781699        21.2711 
 151   0.0000       0.786584        21.4040 
 152   0.0000       0.797531        21.7019 
 153   0.0000       0.811399        22.0793 
 154   0.0000       0.814011        22.1504 
 155   0.0000       0.826018        22.4771 
 156   0.0000       0.832654        22.6577 
 157   0.0000       0.840519        22.8717 
 158   0.0000       0.849313        23.1110 
 159   0.0000       0.862854        23.4794 
 160   0.0000       0.880050        23.9474 
 161   0.0000       0.883151        24.0318 
 162   0.0000       0.911477        24.8025 
 163   0.0000       0.925357        25.1802 
 164   0.0000       0.931596        25.3500 
 165   0.0000       0.952685        25.9239 
 166   0.0000       0.970985        26.4218 
 167   0.0000       0.975847        26.5541 
 168   0.0000       0.985597        26.8195 
 169   0.0000       0.998759        27.1776 
 170   0.0000       1.009895        27.4806 
 171   0.0000       1.015408        27.6306 
 172   0.0000       1.046607        28.4796 
 173   0.0000       1.065359        28.9899 
 174   0.0000       1.081835        29.4382 
 175   0.0000       1.087082        29.5810 
 176   0.0000       1.103969        30.0405 
 177   0.0000       1.105333        30.0776 
 178   0.0000       1.131983        30.8028 
 179   0.0000       1.154577        31.4176 
 180   0.0000       1.167680        31.7742 
 181   0.0000       1.184100        32.2210 
 182   0.0000       1.188542        32.3419 
 183   0.0000       1.203517        32.7494 
 184   0.0000       1.214143        33.0385 
 185   0.0000       1.231092        33.4997 
 186   0.0000       1.248146        33.9638 
 187   0.0000       1.256113        34.1806 
 188   0.0000       1.277502        34.7626 
 189   0.0000       1.299836        35.3703 
 190   0.0000       1.312568        35.7168 
 191   0.0000       1.326646        36.0999 
 192   0.0000       1.340327        36.4721 
 193   0.0000       1.357240        36.9324 
 194   0.0000       1.370011        37.2799 
 195   0.0000       1.377774        37.4911 
 196   0.0000       1.407352        38.2960 
 197   0.0000       1.427051        38.8320 
 198   0.0000       1.438977        39.1565 
 199   0.0000       1.450446        39.4686 
 200   0.0000       1.484307        40.3900 
 201   0.0000       1.502218        40.8774 
 202   0.0000       1.560575        42.4654 
 203   0.0000       1.582547        43.0633 
 204   0.0000       1.586894        43.1816 
 205   0.0000       1.624024        44.1919 
 206   0.0000       1.678312        45.6692 
 207   0.0000       1.714210        46.6460 
 208   0.0000       1.740346        47.3572 
 209   0.0000       1.759788        47.8863 
 210   0.0000       1.786102        48.6023 
 211   0.0000       1.794746        48.8375 
 212   0.0000       1.800927        49.0057 
 213   0.0000       1.818339        49.4795 
 214   0.0000       1.824170        49.6382 
 215   0.0000       1.841144        50.1001 
 216   0.0000       1.849460        50.3264 
 217   0.0000       1.865423        50.7607 
 218   0.0000       1.876035        51.0495 
 219   0.0000       1.881450        51.1969 
 220   0.0000       1.888648        51.3927 
 221   0.0000       1.919250        52.2255 
 222   0.0000       1.923927        52.3527 
 223   0.0000       1.935755        52.6746 
 224   0.0000       1.962030        53.3895 
 225   0.0000       1.977356        53.8066 
 226   0.0000       1.980537        53.8932 
 227   0.0000       2.000859        54.4462 
 228   0.0000       2.025914        55.1279 
 229   0.0000       2.030684        55.2577 
 230   0.0000       2.049882        55.7801 
 231   0.0000       2.064387        56.1748 
 232   0.0000       2.089765        56.8654 
 233   0.0000       2.109114        57.3919 
 234   0.0000       2.128817        57.9280 
 235   0.0000       2.152966        58.5852 
 236   0.0000       2.163844        58.8812 
 237   0.0000       2.186616        59.5009 
 238   0.0000       2.200615        59.8818 
 239   0.0000       2.241263        60.9879 
 240   0.0000       2.248513        61.1851 
 241   0.0000       2.280054        62.0434 
 242   0.0000       2.293788        62.4172 
 243   0.0000       2.324827        63.2617 
 244   0.0000       2.332311        63.4654 
 245   0.0000       2.352831        64.0238 
 246   0.0000       2.365886        64.3790 
 247   0.0000       2.397154        65.2299 
 248   0.0000       2.415691        65.7343 
 249   0.0000       2.452692        66.7412 
 250   0.0000       2.463212        67.0274 
 251   0.0000       2.466763        67.1240 
 252   0.0000       2.494348        67.8747 
 253   0.0000       2.531000        68.8720 
 254   0.0000       2.551534        69.4308 
 255   0.0000       2.590648        70.4951 
 256   0.0000       2.602264        70.8112 
 257   0.0000       2.612465        71.0888 
 258   0.0000       2.623664        71.3935 
 259   0.0000       2.648724        72.0754 
 260   0.0000       2.669851        72.6503 
 261   0.0000       2.676449        72.8299 
 262   0.0000       2.685147        73.0666 
 263   0.0000       2.691841        73.2487 
 264   0.0000       2.703733        73.5723 
 265   0.0000       2.716032        73.9070 
 266   0.0000       2.733444        74.3808 
 267   0.0000       2.742316        74.6222 
 268   0.0000       2.748238        74.7833 
 269   0.0000       2.771895        75.4271 
 270   0.0000       2.798342        76.1468 
 271   0.0000       2.810428        76.4756 
 272   0.0000       2.829355        76.9907 
 273   0.0000       2.850465        77.5651 
 274   0.0000       2.863360        77.9160 
 275   0.0000       2.883832        78.4731 
 276   0.0000       2.896205        78.8097 
 277   0.0000       2.918650        79.4205 
 278   0.0000       2.951046        80.3020 
 279   0.0000       2.962581        80.6159 
 280   0.0000       2.991251        81.3961 
 281   0.0000       3.010038        81.9073 
 282   0.0000       3.017175        82.1015 
 283   0.0000       3.056162        83.1624 
 284   0.0000       3.072713        83.6128 
 285   0.0000       3.089027        84.0567 
 286   0.0000       3.112936        84.7073 
 287   0.0000       3.143406        85.5364 
 288   0.0000       3.173578        86.3574 
 289   0.0000       3.183825        86.6363 
 290   0.0000       3.237581        88.0991 
 291   0.0000       3.249593        88.4259 
 292   0.0000       3.270145        88.9852 
 293   0.0000       3.279772        89.2471 
 294   0.0000       3.294117        89.6375 
 295   0.0000       3.322161        90.4006 
 296   0.0000       3.335041        90.7511 
 297   0.0000       3.339017        90.8593 
 298   0.0000       3.340727        90.9058 
 299   0.0000       3.348578        91.1194 
 300   0.0000       3.356260        91.3285 
 301   0.0000       3.392141        92.3048 
 302   0.0000       3.398873        92.4880 
 303   0.0000       3.400988        92.5456 
 304   0.0000       3.415105        92.9297 
 305   0.0000       3.427771        93.2744 
 306   0.0000       3.435845        93.4941 
 307   0.0000       3.470424        94.4350 
 308   0.0000       3.491991        95.0219 
 309   0.0000       3.506209        95.4088 
 310   0.0000       3.515034        95.6489 
 311   0.0000       3.542243        96.3893 
 312   0.0000       3.547861        96.5422 
 313   0.0000       3.568246        97.0969 
 314   0.0000       3.599768        97.9547 
 315   0.0000       3.622331        98.5686 
 316   0.0000       3.638599        99.0113 
 317   0.0000       3.661305        99.6292 
 318   0.0000       3.684590       100.2628 
 319   0.0000       3.706836       100.8681 
 320   0.0000       3.724221       101.3412 
 321   0.0000       3.775240       102.7295 
 322   0.0000       3.823981       104.0558 
 323   0.0000       3.875745       105.4644 
 324   0.0000       3.886371       105.7535 
 325   0.0000       3.923288       106.7581 
 326   0.0000       3.929384       106.9240 
 327   0.0000       3.940074       107.2149 
 328   0.0000       3.962087       107.8139 
 329   0.0000       4.008339       109.0725 
 330   0.0000       4.016676       109.2993 
 331   0.0000       4.027903       109.6048 
 332   0.0000       4.064647       110.6047 
 333   0.0000       4.104559       111.6907 
 334   0.0000       4.137287       112.5813 
 335   0.0000       4.171071       113.5006 
 336   0.0000       4.200271       114.2952 
 337   0.0000       4.240212       115.3820 
 338   0.0000       4.286921       116.6531 
 339   0.0000       4.297045       116.9285 
 340   0.0000       4.339624       118.0872 
 341   0.0000       4.387956       119.4024 
 342   0.0000       4.408467       119.9605 
 343   0.0000       4.452792       121.1666 
 344   0.0000       4.481523       121.9484 
 345   0.0000       4.538455       123.4977 
 346   0.0000       4.559117       124.0599 
 347   0.0000       4.622228       125.7772 
 348   0.0000       4.630823       126.0111 
 349   0.0000       4.672064       127.1333 
 350   0.0000       4.724927       128.5718 
 351   0.0000       4.742966       129.0627 
 352   0.0000       4.799687       130.6061 
 353   0.0000       4.847052       131.8950 
 354   0.0000       4.903645       133.4350 
 355   0.0000       4.926480       134.0563 
 356   0.0000       4.948229       134.6482 
 357   0.0000       4.992164       135.8437 
 358   0.0000       5.022143       136.6595 
 359   0.0000       5.091499       138.5467 
 360   0.0000       5.137855       139.8082 
 361   0.0000       5.177251       140.8802 
 362   0.0000       5.209773       141.7651 
 363   0.0000       5.277808       143.6164 
 364   0.0000       5.327037       144.9560 
 365   0.0000       5.375622       146.2781 
 366   0.0000       5.458791       148.5413 
 367   0.0000       5.472799       148.9224 
 368   0.0000       5.492317       149.4535 
 369   0.0000       5.525269       150.3502 
 370   0.0000       5.598747       152.3496 
 371   0.0000       5.627468       153.1312 
 372   0.0000       5.666735       154.1997 
 373   0.0000       5.721815       155.6985 
 374   0.0000       5.892346       160.3389 
 375   0.0000       6.026746       163.9961 
 376   0.0000       6.242991       169.8804 
 377   0.0000       6.301535       171.4735 
 378   0.0000       6.868512       186.9017 
 379   0.0000       6.942540       188.9161 
 380   0.0000       6.957258       189.3166 
 381   0.0000       7.122681       193.8180 
 382   0.0000       7.303739       198.7448 
 383   0.0000       7.322120       199.2450 
 384   0.0000       7.462412       203.0625 
 385   0.0000       8.573128       233.2867 
 386   0.0000       8.699895       236.7362 
 387   0.0000       8.824030       240.1141 
 388   0.0000       8.926801       242.9106 
 389   0.0000       9.312229       253.3986 
 390   0.0000      22.626680       615.7033 
 391   0.0000      22.650097       616.3405 
 392   0.0000      22.772402       619.6686 
 393   0.0000      22.852633       621.8518 
 394   0.0000      23.598453       642.1465 
 395   0.0000      32.488461       884.0560 
 396   0.0000      32.872619       894.5094 
 397   0.0000      57.729627      1570.9030 

                    ********************************
                    * MULLIKEN POPULATION ANALYSIS *
                    ********************************

-----------------------
MULLIKEN ATOMIC CHARGES
-----------------------
   0 C :   -0.520708
   1 N :   -0.170761
   2 C :   -0.297278
   3 C :   -0.241418
   4 H :    0.250470
   5 H :    0.246524
   6 F :   -0.388035
   7 C :    0.507419
   8 N :   -0.351581
   9 C :   -1.221375
  10 H :    0.279618
  11 H :    0.265944
  12 H :    0.168403
  13 H :    0.334069
  14 H :    0.134933
  15 H :    0.297617
  16 H :    0.248316
  17 H :    0.227605
  18 H :    0.230238
Sum of atomic charges:   -0.0000000

--------------------------------
MULLIKEN REDUCED ORBITAL CHARGES
--------------------------------
  0 C s       :     3.547057  s :     3.547057
      pz      :     0.836628  p :     2.930506
      px      :     0.961837
      py      :     1.132041
      dz2     :     0.015459  d :     0.034794
      dxz     :     0.040692
      dyz     :    -0.001864
      dx2y2   :    -0.002233
      dxy     :    -0.017260
      f0      :     0.001784  f :     0.008352
      f+1     :     0.001958
      f-1     :     0.001564
      f+2     :     0.000836
      f-2     :     0.000662
      f+3     :     0.000766
      f-3     :     0.000782
  1 N s       :     3.419686  s :     3.419686
      pz      :     0.882904  p :     3.611918
      px      :     1.546779
      py      :     1.182236
      dz2     :     0.043031  d :     0.135132
      dxz     :     0.042734
      dyz     :     0.028739
      dx2y2   :     0.012315
      dxy     :     0.008311
      f0      :     0.000871  f :     0.004025
      f+1     :     0.000665
      f-1     :     0.000667
      f+2     :     0.000419
      f-2     :     0.000527
      f+3     :     0.000569
      f-3     :     0.000307
  2 C s       :     3.145609  s :     3.145609
      pz      :     1.099140  p :     3.118926
      px      :     0.910525
      py      :     1.109261
      dz2     :     0.030285  d :     0.027100
      dxz     :    -0.007821
      dyz     :     0.005336
      dx2y2   :     0.006990
      dxy     :    -0.007690
      f0      :     0.000571  f :     0.005643
      f+1     :     0.001281
      f-1     :     0.000494
      f+2     :     0.000752
      f-2     :     0.000586
      f+3     :     0.000921
      f-3     :     0.001037
  3 C s       :     3.332209  s :     3.332209
      pz      :     1.126776  p :     2.740594
      px      :     1.047805
      py      :     0.566013
      dz2     :    -0.009205  d :     0.155426
      dxz     :     0.011558
      dyz     :     0.056672
      dx2y2   :     0.025244
      dxy     :     0.071156
      f0      :     0.001236  f :     0.013189
      f+1     :     0.000882
      f-1     :     0.001899
      f+2     :     0.003003
      f-2     :     0.000440
      f+3     :     0.003583
      f-3     :     0.002145
  4 H s       :     0.722477  s :     0.722477
      pz      :     0.004912  p :     0.027053
      px      :     0.024299
      py      :    -0.002158
  5 H s       :     0.688345  s :     0.688345
      pz      :     0.040353  p :     0.065131
      px      :     0.004079
      py      :     0.020699
  6 F s       :     4.022487  s :     4.022487
      pz      :     1.918536  p :     5.339205
      px      :     1.937369
      py      :     1.483300
      dz2     :     0.001693  d :     0.025703
      dxz     :     0.004342
      dyz     :     0.006561
      dx2y2   :     0.005734
      dxy     :     0.007374
      f0      :     0.000060  f :     0.000640
      f+1     :     0.000030
      f-1     :     0.000104
      f+2     :     0.000119
      f-2     :     0.000018
      f+3     :     0.000126
      f-3     :     0.000183
  7 C s       :     3.233457  s :     3.233457
      pz      :     0.598893  p :     2.035870
      px      :     0.761325
      py      :     0.675652
      dz2     :    -0.024403  d :     0.204085
      dxz     :     0.117263
      dyz     :     0.072679
      dx2y2   :     0.040039
      dxy     :    -0.001493
      f0      :     0.003809  f :     0.019170
      f+1     :     0.002270
      f-1     :     0.002474
      f+2     :     0.002513
      f-2     :     0.003160
      f+3     :     0.002118
      f-3     :     0.002825
  8 N s       :     3.460734  s :     3.460734
      pz      :     1.171951  p :     3.829936
      px      :     1.337469
      py      :     1.320516
      dz2     :     0.009731  d :     0.057545
      dxz     :     0.006310
      dyz     :     0.008568
      dx2y2   :     0.029254
      dxy     :     0.003682
      f0      :     0.000296  f :     0.003367
      f+1     :     0.000547
      f-1     :     0.000427
      f+2     :     0.000299
      f-2     :     0.000593
      f+3     :     0.000543
      f-3     :     0.000662
  9 C s       :     3.648144  s :     3.648144
      pz      :     0.995052  p :     3.509617
      px      :     1.253719
      py      :     1.260847
      dz2     :     0.003557  d :     0.058792
      dxz     :     0.015259
      dyz     :     0.003512
      dx2y2   :     0.028467
      dxy     :     0.007997
      f0      :     0.000920  f :     0.004821
      f+1     :     0.001158
      f-1     :     0.000806
      f+2     :     0.000473
      f-2     :     0.000504
      f+3     :     0.000557
      f-3     :     0.000403
 10 H s       :     0.621423  s :     0.621423
      pz      :     0.004348  p :     0.098959
      px      :     0.020799
      py      :     0.073811
 11 H s       :     0.639044  s :     0.639044
      pz      :     0.009079  p :     0.095013
      px      :     0.050693
      py      :     0.035241
 12 H s       :     0.797355  s :     0.797355
      pz      :    -0.004266  p :     0.034242
      px      :     0.021086
      py      :     0.017422
 13 H s       :     0.683359  s :     0.683359
      pz      :    -0.000208  p :    -0.017428
      px      :    -0.008824
      py      :    -0.008396
 14 H s       :     0.814207  s :     0.814207
      pz      :     0.010355  p :     0.050860
      px      :     0.017078
      py      :     0.023426
 15 H s       :     0.651549  s :     0.651549
      pz      :     0.021370  p :     0.050834
      px      :    -0.003300
      py      :     0.032764
 16 H s       :     0.688768  s :     0.688768
      pz      :     0.026294  p :     0.062916
      px      :     0.027680
      py      :     0.008942
 17 H s       :     0.720887  s :     0.720887
      pz      :     0.004118  p :     0.051508
      px      :     0.012601
      py      :     0.034788
 18 H s       :     0.723291  s :     0.723291
      pz      :     0.035707  p :     0.046471
      px      :     0.008985
      py      :     0.001779


                     *******************************
                     * LOEWDIN POPULATION ANALYSIS *
                     *******************************

----------------------
LOEWDIN ATOMIC CHARGES
----------------------
   0 C :   -0.185378
   1 N :    0.035502
   2 C :   -0.154716
   3 C :   -0.214298
   4 H :    0.120965
   5 H :    0.133439
   6 F :   -0.023920
   7 C :   -0.569048
   8 N :    0.149471
   9 C :   -0.007598
  10 H :   -0.008665
  11 H :   -0.012141
  12 H :    0.139647
  13 H :    0.024428
  14 H :    0.118166
  15 H :    0.115289
  16 H :    0.115400
  17 H :    0.116402
  18 H :    0.107055

-------------------------------
LOEWDIN REDUCED ORBITAL CHARGES
-------------------------------
  0 C s       :     2.665803  s :     2.665803
      pz      :     0.822353  p :     2.668937
      px      :     0.919253
      py      :     0.927331
      dz2     :     0.174081  d :     0.795545
      dxz     :     0.247565
      dyz     :     0.120904
      dx2y2   :     0.163807
      dxy     :     0.089188
      f0      :     0.010098  f :     0.055093
      f+1     :     0.010903
      f-1     :     0.011535
      f+2     :     0.006153
      f-2     :     0.006669
      f+3     :     0.004706
      f-3     :     0.005030
  1 N s       :     2.838186  s :     2.838186
      pz      :     1.065712  p :     3.448471
      px      :     1.263709
      py      :     1.119050
      dz2     :     0.226510  d :     0.661921
      dxz     :     0.154149
      dyz     :     0.165272
      dx2y2   :     0.058866
      dxy     :     0.057123
      f0      :     0.003707  f :     0.015920
      f+1     :     0.002711
      f-1     :     0.002817
      f+2     :     0.002091
      f-2     :     0.002628
      f+3     :     0.001566
      f-3     :     0.000399
  2 C s       :     2.692680  s :     2.692680
      pz      :     0.915404  p :     2.749050
      px      :     0.910477
      py      :     0.923169
      dz2     :     0.174991  d :     0.674588
      dxz     :     0.140446
      dyz     :     0.050977
      dx2y2   :     0.203190
      dxy     :     0.104984
      f0      :     0.003582  f :     0.038399
      f+1     :     0.006666
      f-1     :     0.004603
      f+2     :     0.004815
      f-2     :     0.006392
      f+3     :     0.005896
      f-3     :     0.006445
  3 C s       :     2.681545  s :     2.681545
      pz      :     0.939866  p :     2.569816
      px      :     0.940490
      py      :     0.689461
      dz2     :     0.120966  d :     0.869145
      dxz     :     0.126160
      dyz     :     0.210979
      dx2y2   :     0.210980
      dxy     :     0.200060
      f0      :     0.008976  f :     0.093792
      f+1     :     0.005375
      f-1     :     0.016097
      f+2     :     0.016148
      f-2     :     0.004804
      f+3     :     0.022447
      f-3     :     0.019946
  4 H s       :     0.692018  s :     0.692018
      pz      :     0.068399  p :     0.187017
      px      :     0.082900
      py      :     0.035718
  5 H s       :     0.670240  s :     0.670240
      pz      :     0.093096  p :     0.196321
      px      :     0.056024
      py      :     0.047201
  6 F s       :     3.528567  s :     3.528567
      pz      :     1.790678  p :     5.173247
      px      :     1.809963
      py      :     1.572607
      dz2     :     0.038815  d :     0.320367
      dxz     :     0.044284
      dyz     :     0.085004
      dx2y2   :     0.071914
      dxy     :     0.080349
      f0      :     0.000181  f :     0.001739
      f+1     :     0.000108
      f-1     :     0.000233
      f+2     :     0.000366
      f-2     :     0.000057
      f+3     :     0.000432
      f-3     :     0.000361
  7 C s       :     2.595091  s :     2.595091
      pz      :     0.930110  p :     2.517578
      px      :     0.778361
      py      :     0.809107
      dz2     :     0.274685  d :     1.336827
      dxz     :     0.307276
      dyz     :     0.320966
      dx2y2   :     0.262938
      dxy     :     0.170962
      f0      :     0.024825  f :     0.119552
      f+1     :     0.014470
      f-1     :     0.014682
      f+2     :     0.018070
      f-2     :     0.020644
      f+3     :     0.012043
      f-3     :     0.014818
  8 N s       :     2.879662  s :     2.879662
      pz      :     1.089612  p :     3.535533
      px      :     1.210091
      py      :     1.235830
      dz2     :     0.057110  d :     0.422290
      dxz     :     0.101626
      dyz     :     0.092201
      dx2y2   :     0.098309
      dxy     :     0.073044
      f0      :     0.001654  f :     0.013044
      f+1     :     0.001496
      f-1     :     0.001931
      f+2     :     0.000757
      f-2     :     0.002068
      f+3     :     0.002559
      f-3     :     0.002581
  9 C s       :     2.730592  s :     2.730592
      pz      :     0.949138  p :     2.878493
      px      :     0.968269
      py      :     0.961087
      dz2     :     0.119740  d :     0.368978
      dxz     :     0.105272
      dyz     :     0.065208
      dx2y2   :     0.022709
      dxy     :     0.056049
      f0      :     0.006722  f :     0.029534
      f+1     :     0.007254
      f-1     :     0.004924
      f+2     :     0.003902
      f-2     :     0.003300
      f+3     :     0.002347
      f-3     :     0.001084
 10 H s       :     0.731038  s :     0.731038
      pz      :     0.063789  p :     0.277627
      px      :     0.097940
      py      :     0.115898
 11 H s       :     0.731858  s :     0.731858
      pz      :     0.084071  p :     0.280283
      px      :     0.100482
      py      :     0.095730
 12 H s       :     0.606689  s :     0.606689
      pz      :     0.070170  p :     0.253664
      px      :     0.079989
      py      :     0.103505
 13 H s       :     0.560097  s :     0.560097
      pz      :     0.185635  p :     0.415475
      px      :     0.143266
      py      :     0.086574
 14 H s       :     0.623391  s :     0.623391
      pz      :     0.105607  p :     0.258443
      px      :     0.069588
      py      :     0.083248
 15 H s       :     0.662951  s :     0.662951
      pz      :     0.056013  p :     0.221760
      px      :     0.065716
      py      :     0.100032
 16 H s       :     0.690349  s :     0.690349
      pz      :     0.060265  p :     0.194250
      px      :     0.081693
      py      :     0.052292
 17 H s       :     0.687125  s :     0.687125
      pz      :     0.051245  p :     0.196473
      px      :     0.046856
      py      :     0.098373
 18 H s       :     0.688374  s :     0.688374
      pz      :     0.094234  p :     0.204571
      px      :     0.051349
      py      :     0.058988


                      *****************************
                      * MAYER POPULATION ANALYSIS *
                      *****************************

  NA   - Mulliken gross atomic population
  ZA   - Total nuclear charge
  QA   - Mulliken gross atomic charge
  VA   - Mayer's total valence
  BVA  - Mayer's bonded valence
  FA   - Mayer's free valence

  ATOM       NA         ZA         QA         VA         BVA        FA
  0 C      6.5207     6.0000    -0.5207     3.4044     3.4044     0.0000
  1 N      7.1708     7.0000    -0.1708     3.1623     3.1623     0.0000
  2 C      6.2973     6.0000    -0.2973     3.8298     3.8298     0.0000
  3 C      6.2414     6.0000    -0.2414     3.7643     3.7643    -0.0000
  4 H      0.7495     1.0000     0.2505     0.9479     0.9479    -0.0000
  5 H      0.7535     1.0000     0.2465     0.9876     0.9876    -0.0000
  6 F      9.3880     9.0000    -0.3880     0.8727     0.8727     0.0000
  7 C      5.4926     6.0000     0.5074     3.1736     3.1736    -0.0000
  8 N      7.3516     7.0000    -0.3516     3.1603     3.1603     0.0000
  9 C      7.2214     6.0000    -1.2214     3.5179     3.5179    -0.0000
 10 H      0.7204     1.0000     0.2796     1.0615     1.0615    -0.0000
 11 H      0.7341     1.0000     0.2659     1.0427     1.0427    -0.0000
 12 H      0.8316     1.0000     0.1684     0.9672     0.9672    -0.0000
 13 H      0.6659     1.0000     0.3341     0.8061     0.8061     0.0000
 14 H      0.8651     1.0000     0.1349     0.9806     0.9806    -0.0000
 15 H      0.7024     1.0000     0.2976     0.9357     0.9357    -0.0000
 16 H      0.7517     1.0000     0.2483     1.0049     1.0049     0.0000
 17 H      0.7724     1.0000     0.2276     0.9857     0.9857     0.0000
 18 H      0.7698     1.0000     0.2302     0.9995     0.9995     0.0000

  Mayer bond orders larger than 0.100000
B(  0-C ,  1-N ) :   0.8711 B(  0-C ,  2-C ) :   0.8394 B(  0-C , 15-H ) :   0.8821 
B(  0-C , 16-H ) :   0.9824 B(  1-N ,  7-C ) :   1.0749 B(  1-N ,  9-C ) :   0.1045 
B(  1-N , 12-H ) :   0.9527 B(  2-C ,  3-C ) :   0.9750 B(  2-C , 17-H ) :   0.9639 
B(  2-C , 18-H ) :   0.9723 B(  3-C ,  4-H ) :   0.9566 B(  3-C ,  5-H ) :   0.9516 
B(  3-C ,  6-F ) :   0.7724 B(  7-C ,  8-N ) :   1.1357 B(  7-C ,  9-C ) :   1.1830 
B(  8-N , 13-H ) :   0.7966 B(  8-N , 14-H ) :   1.0213 B(  9-C , 10-H ) :   0.9996 
B(  9-C , 11-H ) :   1.0528 

-------
TIMINGS
-------

Total SCF time: 0 days 0 hours 1 min 31 sec 

Total time                  ....      91.176 sec
Sum of individual times     ....      90.661 sec  ( 99.4%)

Fock matrix formation       ....      87.352 sec  ( 95.8%)
  Split-RI-J                ....       5.573 sec  (  6.4% of F)
  Chain of spheres X        ....      68.249 sec  ( 78.1% of F)
  XC integration            ....      13.375 sec  ( 15.3% of F)
    Basis function eval.    ....       3.031 sec  ( 22.7% of XC)
    Density eval.           ....       4.079 sec  ( 30.5% of XC)
    XC-Functional eval.     ....       0.313 sec  (  2.3% of XC)
    XC-Potential eval.      ....       5.340 sec  ( 39.9% of XC)
Diagonalization             ....       0.349 sec  (  0.4%)
Density matrix formation    ....       0.022 sec  (  0.0%)
Population analysis         ....       0.038 sec  (  0.0%)
Initial guess               ....       0.629 sec  (  0.7%)
Orbital Transformation      ....       0.000 sec  (  0.0%)
Orbital Orthonormalization  ....       0.000 sec  (  0.0%)
DIIS solution               ....       0.177 sec  (  0.2%)
SOSCF solution              ....       0.205 sec  (  0.2%)
Grid generation             ....       1.888 sec  (  2.1%)

Maximum memory used throughout the entire SCF-calculation: 94.0 MB


-------------------------------------------------------------------------------
                          DFT DISPERSION CORRECTION                            
                                                                               
                              DFTD3 V3.1  Rev 1                                
                          USING Becke-Johnson damping                          
-------------------------------------------------------------------------------
The B3LYP functional is recognized
Active option DFTDOPT                   ...         4   

molecular C6(AA) [au] = 2759.598947 


            DFT-D V3
 parameters
 s6 scaling factor         :     1.0000 
 a1 scaling factor         :     0.3981 
 s8 scaling factor         :     1.9889 
 a2 scaling factor         :     4.4211 
 ad hoc parameters k1-k3   :    16.0000     1.3333    -4.0000 

 Edisp/kcal,au: -17.972472280970  -0.028640954610 
 E6   /kcal   :  -8.870476728 
 E8   /kcal   :  -9.101995553 
 % E8         :  50.644092867 

-------------------------   ----------------
Dispersion correction           -0.028640955
-------------------------   ----------------


-------------------------   --------------------
FINAL SINGLE POINT ENERGY      -406.393414739826
-------------------------   --------------------


                            ***************************************
                            *     ORCA property calculations      *
                            ***************************************

                                    ---------------------
                                    Active property flags
                                    ---------------------
   (+) Dipole Moment


------------------------------------------------------------------------------
                       ORCA ELECTRIC PROPERTIES CALCULATION
------------------------------------------------------------------------------

Dipole Moment Calculation                       ... on
Quadrupole Moment Calculation                   ... off
Polarizability Calculation                      ... off
GBWName                                         ... 28Oct_TZVPD_B3LYP_D3_wb97.gbw
Electron density file                           ... 28Oct_TZVPD_B3LYP_D3_wb97.scfp
The origin for moment calculation is the CENTER OF MASS  = ( 7.645335, -2.690567 -8.920857)

-------------
DIPOLE MOMENT
-------------
                                X             Y             Z
Electronic contribution:     -3.49031       3.87712      -1.51910
Nuclear contribution   :      2.63642      -4.47741       0.00296
                        -----------------------------------------
Total Dipole Moment    :     -0.85389      -0.60029      -1.51614
                        -----------------------------------------
Magnitude (a.u.)       :      1.84069
Magnitude (Debye)      :      4.67867



--------------------
Rotational spectrum 
--------------------
 
Rotational constants in cm-1:     0.108041     0.051979     0.040387 
Rotational constants in MHz :  3238.993235  1558.297571  1210.782552 

 Dipole components along the rotational axes: 
x,y,z [a.u.] :    -1.736950     0.438535    -0.422898 
x,y,z [Debye]:    -4.414975     1.114666    -1.074922 

 

Timings for individual modules:

Sum of individual times         ...       92.387 sec (=   1.540 min)
GTO integral calculation        ...        0.780 sec (=   0.013 min)   0.8 %
SCF iterations                  ...       91.607 sec (=   1.527 min)  99.2 %
                             ****ORCA TERMINATED NORMALLY****
TOTAL RUN TIME: 0 days 0 hours 1 minutes 32 seconds 988 msec
