
                                        *****************
                                        * O   R   C   A *
                                        *****************

                                            #,                                       
                                            ###                                      
                                            ####                                     
                                            #####                                    
                                            ######                                   
                                           ########,                                 
                                     ,,################,,,,,                         
                               ,,#################################,,                 
                          ,,##########################################,,             
                       ,#########################################, ''#####,          
                    ,#############################################,,   '####,        
                  ,##################################################,,,,####,       
                ,###########''''           ''''###############################       
              ,#####''   ,,,,##########,,,,          '''####'''          '####       
            ,##' ,,,,###########################,,,                        '##       
           ' ,,###''''                  '''############,,,                           
         ,,##''                                '''############,,,,        ,,,,,,###''
      ,#''                                            '''#######################'''  
     '                                                          ''''####''''         
             ,#######,   #######,   ,#######,      ##                                
            ,#'     '#,  ##    ##  ,#'     '#,    #''#        ######   ,####,        
            ##       ##  ##   ,#'  ##            #'  '#       #        #'  '#        
            ##       ##  #######   ##           ,######,      #####,   #    #        
            '#,     ,#'  ##    ##  '#,     ,#' ,#      #,         ##   #,  ,#        
             '#######'   ##     ##  '#######'  #'      '#     #####' # '####'        



                  #######################################################
                  #                        -***-                        #
                  #          Department of theory and spectroscopy      #
                  #    Directorship and core code : Frank Neese         #
                  #        Max Planck Institute fuer Kohlenforschung    #
                  #                Kaiser Wilhelm Platz 1               #
                  #                 D-45470 Muelheim/Ruhr               #
                  #                      Germany                        #
                  #                                                     #
                  #                  All rights reserved                #
                  #                        -***-                        #
                  #######################################################


                         Program Version 5.0.0 -  RELEASE  -
                                (SVN: $Rev: 19529$)
                ($Date: 2021-06-28 11:36:33 +0200 (Mo, 28 Jun 2021) $)


 With contributions from (in alphabetic order):
   Daniel Aravena         : Magnetic Suceptibility
   Michael Atanasov       : Ab Initio Ligand Field Theory (pilot matlab implementation)
   Alexander A. Auer      : GIAO ZORA, VPT2 properties, NMR spectrum
   Ute Becker             : Parallelization
   Giovanni Bistoni       : ED, misc. LED, open-shell LED, HFLD
   Martin Brehm           : Molecular dynamics
   Dmytro Bykov           : SCF Hessian
   Vijay G. Chilkuri      : MRCI spin determinant printing, contributions to CSF-ICE
   Dipayan Datta          : RHF DLPNO-CCSD density
   Achintya Kumar Dutta   : EOM-CC, STEOM-CC
   Dmitry Ganyushin       : Spin-Orbit,Spin-Spin,Magnetic field MRCI
   Miquel Garcia          : C-PCM Hessian, Gaussian charge scheme
   Yang Guo               : DLPNO-NEVPT2, F12-NEVPT2, CIM, IAO-localization
   Andreas Hansen         : Spin unrestricted coupled pair/coupled cluster methods
   Benjamin Helmich-Paris : MC-RPA, TRAH-SCF, COSX integrals
   Lee Huntington         : MR-EOM, pCC
   Robert Izsak           : Overlap fitted RIJCOSX, COSX-SCS-MP3, EOM
   Marcus Kettner         : VPT2
   Christian Kollmar      : KDIIS, OOCD, Brueckner-CCSD(T), CCSD density, CASPT2, CASPT2-K
   Simone Kossmann        : Meta GGA functionals, TD-DFT gradient, OOMP2, MP2 Hessian
   Martin Krupicka        : Initial AUTO-CI
   Lucas Lang             : DCDCAS
   Marvin Lechner         : AUTO-CI (C++ implementation), FIC-MRCC
   Dagmar Lenk            : GEPOL surface, SMD
   Dimitrios Liakos       : Extrapolation schemes; Compound Job, initial MDCI parallelization
   Dimitrios Manganas     : Further ROCIS development; embedding schemes
   Dimitrios Pantazis     : SARC Basis sets
   Anastasios Papadopoulos: AUTO-CI, single reference methods and gradients
   Taras Petrenko         : DFT Hessian,TD-DFT gradient, ASA, ECA, R-Raman, ABS, FL, XAS/XES, NRVS
   Peter Pinski           : DLPNO-MP2, DLPNO-MP2 Gradient
   Christoph Reimann      : Effective Core Potentials
   Marius Retegan         : Local ZFS, SOC
   Christoph Riplinger    : Optimizer, TS searches, QM/MM, DLPNO-CCSD(T), (RO)-DLPNO pert. Triples
   Tobias Risthaus        : Range-separated hybrids, TD-DFT gradient, RPA, STAB
   Michael Roemelt        : Original ROCIS implementation
   Masaaki Saitow         : Open-shell DLPNO-CCSD energy and density
   Barbara Sandhoefer     : DKH picture change effects
   Avijit Sen             : IP-ROCIS
   Kantharuban Sivalingam : CASSCF convergence, NEVPT2, FIC-MRCI
   Bernardo de Souza      : ESD, SOC TD-DFT
   Georgi Stoychev        : AutoAux, RI-MP2 NMR
   Willem Van den Heuvel  : Paramagnetic NMR
   Boris Wezisla          : Elementary symmetry handling
   Frank Wennmohs         : Technical directorship


 We gratefully acknowledge several colleagues who have allowed us to
 interface, adapt or use parts of their codes:
   Stefan Grimme, W. Hujo, H. Kruse, P. Pracht,  : VdW corrections, initial TS optimization,
                  C. Bannwarth, S. Ehlert          DFT functionals, gCP, sTDA/sTD-DF
   Ed Valeev, F. Pavosevic, A. Kumar             : LibInt (2-el integral package), F12 methods
   Garnet Chan, S. Sharma, J. Yang, R. Olivares  : DMRG
   Ulf Ekstrom                                   : XCFun DFT Library
   Mihaly Kallay                                 : mrcc  (arbitrary order and MRCC methods)
   Jiri Pittner, Ondrej Demel                    : Mk-CCSD
   Frank Weinhold                                : gennbo (NPA and NBO analysis)
   Christopher J. Cramer and Donald G. Truhlar   : smd solvation model
   Lars Goerigk                                  : TD-DFT with DH, B97 family of functionals
   V. Asgeirsson, H. Jonsson                     : NEB implementation
   FAccTs GmbH                                   : IRC, NEB, NEB-TS, DLPNO-Multilevel, CI-OPT
                                                   MM, QMMM, 2- and 3-layer-ONIOM, Crystal-QMMM,
                                                   LR-CPCM, SF, NACMEs, symmetry and pop. for TD-DFT,
                                                   nearIR, NL-DFT gradient (VV10), updates on ESD,
                                                   ML-optimized integration grids
   S Lehtola, MJT Oliveira, MAL Marques          : LibXC Library
   Liviu Ungur et al                             : ANISO software


 Your calculation uses the libint2 library for the computation of 2-el integrals
 For citations please refer to: http://libint.valeyev.net

 Your ORCA version has been built with support for libXC version: 5.1.0
 For citations please refer to: https://tddft.org/programs/libxc/

 This ORCA versions uses:
   CBLAS   interface :  Fast vector & matrix operations
   LAPACKE interface :  Fast linear algebra routines
   SCALAPACK package :  Parallel linear algebra routines
   Shared memory     :  Shared parallel matrices
   BLAS/LAPACK       :  OpenBLAS 0.3.15  USE64BITINT DYNAMIC_ARCH NO_AFFINITY Haswell SINGLE_THREADED
        Core in use  :  Haswell
   Copyright (c) 2011-2014, The OpenBLAS Project


Your calculation utilizes the atom-pairwise dispersion correction
with the zero-damping scheme (D30)
Cite in your paper:
S.Grimme, J.Antony, S.Ehrlich and H.Krieg, J.Chem.Phys., 132, (2010), 154104 
   

XCFun DFT library Copyright 2009-2010 Ulf Ekstrom and contributors.
See http://admol.org/xcfun for more information.
This is free software; see the source code for copying conditions.
There is ABSOLUTELY NO WARRANTY; not even for MERCHANTABILITY or FITNESS FOR A PARTICULAR PURPOSE.
For details see the documentation.
Scientific users of this library should cite U. Ekstrom, L. Visscher, R. Bast, A. J. Thorvaldsen and K. Ruud;
J.Chem.Theor.Comp. 2010, DOI: 10.1021/ct100117s
XCFun Version 0.99 

================================================================================

----- Orbital basis set information -----
Your calculation utilizes the basis: def2-TZVPD
   F. Weigend and R. Ahlrichs, Phys. Chem. Chem. Phys. 7, 3297 (2005).
   D. Rappoport and F. Furche, J. Chem. Phys. 133 134105 (2010).

----- AuxJ basis set information -----
Your calculation utilizes the auxiliary basis: def2/J
   F. Weigend, Phys. Chem. Chem. Phys. 8, 1057 (2006).

================================================================================
                                        WARNINGS
                       Please study these warnings very carefully!
================================================================================


INFO   : the flag for use of the SHARK integral package has been found!

================================================================================
                                       INPUT FILE
================================================================================
NAME = C2_pos.com
|  1> !wB97X-D3 RIJCOSX def2-TZVPD def2/J TightSCF 
|  2> *xyz 0 1
|  3> C          2.20996       -2.81239       -3.66571
|  4> C          2.48901       -1.66851       -2.73754
|  5> N          3.59631       -0.94761       -2.95225
|  6> C          1.66394       -1.41369       -1.77781
|  7> H          0.81164       -1.96318       -1.70275
|  8> H          1.84550       -0.63508       -1.15875
|  9> H          4.20535       -1.17600       -3.73383
| 10> H          3.81723       -0.12585       -2.40604
| 11> H          2.99011       -2.87840       -4.39503
| 12> H          1.27381       -2.65174       -4.15838
| 13> H          2.16680       -3.72339       -3.10614
| 14> *
| 15> 
| 16> %MaxCore 64000
| 17> %pal nprocs 18
| 18> end  
| 19> 
| 20> %scf
| 21>   MaxIter 150
| 22> end
| 23> 
| 24> 
| 25>                          ****END OF INPUT****
================================================================================

                       ****************************
                       * Single Point Calculation *
                       ****************************

---------------------------------
CARTESIAN COORDINATES (ANGSTROEM)
---------------------------------
  C      2.209960   -2.812390   -3.665710
  C      2.489010   -1.668510   -2.737540
  N      3.596310   -0.947610   -2.952250
  C      1.663940   -1.413690   -1.777810
  H      0.811640   -1.963180   -1.702750
  H      1.845500   -0.635080   -1.158750
  H      4.205350   -1.176000   -3.733830
  H      3.817230   -0.125850   -2.406040
  H      2.990110   -2.878400   -4.395030
  H      1.273810   -2.651740   -4.158380
  H      2.166800   -3.723390   -3.106140

----------------------------
CARTESIAN COORDINATES (A.U.)
----------------------------
  NO LB      ZA    FRAG     MASS         X           Y           Z
   0 C     6.0000    0    12.011    4.176219   -5.314647   -6.927188
   1 C     6.0000    0    12.011    4.703547   -3.153027   -5.173201
   2 N     7.0000    0    14.007    6.796041   -1.790723   -5.578944
   3 C     6.0000    0    12.011    3.144391   -2.671487   -3.359574
   4 H     1.0000    0     1.008    1.533777   -3.709873   -3.217731
   5 H     1.0000    0     1.008    3.487490   -1.200127   -2.189720
   6 H     1.0000    0     1.008    7.946960   -2.222318   -7.055916
   7 H     1.0000    0     1.008    7.213519   -0.237822   -4.546757
   8 H     1.0000    0     1.008    5.650489   -5.439388   -8.305403
   9 H     1.0000    0     1.008    2.407152   -5.011062   -7.858199
  10 H     1.0000    0     1.008    4.094659   -7.036187   -5.869754

--------------------------------
INTERNAL COORDINATES (ANGSTROEM)
--------------------------------
 C      0   0   0     0.000000000000     0.00000000     0.00000000
 C      1   0   0     1.499276460764     0.00000000     0.00000000
 N      2   1   0     1.338622607048   117.74534069     0.00000000
 C      2   1   3     1.291028818501   119.46262227   179.73240873
 H      4   2   1     1.016852277226   118.93875800   356.56161909
 H      4   2   1     1.011154216378   119.49556415   180.77765573
 H      3   2   1     1.016837750135   119.85311119     0.99564669
 H      3   2   1     1.011158003529   122.12376033   175.86157171
 H      1   2   3     1.069999535047   109.47114110     0.26737248
 H      1   2   3     1.070004193403   109.47144096   240.26772953
 H      1   2   3     1.070001107710   109.47121684   120.26785412

---------------------------
INTERNAL COORDINATES (A.U.)
---------------------------
 C      0   0   0     0.000000000000     0.00000000     0.00000000
 C      1   0   0     2.833221909878     0.00000000     0.00000000
 N      2   1   0     2.529630123996   117.74534069     0.00000000
 C      2   1   3     2.439690897967   119.46262227   179.73240873
 H      4   2   1     1.921572322612   118.93875800   356.56161909
 H      4   2   1     1.910804548115   119.49556415   180.77765573
 H      3   2   1     1.921544870388   119.85311119     0.99564669
 H      3   2   1     1.910811704792   122.12376033   175.86157171
 H      1   2   3     2.022006084661   109.47114110     0.26737248
 H      1   2   3     2.022014887679   109.47144096   240.26772953
 H      1   2   3     2.022009056564   109.47121684   120.26785412

---------------------
BASIS SET INFORMATION
---------------------
There are 3 groups of distinct atoms

 Group   1 Type C   : 12s6p3d1f contracted to 6s3p3d1f pattern {621111/411/111/1}
 Group   2 Type N   : 12s6p3d1f contracted to 6s3p3d1f pattern {621111/411/111/1}
 Group   3 Type H   : 5s2p contracted to 3s2p pattern {311/11}

Atom   0C    basis set group =>   1
Atom   1C    basis set group =>   1
Atom   2N    basis set group =>   2
Atom   3C    basis set group =>   1
Atom   4H    basis set group =>   3
Atom   5H    basis set group =>   3
Atom   6H    basis set group =>   3
Atom   7H    basis set group =>   3
Atom   8H    basis set group =>   3
Atom   9H    basis set group =>   3
Atom  10H    basis set group =>   3
---------------------------------
AUXILIARY/J BASIS SET INFORMATION
---------------------------------
There are 3 groups of distinct atoms

 Group   1 Type C   : 12s5p4d2f1g contracted to 6s4p3d1f1g pattern {711111/2111/211/2/1}
 Group   2 Type N   : 12s5p4d2f1g contracted to 6s4p3d1f1g pattern {711111/2111/211/2/1}
 Group   3 Type H   : 5s2p1d contracted to 3s1p1d pattern {311/2/1}

Atom   0C    basis set group =>   1
Atom   1C    basis set group =>   1
Atom   2N    basis set group =>   2
Atom   3C    basis set group =>   1
Atom   4H    basis set group =>   3
Atom   5H    basis set group =>   3
Atom   6H    basis set group =>   3
Atom   7H    basis set group =>   3
Atom   8H    basis set group =>   3
Atom   9H    basis set group =>   3
Atom  10H    basis set group =>   3


           ************************************************************
           *        Program running with 18 parallel MPI-processes    *
           *              working on a common directory               *
           ************************************************************
------------------------------------------------------------------------------
                           ORCA GTO INTEGRAL CALCULATION
                           -- RI-GTO INTEGRALS CHOSEN --
------------------------------------------------------------------------------
------------------------------------------------------------------------------
                   ___                                                        
                  /   \      - P O W E R E D   B Y -                         
                 /     \                                                     
                 |  |  |   _    _      __       _____    __    __             
                 |  |  |  | |  | |    /  \     |  _  \  |  |  /  |          
                  \  \/   | |  | |   /    \    | | | |  |  | /  /          
                 / \  \   | |__| |  /  /\  \   | |_| |  |  |/  /          
                |  |  |   |  __  | /  /__\  \  |    /   |      \           
                |  |  |   | |  | | |   __   |  |    \   |  |\   \          
                \     /   | |  | | |  |  |  |  | |\  \  |  | \   \       
                 \___/    |_|  |_| |__|  |__|  |_| \__\ |__|  \__/        
                                                                              
                      - O R C A' S   B I G   F R I E N D -                    
                                      &                                       
                       - I N T E G R A L  F E E D E R -                       
                                                                              
 v1 FN, 2020, v2 2021                                                         
------------------------------------------------------------------------------


Reading SHARK input file C2_pos.SHARKINP.tmp ... ok
----------------------
SHARK INTEGRAL PACKAGE
----------------------

Number of atoms                             ...     11
Number of basis functions                   ...    211
Number of shells                            ...     87
Maximum angular momentum                    ...      3
Integral batch strategy                     ... SHARK/LIBINT Hybrid
RI-J (if used) integral strategy            ... SPLIT-RIJ (Revised 2003 algorithm where possible)
Printlevel                                  ...      1
Contraction scheme used                     ... SEGMENTED contraction
Coulomb Range Separation                    ... NOT USED
Exchange Range Separation                   ... Long Range
   Mu parameter                             ...  0.250000
   Scaling (regular/separated)              ...  0.195728  0.804272
Finite Nucleus Model                        ... NOT USED
Auxiliary Coulomb fitting basis             ... AVAILABLE
   # of basis functions in Aux-J            ...    273
   # of shells in Aux-J                     ...     95
   Maximum angular momentum in Aux-J        ...      4
Auxiliary J/K fitting basis                 ... NOT available
Auxiliary Correlation fitting basis         ... NOT available
Auxiliary 'external' fitting basis          ... NOT available
Integral threshold                          ...     2.500000e-11
Primitive cut-off                           ...     2.500000e-12
Primitive pair pre-selection threshold      ...     2.500000e-12

Calculating pre-screening integrals         ... done (  0.1 sec) Dimension = 87
Organizing shell pair data                  ... done (  0.1 sec)
Shell pair information
Total number of shell pairs                 ...      3828
Shell pairs after pre-screening             ...      3780
Total number of primitive shell pairs       ...      9562
Primitive shell pairs kept                  ...      8115
          la=0 lb=0:    995 shell pairs
          la=1 lb=0:   1163 shell pairs
          la=1 lb=1:    351 shell pairs
          la=2 lb=0:    539 shell pairs
          la=2 lb=1:    312 shell pairs
          la=2 lb=2:     78 shell pairs
          la=3 lb=0:    180 shell pairs
          la=3 lb=1:    104 shell pairs
          la=3 lb=2:     48 shell pairs
          la=3 lb=3:     10 shell pairs

Calculating one electron integrals          ... done (  0.0 sec)
Calculating RI/J V-Matrix + Cholesky decomp.... done (  0.0 sec)
Calculating Nuclear repulsion               ... done (  0.0 sec) ENN=    124.469339565122 Eh

SHARK setup successfully completed in   0.3 seconds

Maximum memory used throughout the entire GTOINT-calculation: 13.9 MB


           ************************************************************
           *        Program running with 18 parallel MPI-processes    *
           *              working on a common directory               *
           ************************************************************
-------------------------------------------------------------------------------
                                 ORCA SCF
-------------------------------------------------------------------------------

------------
SCF SETTINGS
------------
Hamiltonian:
 Density Functional     Method          .... DFT(GTOs)
 Exchange Functional    Exchange        .... WB97X-D3
 Correlation Functional Correlation     .... WB97X-D3
 Gradients option       PostSCFGGA      .... off
 Hybrid DFT is turned on
   Fraction HF Exchange ScalHFX         ....  0.195728
   Scaling of DF-GGA-X  ScalDFX         ....  0.000000
   Scaling of DF-GGA-C  ScalDFC         ....  1.000000
   Scaling of DF-LDA-C  ScalLDAC        ....  1.000000
   Perturbative correction              ....  0.000000
   Density functional embedding theory  .... OFF
 Long-range corrected/Screened/Range-Separated Hybrid DFT is turned on
   Amount of maximum screened exact exchange              ....  0.804272
   Range separation parameter mu (erf(mu*r12)/r12)        ....  0.250000
 RI-approximation to the Coulomb term is turned on
   Number of AuxJ basis functions       .... 273
   RIJ-COSX (HFX calculated with COS-X)).... on


General Settings:
 Integral files         IntName         .... C2_pos
 Hartree-Fock type      HFTyp           .... RHF
 Total Charge           Charge          ....    0
 Multiplicity           Mult            ....    1
 Number of Electrons    NEL             ....   32
 Basis Dimension        Dim             ....  211
 Nuclear Repulsion      ENuc            ....    124.4693395651 Eh

Convergence Acceleration:
 DIIS                   CNVDIIS         .... on
   Start iteration      DIISMaxIt       ....    12
   Startup error        DIISStart       ....  0.200000
   # of expansion vecs  DIISMaxEq       ....     5
   Bias factor          DIISBfac        ....   1.050
   Max. coefficient     DIISMaxC        ....  10.000
 Trust-Rad. Augm. Hess. CNVTRAH         .... auto
   Auto Start mean grad. ratio tolernc. ....  1.125000
   Auto Start start iteration           ....    20
   Auto Start num. interpolation iter.  ....    10
   Max. Number of Micro iterations      ....    16
   Max. Number of Macro iterations      .... Maxiter - #DIIS iter
   Number of Davidson start vectors     ....     2
   Converg. threshold I  (grad. norm)   ....   1.000e-05
   Converg. threshold II (energy diff.) ....   1.000e-08
   Grad. Scal. Fac. for Micro threshold ....   0.100
   Minimum threshold for Micro iter.    ....   0.010
   NR start threshold (gradient norm)   ....   0.001
   Initial trust radius                 ....   0.400
   Minimum AH scaling param. (alpha)    ....   1.000
   Maximum AH scaling param. (alpha)    .... 1000.000
   Orbital update algorithm             .... Taylor
   White noise on init. David. guess    .... on
   Maximum white noise                  ....   0.010
   Quad. conv. algorithm                .... NR
 SOSCF                  CNVSOSCF        .... on
   Start iteration      SOSCFMaxIt      ....   150
   Startup grad/error   SOSCFStart      ....  0.003300
 Level Shifting         CNVShift        .... on
   Level shift para.    LevelShift      ....    0.2500
   Turn off err/grad.   ShiftErr        ....    0.0010
 Zerner damping         CNVZerner       .... off
 Static damping         CNVDamp         .... on
   Fraction old density DampFac         ....    0.7000
   Max. Damping (<1)    DampMax         ....    0.9800
   Min. Damping (>=0)   DampMin         ....    0.0000
   Turn off err/grad.   DampErr         ....    0.1000
 Fernandez-Rico         CNVRico         .... off

SCF Procedure:
 Maximum # iterations   MaxIter         ....   150
 SCF integral mode      SCFMode         .... Direct
   Integral package                     .... SHARK and LIBINT hybrid scheme
 Reset frequency        DirectResetFreq ....    20
 Integral Threshold     Thresh          ....  2.500e-11 Eh
 Primitive CutOff       TCut            ....  2.500e-12 Eh

Convergence Tolerance:
 Convergence Check Mode ConvCheckMode   .... Total+1el-Energy
 Convergence forced     ConvForced      .... 0
 Energy Change          TolE            ....  1.000e-08 Eh
 1-El. energy change                    ....  1.000e-05 Eh
 Orbital Gradient       TolG            ....  1.000e-05
 Orbital Rotation angle TolX            ....  1.000e-05
 DIIS Error             TolErr          ....  5.000e-07


Diagonalization of the overlap matrix:
Smallest eigenvalue                        ... 4.567e-06
Time for diagonalization                   ...    0.010 sec
Threshold for overlap eigenvalues          ... 1.000e-08
Number of eigenvalues below threshold      ... 0
Time for construction of square roots      ...    0.019 sec
Total time needed                          ...    0.030 sec

Time for model grid setup =    0.058 sec

------------------------------
INITIAL GUESS: MODEL POTENTIAL
------------------------------
Loading Hartree-Fock densities                     ... done
Calculating cut-offs                               ... done
Initializing the effective Hamiltonian             ... done
Setting up the integral package (SHARK)            ... done
Starting the Coulomb interaction                   ... done (   0.0 sec)
Reading the grid                                   ... done
Mapping shells                                     ... done
Starting the XC term evaluation                    ... done (   0.0 sec)
  promolecular density results
     # of electrons  =     32.000812880
     EX              =    -24.001064155
     EC              =     -1.035410042
     EX+EC           =    -25.036474197
Transforming the Hamiltonian                       ... done (   0.0 sec)
Diagonalizing the Hamiltonian                      ... done (   0.0 sec)
Back transforming the eigenvectors                 ... done (   0.0 sec)
Now organizing SCF variables                       ... done
                      ------------------
                      INITIAL GUESS DONE (   0.1 sec)
                      ------------------
-------------------
DFT GRID GENERATION
-------------------

General Integration Accuracy     IntAcc      ... 4.388
Radial Grid Type                 RadialGrid  ... OptM3 with GC (2021)
Angular Grid (max. ang.)         AngularGrid ... 4 (Lebedev-302)
Angular grid pruning method      GridPruning ... 4 (adaptive)
Weight generation scheme         WeightScheme... Becke
Basis function cutoff            BFCut       ... 1.0000e-11
Integration weight cutoff        WCut        ... 1.0000e-14
Angular grids for H and He will be reduced by one unit
Partially contracted basis set               ... off
Rotationally invariant grid construction     ... off

Total number of grid points                  ...    49489
Total number of batches                      ...      780
Average number of points per batch           ...       63
Average number of grid points per atom       ...     4499
Time for grid setup =    0.340 sec

--------------------
COSX GRID GENERATION
--------------------

GRIDX 1
-------
General Integration Accuracy     IntAcc      ... 3.816
Radial Grid Type                 RadialGrid  ... OptM3 with GC (2021)
Angular Grid (max. ang.)         AngularGrid ... 1 (Lebedev-50)
Angular grid pruning method      GridPruning ... 4 (adaptive)
Weight generation scheme         WeightScheme... Becke
Basis function cutoff            BFCut       ... 1.0000e-11
Integration weight cutoff        WCut        ... 1.0000e-14
Angular grids for H and He will be reduced by one unit
Partially contracted basis set               ... on
Rotationally invariant grid construction     ... off

Total number of grid points                  ...     6219
Total number of batches                      ...      104
Average number of points per batch           ...       59
Average number of grid points per atom       ...      565
UseSFitting                                  ... on

GRIDX 2
-------
General Integration Accuracy     IntAcc      ... 4.020
Radial Grid Type                 RadialGrid  ... OptM3 with GC (2021)
Angular Grid (max. ang.)         AngularGrid ... 2 (Lebedev-110)
Angular grid pruning method      GridPruning ... 4 (adaptive)
Weight generation scheme         WeightScheme... Becke
Basis function cutoff            BFCut       ... 1.0000e-11
Integration weight cutoff        WCut        ... 1.0000e-14
Angular grids for H and He will be reduced by one unit
Partially contracted basis set               ... on
Rotationally invariant grid construction     ... off

Total number of grid points                  ...    14787
Total number of batches                      ...      236
Average number of points per batch           ...       62
Average number of grid points per atom       ...     1344
UseSFitting                                  ... on

GRIDX 3
-------
General Integration Accuracy     IntAcc      ... 4.338
Radial Grid Type                 RadialGrid  ... OptM3 with GC (2021)
Angular Grid (max. ang.)         AngularGrid ... 3 (Lebedev-194)
Angular grid pruning method      GridPruning ... 4 (adaptive)
Weight generation scheme         WeightScheme... Becke
Basis function cutoff            BFCut       ... 1.0000e-11
Integration weight cutoff        WCut        ... 1.0000e-14
Angular grids for H and He will be reduced by one unit
Partially contracted basis set               ... on
Rotationally invariant grid construction     ... off

Total number of grid points                  ...    33374
Total number of batches                      ...      525
Average number of points per batch           ...       63
Average number of grid points per atom       ...     3034
UseSFitting                                  ... on

Time for X-Grid setup             =    0.280 sec

--------------
SCF ITERATIONS
--------------
ITER       Energy         Delta-E        Max-DP      RMS-DP      [F,P]     Damp
               ***  Starting incremental Fock matrix formation  ***
  0   -173.0496565182   0.000000000000 0.11698940  0.00210724  0.2287921 0.7000
  1   -173.1382332253  -0.088576707013 0.06902588  0.00173854  0.1366183 0.7000
                               ***Turning on DIIS***
  2   -173.1839065638  -0.045673338561 0.14094165  0.00398892  0.0704666 0.0000
  3   -173.2549851774  -0.071078613601 0.07692748  0.00093046  0.0537182 0.0000
  4   -173.2665531466  -0.011567969172 0.02474178  0.00027650  0.0089632 0.0000
  5   -173.2668629446  -0.000309798031 0.00710035  0.00008602  0.0033637 0.0000
                      *** Initiating the SOSCF procedure ***
                           *** Shutting down DIIS ***
                      *** Re-Reading the Fockian *** 
                      *** Removing any level shift *** 
ITER      Energy       Delta-E        Grad      Rot      Max-DP    RMS-DP
  6   -173.26689399  -0.0000310437  0.000572  0.000572  0.003246  0.000050
               *** Restarting incremental Fock matrix formation ***
  7   -173.26689637  -0.0000023865  0.000212  0.000531  0.004244  0.000053
  8   -173.26689705  -0.0000006718  0.000080  0.000399  0.002816  0.000029
  9   -173.26689718  -0.0000001313  0.000025  0.000038  0.000850  0.000011
 10   -173.26689720  -0.0000000217  0.000014  0.000038  0.000199  0.000003
 11   -173.26689720  -0.0000000005  0.000004  0.000007  0.000412  0.000004
                 **** Energy Check signals convergence ****
              ***Rediagonalizing the Fockian in SOSCF/NRSCF***

               *****************************************************
               *                     SUCCESS                       *
               *           SCF CONVERGED AFTER  12 CYCLES          *
               *****************************************************

Old exchange energy                            =     -8.272297666 Eh
New exchange energy                            =     -8.272306460 Eh
Exchange energy change after final integration =     -0.000008794 Eh
Total energy after final integration           =   -173.266905995 Eh
Final COS-X integration done in                =     2.030 sec

----------------
TOTAL SCF ENERGY
----------------

Total Energy       :         -173.26690599 Eh           -4714.83221 eV

Components:
Nuclear Repulsion  :          124.46933957 Eh            3386.98292 eV
Electronic Energy  :         -297.73624556 Eh           -8101.81513 eV
One Electron Energy:         -478.79558693 Eh          -13028.69029 eV
Two Electron Energy:          181.05934137 Eh            4926.87516 eV
Max COSX asymmetry :            0.00000078 Eh               0.00002 eV

Virial components:
Potential Energy   :         -346.22605487 Eh           -9421.28992 eV
Kinetic Energy     :          172.95914887 Eh            4706.45771 eV
Virial Ratio       :            2.00177936


DFT components:
N(Alpha)           :       15.999966530044 electrons
N(Beta)            :       15.999966530044 electrons
N(Total)           :       31.999933060089 electrons
E(XC)              :      -17.647397457659 Eh       
DFET-embed. en.    :        0.000000000000 Eh       

---------------
SCF CONVERGENCE
---------------

  Last Energy change         ...   -8.9810e-10  Tolerance :   1.0000e-08
  Last MAX-Density change    ...    6.8001e-16  Tolerance :   1.0000e-07
  Last RMS-Density change    ...    1.7528e-17  Tolerance :   5.0000e-09
  Last Orbital Gradient      ...    1.0507e-06  Tolerance :   1.0000e-05
  Last Orbital Rotation      ...    3.9673e-06  Tolerance :   1.0000e-05

             **** THE GBW FILE WAS UPDATED (C2_pos.gbw) ****
             **** DENSITY C2_pos.scfp WAS UPDATED ****
             **** ENERGY FILE WAS UPDATED (C2_pos.en.tmp) ****
             **** THE GBW FILE WAS UPDATED (C2_pos.gbw) ****
             **** DENSITY C2_pos.scfp WAS UPDATED ****
----------------
ORBITAL ENERGIES
----------------

  NO   OCC          E(Eh)            E(eV) 
   0   2.0000     -14.421031      -392.4162 
   1   2.0000     -10.295576      -280.1569 
   2   2.0000     -10.262257      -279.2502 
   3   2.0000     -10.200380      -277.5665 
   4   2.0000      -1.038383       -28.2558 
   5   2.0000      -0.876339       -23.8464 
   6   2.0000      -0.804865       -21.9015 
   7   2.0000      -0.673964       -18.3395 
   8   2.0000      -0.623591       -16.9688 
   9   2.0000      -0.576522       -15.6880 
  10   2.0000      -0.531097       -14.4519 
  11   2.0000      -0.496211       -13.5026 
  12   2.0000      -0.490292       -13.3415 
  13   2.0000      -0.447194       -12.1688 
  14   2.0000      -0.430704       -11.7201 
  15   2.0000      -0.280976        -7.6458 
  16   0.0000       0.069471         1.8904 
  17   0.0000       0.097423         2.6510 
  18   0.0000       0.099802         2.7157 
  19   0.0000       0.118196         3.2163 
  20   0.0000       0.133550         3.6341 
  21   0.0000       0.136366         3.7107 
  22   0.0000       0.150645         4.0993 
  23   0.0000       0.173303         4.7158 
  24   0.0000       0.177903         4.8410 
  25   0.0000       0.186992         5.0883 
  26   0.0000       0.203813         5.5460 
  27   0.0000       0.230649         6.2763 
  28   0.0000       0.231480         6.2989 
  29   0.0000       0.244441         6.6516 
  30   0.0000       0.249777         6.7968 
  31   0.0000       0.254523         6.9259 
  32   0.0000       0.261946         7.1279 
  33   0.0000       0.269812         7.3420 
  34   0.0000       0.292785         7.9671 
  35   0.0000       0.307714         8.3733 
  36   0.0000       0.309949         8.4341 
  37   0.0000       0.317311         8.6345 
  38   0.0000       0.325974         8.8702 
  39   0.0000       0.332500         9.0478 
  40   0.0000       0.337059         9.1718 
  41   0.0000       0.338183         9.2024 
  42   0.0000       0.350475         9.5369 
  43   0.0000       0.364689         9.9237 
  44   0.0000       0.374074        10.1791 
  45   0.0000       0.380301        10.3485 
  46   0.0000       0.395137        10.7522 
  47   0.0000       0.399015        10.8577 
  48   0.0000       0.406291        11.0557 
  49   0.0000       0.409402        11.1404 
  50   0.0000       0.421675        11.4743 
  51   0.0000       0.429539        11.6883 
  52   0.0000       0.446879        12.1602 
  53   0.0000       0.451900        12.2968 
  54   0.0000       0.474235        12.9046 
  55   0.0000       0.484798        13.1920 
  56   0.0000       0.485592        13.2136 
  57   0.0000       0.488151        13.2833 
  58   0.0000       0.494035        13.4434 
  59   0.0000       0.512444        13.9443 
  60   0.0000       0.518363        14.1054 
  61   0.0000       0.521929        14.2024 
  62   0.0000       0.532341        14.4857 
  63   0.0000       0.541457        14.7338 
  64   0.0000       0.547736        14.9047 
  65   0.0000       0.561843        15.2885 
  66   0.0000       0.569717        15.5028 
  67   0.0000       0.580316        15.7912 
  68   0.0000       0.595750        16.2112 
  69   0.0000       0.605592        16.4790 
  70   0.0000       0.621938        16.9238 
  71   0.0000       0.627503        17.0752 
  72   0.0000       0.651610        17.7312 
  73   0.0000       0.689647        18.7663 
  74   0.0000       0.695457        18.9244 
  75   0.0000       0.710105        19.3229 
  76   0.0000       0.730716        19.8838 
  77   0.0000       0.736098        20.0302 
  78   0.0000       0.758291        20.6341 
  79   0.0000       0.773679        21.0529 
  80   0.0000       0.778704        21.1896 
  81   0.0000       0.793452        21.5909 
  82   0.0000       0.823692        22.4138 
  83   0.0000       0.832542        22.6546 
  84   0.0000       0.836286        22.7565 
  85   0.0000       0.857164        23.3246 
  86   0.0000       0.869699        23.6657 
  87   0.0000       0.879977        23.9454 
  88   0.0000       0.905871        24.6500 
  89   0.0000       0.921005        25.0618 
  90   0.0000       0.945250        25.7216 
  91   0.0000       0.968861        26.3640 
  92   0.0000       0.982355        26.7312 
  93   0.0000       0.994606        27.0646 
  94   0.0000       1.049623        28.5617 
  95   0.0000       1.054727        28.7006 
  96   0.0000       1.061647        28.8889 
  97   0.0000       1.092696        29.7338 
  98   0.0000       1.136929        30.9374 
  99   0.0000       1.239551        33.7299 
 100   0.0000       1.247772        33.9536 
 101   0.0000       1.273026        34.6408 
 102   0.0000       1.284020        34.9400 
 103   0.0000       1.341581        36.5063 
 104   0.0000       1.353184        36.8220 
 105   0.0000       1.369317        37.2610 
 106   0.0000       1.379172        37.5292 
 107   0.0000       1.482423        40.3388 
 108   0.0000       1.503771        40.9197 
 109   0.0000       1.571657        42.7669 
 110   0.0000       1.639494        44.6129 
 111   0.0000       1.661276        45.2056 
 112   0.0000       1.706384        46.4331 
 113   0.0000       1.732135        47.1338 
 114   0.0000       1.749634        47.6100 
 115   0.0000       1.781036        48.4645 
 116   0.0000       1.863011        50.6951 
 117   0.0000       1.899415        51.6857 
 118   0.0000       1.905296        51.8457 
 119   0.0000       1.920007        52.2461 
 120   0.0000       1.963749        53.4363 
 121   0.0000       1.967964        53.5510 
 122   0.0000       1.984175        53.9922 
 123   0.0000       2.022997        55.0485 
 124   0.0000       2.029353        55.2215 
 125   0.0000       2.051643        55.8281 
 126   0.0000       2.067161        56.2503 
 127   0.0000       2.129761        57.9538 
 128   0.0000       2.162220        58.8370 
 129   0.0000       2.189464        59.5784 
 130   0.0000       2.236490        60.8580 
 131   0.0000       2.269011        61.7429 
 132   0.0000       2.313544        62.9547 
 133   0.0000       2.337408        63.6041 
 134   0.0000       2.356760        64.1307 
 135   0.0000       2.419206        65.8300 
 136   0.0000       2.461593        66.9833 
 137   0.0000       2.479718        67.4765 
 138   0.0000       2.499465        68.0139 
 139   0.0000       2.573205        70.0205 
 140   0.0000       2.604429        70.8701 
 141   0.0000       2.623346        71.3849 
 142   0.0000       2.638323        71.7924 
 143   0.0000       2.676311        72.8261 
 144   0.0000       2.724980        74.1505 
 145   0.0000       2.751439        74.8705 
 146   0.0000       2.791849        75.9701 
 147   0.0000       2.822670        76.8088 
 148   0.0000       2.841900        77.3320 
 149   0.0000       2.884707        78.4969 
 150   0.0000       2.920693        79.4761 
 151   0.0000       2.934134        79.8418 
 152   0.0000       3.001960        81.6875 
 153   0.0000       3.019081        82.1534 
 154   0.0000       3.085939        83.9727 
 155   0.0000       3.121197        84.9321 
 156   0.0000       3.132114        85.2292 
 157   0.0000       3.147737        85.6543 
 158   0.0000       3.232930        87.9725 
 159   0.0000       3.247263        88.3625 
 160   0.0000       3.248323        88.3914 
 161   0.0000       3.296233        89.6951 
 162   0.0000       3.315212        90.2115 
 163   0.0000       3.345092        91.0246 
 164   0.0000       3.371845        91.7526 
 165   0.0000       3.411567        92.8335 
 166   0.0000       3.431376        93.3725 
 167   0.0000       3.453557        93.9761 
 168   0.0000       3.467789        94.3633 
 169   0.0000       3.533734        96.1578 
 170   0.0000       3.556233        96.7700 
 171   0.0000       3.579432        97.4013 
 172   0.0000       3.606135        98.1279 
 173   0.0000       3.667159        99.7885 
 174   0.0000       3.680465       100.1505 
 175   0.0000       3.704656       100.8088 
 176   0.0000       3.740825       101.7930 
 177   0.0000       3.923237       106.7567 
 178   0.0000       3.953374       107.5768 
 179   0.0000       3.982173       108.3604 
 180   0.0000       3.990744       108.5937 
 181   0.0000       4.104581       111.6913 
 182   0.0000       4.123534       112.2071 
 183   0.0000       4.191182       114.0479 
 184   0.0000       4.289338       116.7188 
 185   0.0000       4.365021       118.7783 
 186   0.0000       4.449757       121.0840 
 187   0.0000       4.502330       122.5146 
 188   0.0000       4.520663       123.0135 
 189   0.0000       4.596997       125.0906 
 190   0.0000       4.661888       126.8564 
 191   0.0000       4.695392       127.7681 
 192   0.0000       4.816484       131.0632 
 193   0.0000       4.860317       132.2559 
 194   0.0000       4.934222       134.2670 
 195   0.0000       4.942431       134.4904 
 196   0.0000       5.009108       136.3048 
 197   0.0000       5.063488       137.7845 
 198   0.0000       5.201612       141.5431 
 199   0.0000       5.232367       142.3799 
 200   0.0000       5.320421       144.7760 
 201   0.0000       5.399008       146.9145 
 202   0.0000       5.542658       150.8234 
 203   0.0000       5.631154       153.2315 
 204   0.0000       5.673091       154.3726 
 205   0.0000       5.899566       160.5354 
 206   0.0000       6.214133       169.0952 
 207   0.0000      22.736772       618.6990 
 208   0.0000      22.877559       622.5300 
 209   0.0000      23.539094       640.5313 
 210   0.0000      32.508033       884.5886 

                    ********************************
                    * MULLIKEN POPULATION ANALYSIS *
                    ********************************

-----------------------
MULLIKEN ATOMIC CHARGES
-----------------------
   0 C :   -1.114778
   1 C :    1.130765
   2 N :   -0.458324
   3 C :   -1.496178
   4 H :    0.346774
   5 H :    0.337148
   6 H :    0.189895
   7 H :    0.157206
   8 H :    0.328602
   9 H :    0.289240
  10 H :    0.289649
Sum of atomic charges:   -0.0000000

--------------------------------
MULLIKEN REDUCED ORBITAL CHARGES
--------------------------------
  0 C s       :     3.461287  s :     3.461287
      pz      :     1.132801  p :     3.547570
      px      :     1.319296
      py      :     1.095473
      dz2     :     0.021730  d :     0.103016
      dxz     :     0.031503
      dyz     :     0.012588
      dx2y2   :     0.027920
      dxy     :     0.009275
      f0      :     0.000141  f :     0.002905
      f+1     :     0.000024
      f-1     :     0.000460
      f+2     :     0.001455
      f-2     :     0.000490
      f+3     :     0.000240
      f-3     :     0.000097
  1 C s       :     2.973538  s :     2.973538
      pz      :     0.602706  p :     1.858481
      px      :     0.621679
      py      :     0.634096
      dz2     :     0.004648  d :     0.022577
      dxz     :     0.043153
      dyz     :    -0.028245
      dx2y2   :     0.022282
      dxy     :    -0.019260
      f0      :     0.002209  f :     0.014639
      f+1     :     0.001345
      f-1     :     0.001672
      f+2     :     0.001627
      f-2     :     0.002941
      f+3     :     0.003069
      f-3     :     0.001776
  2 N s       :     3.473714  s :     3.473714
      pz      :     1.350469  p :     3.918642
      px      :     1.263868
      py      :     1.304305
      dz2     :     0.006571  d :     0.062509
      dxz     :     0.015656
      dyz     :     0.012183
      dx2y2   :     0.016165
      dxy     :     0.011934
      f0      :     0.000285  f :     0.003459
      f+1     :     0.000526
      f-1     :     0.000343
      f+2     :     0.000577
      f-2     :     0.000640
      f+3     :     0.000646
      f-3     :     0.000444
  3 C s       :     3.871415  s :     3.871415
      pz      :     1.106428  p :     3.573488
      px      :     1.175711
      py      :     1.291349
      dz2     :     0.012714  d :     0.046297
      dxz     :     0.003787
      dyz     :     0.009560
      dx2y2   :     0.010661
      dxy     :     0.009575
      f0      :     0.000936  f :     0.004978
      f+1     :     0.000673
      f-1     :     0.000531
      f+2     :     0.000818
      f-2     :     0.001156
      f+3     :     0.000383
      f-3     :     0.000480
  4 H s       :     0.593287  s :     0.593287
      pz      :     0.009602  p :     0.059939
      px      :     0.029253
      py      :     0.021084
  5 H s       :     0.597627  s :     0.597627
      pz      :     0.022103  p :     0.065225
      px      :     0.016748
      py      :     0.026373
  6 H s       :     0.763010  s :     0.763010
      pz      :     0.021630  p :     0.047095
      px      :     0.018276
      py      :     0.007189
  7 H s       :     0.791387  s :     0.791387
      pz      :     0.016328  p :     0.051407
      px      :     0.010123
      py      :     0.024956
  8 H s       :     0.604996  s :     0.604996
      pz      :     0.026999  p :     0.066402
      px      :     0.026116
      py      :     0.013287
  9 H s       :     0.649151  s :     0.649151
      pz      :     0.014173  p :     0.061609
      px      :     0.040723
      py      :     0.006714
 10 H s       :     0.648664  s :     0.648664
      pz      :     0.012167  p :     0.061686
      px      :     0.021365
      py      :     0.028155


                     *******************************
                     * LOEWDIN POPULATION ANALYSIS *
                     *******************************

----------------------
LOEWDIN ATOMIC CHARGES
----------------------
   0 C :   -0.041123
   1 C :   -0.524680
   2 N :    0.082024
   3 C :   -0.005596
   4 H :    0.033492
   5 H :    0.025655
   6 H :    0.100523
   7 H :    0.107379
   8 H :    0.063249
   9 H :    0.079592
  10 H :    0.079485

-------------------------------
LOEWDIN REDUCED ORBITAL CHARGES
-------------------------------
  0 C s       :     2.711785  s :     2.711785
      pz      :     0.953860  p :     2.866884
      px      :     0.963256
      py      :     0.949768
      dz2     :     0.072699  d :     0.435122
      dxz     :     0.109006
      dyz     :     0.098440
      dx2y2   :     0.099875
      dxy     :     0.055102
      f0      :     0.004795  f :     0.027332
      f+1     :     0.001825
      f-1     :     0.004417
      f+2     :     0.006045
      f-2     :     0.003205
      f+3     :     0.004064
      f-3     :     0.002981
  1 C s       :     2.618775  s :     2.618775
      pz      :     0.901794  p :     2.604279
      px      :     0.874350
      py      :     0.828135
      dz2     :     0.243781  d :     1.207953
      dxz     :     0.229795
      dyz     :     0.227851
      dx2y2   :     0.272664
      dxy     :     0.233862
      f0      :     0.014148  f :     0.093673
      f+1     :     0.010450
      f-1     :     0.010878
      f+2     :     0.011194
      f-2     :     0.015223
      f+3     :     0.019214
      f-3     :     0.012565
  2 N s       :     2.902148  s :     2.902148
      pz      :     1.199885  p :     3.608893
      px      :     1.206847
      py      :     1.202161
      dz2     :     0.040154  d :     0.395540
      dxz     :     0.105240
      dyz     :     0.058767
      dx2y2   :     0.106873
      dxy     :     0.084507
      f0      :     0.001045  f :     0.011395
      f+1     :     0.001582
      f-1     :     0.001126
      f+2     :     0.001576
      f-2     :     0.001741
      f+3     :     0.002674
      f-3     :     0.001649
  3 C s       :     2.715248  s :     2.715248
      pz      :     0.969313  p :     2.855861
      px      :     0.958148
      py      :     0.928400
      dz2     :     0.080566  d :     0.400613
      dxz     :     0.077554
      dyz     :     0.100971
      dx2y2   :     0.074195
      dxy     :     0.067327
      f0      :     0.004737  f :     0.033873
      f+1     :     0.007113
      f-1     :     0.003428
      f+2     :     0.006634
      f-2     :     0.005716
      f+3     :     0.002606
      f-3     :     0.003639
  4 H s       :     0.719394  s :     0.719394
      pz      :     0.068412  p :     0.247113
      px      :     0.092768
      py      :     0.085934
  5 H s       :     0.728142  s :     0.728142
      pz      :     0.079852  p :     0.246203
      px      :     0.068686
      py      :     0.097665
  6 H s       :     0.629149  s :     0.629149
      pz      :     0.108174  p :     0.270328
      px      :     0.085798
      py      :     0.076356
  7 H s       :     0.630933  s :     0.630933
      pz      :     0.088748  p :     0.261688
      px      :     0.067274
      py      :     0.105666
  8 H s       :     0.707123  s :     0.707123
      pz      :     0.078826  p :     0.229628
      px      :     0.090528
      py      :     0.060274
  9 H s       :     0.701157  s :     0.701157
      pz      :     0.067271  p :     0.219252
      px      :     0.094884
      py      :     0.057097
 10 H s       :     0.701410  s :     0.701410
      pz      :     0.072551  p :     0.219105
      px      :     0.057812
      py      :     0.088741


                      *****************************
                      * MAYER POPULATION ANALYSIS *
                      *****************************

  NA   - Mulliken gross atomic population
  ZA   - Total nuclear charge
  QA   - Mulliken gross atomic charge
  VA   - Mayer's total valence
  BVA  - Mayer's bonded valence
  FA   - Mayer's free valence

  ATOM       NA         ZA         QA         VA         BVA        FA
  0 C      7.1148     6.0000    -1.1148     3.6288     3.6288    -0.0000
  1 C      4.8692     6.0000     1.1308     2.2555     2.2555     0.0000
  2 N      7.4583     7.0000    -0.4583     3.2478     3.2478    -0.0000
  3 C      7.4962     6.0000    -1.4962     3.2482     3.2482    -0.0000
  4 H      0.6532     1.0000     0.3468     0.9462     0.9462     0.0000
  5 H      0.6629     1.0000     0.3371     0.9378     0.9378    -0.0000
  6 H      0.8101     1.0000     0.1899     0.9871     0.9871    -0.0000
  7 H      0.8428     1.0000     0.1572     1.0173     1.0173    -0.0000
  8 H      0.6714     1.0000     0.3286     0.9777     0.9777    -0.0000
  9 H      0.7108     1.0000     0.2892     0.9962     0.9962    -0.0000
 10 H      0.7104     1.0000     0.2896     0.9910     0.9910    -0.0000

  Mayer bond orders larger than 0.100000
B(  0-C ,  1-C ) :   0.5536 B(  0-C ,  3-C ) :   0.1212 B(  0-C ,  8-H ) :   0.9739 
B(  0-C ,  9-H ) :   0.9483 B(  0-C , 10-H ) :   0.9550 B(  1-C ,  2-N ) :   0.9609 
B(  1-C ,  3-C ) :   1.0755 B(  1-C ,  5-H ) :  -0.1072 B(  2-N ,  3-C ) :   0.1156 
B(  2-N ,  6-H ) :   1.0151 B(  2-N ,  7-H ) :   1.0537 B(  3-C ,  4-H ) :   0.9252 
B(  3-C ,  5-H ) :   0.9771 

-------
TIMINGS
-------

Total SCF time: 0 days 0 hours 0 min 14 sec 

Total time                  ....      14.553 sec
Sum of individual times     ....      14.261 sec  ( 98.0%)

Fock matrix formation       ....      13.188 sec  ( 90.6%)
  Split-RI-J                ....       0.880 sec  (  6.7% of F)
  Chain of spheres X        ....      10.732 sec  ( 81.4% of F)
  XC integration            ....       1.493 sec  ( 11.3% of F)
    Basis function eval.    ....       0.372 sec  ( 25.0% of XC)
    Density eval.           ....       0.322 sec  ( 21.6% of XC)
    XC-Functional eval.     ....       0.086 sec  (  5.7% of XC)
    XC-Potential eval.      ....       0.494 sec  ( 33.1% of XC)
Diagonalization             ....       0.123 sec  (  0.8%)
Density matrix formation    ....       0.012 sec  (  0.1%)
Population analysis         ....       0.017 sec  (  0.1%)
Initial guess               ....       0.088 sec  (  0.6%)
Orbital Transformation      ....       0.000 sec  (  0.0%)
Orbital Orthonormalization  ....       0.000 sec  (  0.0%)
DIIS solution               ....       0.079 sec  (  0.5%)
SOSCF solution              ....       0.076 sec  (  0.5%)
Grid generation             ....       0.678 sec  (  4.7%)

Maximum memory used throughout the entire SCF-calculation: 67.6 MB


-------------------------------------------------------------------------------
                          DFT DISPERSION CORRECTION                            
                                                                               
                              DFTD3 V3.1  Rev 1                                
                              USING zero damping                               
-------------------------------------------------------------------------------
The omegaB97X-D3 functional is recognized. Fit by Chai et al.
Active option DFTDOPT                   ...         3   

molecular C6(AA) [au] = 933.648041 


            DFT-D V3
 parameters
 s6 scaling factor         :     1.0000 
 rs6 scaling factor        :     1.2810 
 s8 scaling factor         :     1.0000 
 rs8 scaling factor        :     1.0940 
 Damping factor alpha6     :    14.0000 
 Damping factor alpha8     :    16.0000 
 ad hoc parameters k1-k3   :    16.0000     1.3333    -4.0000 

 Edisp/kcal,au: -1.045748286475  -0.001666505795 
 E6   /kcal   :  -0.398045024 
 E8   /kcal   :  -0.647703263 
 % E8         :  61.936822754 

-------------------------   ----------------
Dispersion correction           -0.001666506
-------------------------   ----------------


-------------------------   --------------------
FINAL SINGLE POINT ENERGY      -173.268572500480
-------------------------   --------------------


                            ***************************************
                            *     ORCA property calculations      *
                            ***************************************

                                    ---------------------
                                    Active property flags
                                    ---------------------
   (+) Dipole Moment


------------------------------------------------------------------------------
                       ORCA ELECTRIC PROPERTIES CALCULATION
------------------------------------------------------------------------------

Dipole Moment Calculation                       ... on
Quadrupole Moment Calculation                   ... off
Polarizability Calculation                      ... off
GBWName                                         ... C2_pos.gbw
Electron density file                           ... C2_pos.scfp
The origin for moment calculation is the CENTER OF MASS  = ( 4.767532, -3.221430 -5.310174)

-------------
DIPOLE MOMENT
-------------
                                X             Y             Z
Electronic contribution:      1.03527       1.24426       0.47165
Nuclear contribution   :     -0.50975      -1.14105      -0.93029
                        -----------------------------------------
Total Dipole Moment    :      0.52552       0.10321      -0.45864
                        -----------------------------------------
Magnitude (a.u.)       :      0.70511
Magnitude (Debye)      :      1.79223



--------------------
Rotational spectrum 
--------------------
 
Rotational constants in cm-1:     0.350603     0.305690     0.168346 
Rotational constants in MHz : 10510.799277  9164.357607  5046.873498 

 Dipole components along the rotational axes: 
x,y,z [a.u.] :     0.121105    -0.691089    -0.070016 
x,y,z [Debye]:     0.307825    -1.756609    -0.177966 

 

Timings for individual modules:

Sum of individual times         ...       15.665 sec (=   0.261 min)
GTO integral calculation        ...        0.661 sec (=   0.011 min)   4.2 %
SCF iterations                  ...       15.005 sec (=   0.250 min)  95.8 %
                             ****ORCA TERMINATED NORMALLY****
TOTAL RUN TIME: 0 days 0 hours 0 minutes 16 seconds 233 msec
