
                                        *****************
                                        * O   R   C   A *
                                        *****************

                                            #,                                       
                                            ###                                      
                                            ####                                     
                                            #####                                    
                                            ######                                   
                                           ########,                                 
                                     ,,################,,,,,                         
                               ,,#################################,,                 
                          ,,##########################################,,             
                       ,#########################################, ''#####,          
                    ,#############################################,,   '####,        
                  ,##################################################,,,,####,       
                ,###########''''           ''''###############################       
              ,#####''   ,,,,##########,,,,          '''####'''          '####       
            ,##' ,,,,###########################,,,                        '##       
           ' ,,###''''                  '''############,,,                           
         ,,##''                                '''############,,,,        ,,,,,,###''
      ,#''                                            '''#######################'''  
     '                                                          ''''####''''         
             ,#######,   #######,   ,#######,      ##                                
            ,#'     '#,  ##    ##  ,#'     '#,    #''#        ######   ,####,        
            ##       ##  ##   ,#'  ##            #'  '#       #        #'  '#        
            ##       ##  #######   ##           ,######,      #####,   #    #        
            '#,     ,#'  ##    ##  '#,     ,#' ,#      #,         ##   #,  ,#        
             '#######'   ##     ##  '#######'  #'      '#     #####' # '####'        



                  #######################################################
                  #                        -***-                        #
                  #          Department of theory and spectroscopy      #
                  #    Directorship and core code : Frank Neese         #
                  #        Max Planck Institute fuer Kohlenforschung    #
                  #                Kaiser Wilhelm Platz 1               #
                  #                 D-45470 Muelheim/Ruhr               #
                  #                      Germany                        #
                  #                                                     #
                  #                  All rights reserved                #
                  #                        -***-                        #
                  #######################################################


                         Program Version 5.0.0 -  RELEASE  -
                                (SVN: $Rev: 19529$)
                ($Date: 2021-06-28 11:36:33 +0200 (Mo, 28 Jun 2021) $)


 With contributions from (in alphabetic order):
   Daniel Aravena         : Magnetic Suceptibility
   Michael Atanasov       : Ab Initio Ligand Field Theory (pilot matlab implementation)
   Alexander A. Auer      : GIAO ZORA, VPT2 properties, NMR spectrum
   Ute Becker             : Parallelization
   Giovanni Bistoni       : ED, misc. LED, open-shell LED, HFLD
   Martin Brehm           : Molecular dynamics
   Dmytro Bykov           : SCF Hessian
   Vijay G. Chilkuri      : MRCI spin determinant printing, contributions to CSF-ICE
   Dipayan Datta          : RHF DLPNO-CCSD density
   Achintya Kumar Dutta   : EOM-CC, STEOM-CC
   Dmitry Ganyushin       : Spin-Orbit,Spin-Spin,Magnetic field MRCI
   Miquel Garcia          : C-PCM Hessian, Gaussian charge scheme
   Yang Guo               : DLPNO-NEVPT2, F12-NEVPT2, CIM, IAO-localization
   Andreas Hansen         : Spin unrestricted coupled pair/coupled cluster methods
   Benjamin Helmich-Paris : MC-RPA, TRAH-SCF, COSX integrals
   Lee Huntington         : MR-EOM, pCC
   Robert Izsak           : Overlap fitted RIJCOSX, COSX-SCS-MP3, EOM
   Marcus Kettner         : VPT2
   Christian Kollmar      : KDIIS, OOCD, Brueckner-CCSD(T), CCSD density, CASPT2, CASPT2-K
   Simone Kossmann        : Meta GGA functionals, TD-DFT gradient, OOMP2, MP2 Hessian
   Martin Krupicka        : Initial AUTO-CI
   Lucas Lang             : DCDCAS
   Marvin Lechner         : AUTO-CI (C++ implementation), FIC-MRCC
   Dagmar Lenk            : GEPOL surface, SMD
   Dimitrios Liakos       : Extrapolation schemes; Compound Job, initial MDCI parallelization
   Dimitrios Manganas     : Further ROCIS development; embedding schemes
   Dimitrios Pantazis     : SARC Basis sets
   Anastasios Papadopoulos: AUTO-CI, single reference methods and gradients
   Taras Petrenko         : DFT Hessian,TD-DFT gradient, ASA, ECA, R-Raman, ABS, FL, XAS/XES, NRVS
   Peter Pinski           : DLPNO-MP2, DLPNO-MP2 Gradient
   Christoph Reimann      : Effective Core Potentials
   Marius Retegan         : Local ZFS, SOC
   Christoph Riplinger    : Optimizer, TS searches, QM/MM, DLPNO-CCSD(T), (RO)-DLPNO pert. Triples
   Tobias Risthaus        : Range-separated hybrids, TD-DFT gradient, RPA, STAB
   Michael Roemelt        : Original ROCIS implementation
   Masaaki Saitow         : Open-shell DLPNO-CCSD energy and density
   Barbara Sandhoefer     : DKH picture change effects
   Avijit Sen             : IP-ROCIS
   Kantharuban Sivalingam : CASSCF convergence, NEVPT2, FIC-MRCI
   Bernardo de Souza      : ESD, SOC TD-DFT
   Georgi Stoychev        : AutoAux, RI-MP2 NMR
   Willem Van den Heuvel  : Paramagnetic NMR
   Boris Wezisla          : Elementary symmetry handling
   Frank Wennmohs         : Technical directorship


 We gratefully acknowledge several colleagues who have allowed us to
 interface, adapt or use parts of their codes:
   Stefan Grimme, W. Hujo, H. Kruse, P. Pracht,  : VdW corrections, initial TS optimization,
                  C. Bannwarth, S. Ehlert          DFT functionals, gCP, sTDA/sTD-DF
   Ed Valeev, F. Pavosevic, A. Kumar             : LibInt (2-el integral package), F12 methods
   Garnet Chan, S. Sharma, J. Yang, R. Olivares  : DMRG
   Ulf Ekstrom                                   : XCFun DFT Library
   Mihaly Kallay                                 : mrcc  (arbitrary order and MRCC methods)
   Jiri Pittner, Ondrej Demel                    : Mk-CCSD
   Frank Weinhold                                : gennbo (NPA and NBO analysis)
   Christopher J. Cramer and Donald G. Truhlar   : smd solvation model
   Lars Goerigk                                  : TD-DFT with DH, B97 family of functionals
   V. Asgeirsson, H. Jonsson                     : NEB implementation
   FAccTs GmbH                                   : IRC, NEB, NEB-TS, DLPNO-Multilevel, CI-OPT
                                                   MM, QMMM, 2- and 3-layer-ONIOM, Crystal-QMMM,
                                                   LR-CPCM, SF, NACMEs, symmetry and pop. for TD-DFT,
                                                   nearIR, NL-DFT gradient (VV10), updates on ESD,
                                                   ML-optimized integration grids
   S Lehtola, MJT Oliveira, MAL Marques          : LibXC Library
   Liviu Ungur et al                             : ANISO software


 Your calculation uses the libint2 library for the computation of 2-el integrals
 For citations please refer to: http://libint.valeyev.net

 Your ORCA version has been built with support for libXC version: 5.1.0
 For citations please refer to: https://tddft.org/programs/libxc/

 This ORCA versions uses:
   CBLAS   interface :  Fast vector & matrix operations
   LAPACKE interface :  Fast linear algebra routines
   SCALAPACK package :  Parallel linear algebra routines
   Shared memory     :  Shared parallel matrices
   BLAS/LAPACK       :  OpenBLAS 0.3.15  USE64BITINT DYNAMIC_ARCH NO_AFFINITY Haswell SINGLE_THREADED
        Core in use  :  Haswell
   Copyright (c) 2011-2014, The OpenBLAS Project


Your calculation utilizes the atom-pairwise dispersion correction
with the Becke-Johnson damping scheme (D3BJ)
Cite in your paper:
S.Grimme, S.Ehrlich, L.Goerigk, J Comput Chem, (2011), 32, 1456–1465 
S.Grimme, J.Antony, S.Ehrlich and H.Krieg, J.Chem.Phys., 132, (2010), 154104 
   

================================================================================

----- Orbital basis set information -----
Your calculation utilizes the basis: def2-TZVP
   F. Weigend and R. Ahlrichs, Phys. Chem. Chem. Phys. 7, 3297 (2005).

----- AuxJ basis set information -----
Your calculation utilizes the auxiliary basis: def2/J
   F. Weigend, Phys. Chem. Chem. Phys. 8, 1057 (2006).

================================================================================
                                        WARNINGS
                       Please study these warnings very carefully!
================================================================================


INFO   : the flag for use of the SHARK integral package has been found!

================================================================================
                                       INPUT FILE
================================================================================
NAME = TZVP_PBE0_A_wt_dlpno_neg.com
|  1> !PBE0 D3BJ RIJCOSX def2-TZVP def2/J TightSCF
|  2> *xyz -1 1
|  3> C          0.96805        1.63064       -3.71575
|  4> C         -0.50835        1.72268       -4.12430
|  5> S         -1.32861        0.14674       -4.43578
|  6> H         -0.59151        2.29496       -5.04722
|  7> H         -1.11411        2.23561       -3.37436
|  8> O         -2.57135        0.47573       -5.06834
|  9> O         -1.51496       -0.40051       -3.06342
| 10> O         -0.37793       -0.62756       -5.20114
| 11> H          1.51840        1.12197       -4.47946
| 12> H          1.05062        1.08971       -2.79625
| 13> H          1.36450        2.61606       -3.58668
| 14> *
| 15> %MaxCore 64000
| 16> 
| 17> %pal nprocs 4
| 18> end  
| 19> 
| 20> %scf
| 21>   MaxIter 150
| 22> end
| 23> 
| 24> 
| 25>                          ****END OF INPUT****
================================================================================

                       ****************************
                       * Single Point Calculation *
                       ****************************

---------------------------------
CARTESIAN COORDINATES (ANGSTROEM)
---------------------------------
  C      0.968050    1.630640   -3.715750
  C     -0.508350    1.722680   -4.124300
  S     -1.328610    0.146740   -4.435780
  H     -0.591510    2.294960   -5.047220
  H     -1.114110    2.235610   -3.374360
  O     -2.571350    0.475730   -5.068340
  O     -1.514960   -0.400510   -3.063420
  O     -0.377930   -0.627560   -5.201140
  H      1.518400    1.121970   -4.479460
  H      1.050620    1.089710   -2.796250
  H      1.364500    2.616060   -3.586680

----------------------------
CARTESIAN COORDINATES (A.U.)
----------------------------
  NO LB      ZA    FRAG     MASS         X           Y           Z
   0 C     6.0000    0    12.011    1.829349    3.081463   -7.021750
   1 C     6.0000    0    12.011   -0.960642    3.255393   -7.793797
   2 S    16.0000    0    32.060   -2.510709    0.277298   -8.382409
   3 H     1.0000    0     1.008   -1.117792    4.336846   -9.537864
   4 H     1.0000    0     1.008   -2.105363    4.224691   -6.376616
   5 O     8.0000    0    15.999   -4.859147    0.898999   -9.577775
   6 O     8.0000    0    15.999   -2.862860   -0.756854   -5.789025
   7 O     8.0000    0    15.999   -0.714184   -1.185917   -9.828730
   8 H     1.0000    0     1.008    2.869360    2.120216   -8.464953
   9 H     1.0000    0     1.008    1.985384    2.059253   -5.284147
  10 H     1.0000    0     1.008    2.578531    4.943637   -6.777843

--------------------------------
INTERNAL COORDINATES (ANGSTROEM)
--------------------------------
 C      0   0   0     0.000000000000     0.00000000     0.00000000
 C      1   0   0     1.534647003092     0.00000000     0.00000000
 S      2   1   0     1.803727568565   115.53546249     0.00000000
 H      2   1   3     1.089128693222   109.30283314   240.40847439
 H      2   1   3     1.091994673110   112.27278736   121.80830992
 O      3   2   1     1.432748854929   105.66825675   192.14354175
 O      3   2   1     1.489154409254   102.64124569    74.09180184
 O      3   2   1     1.445374997016   105.09290493   316.90648081
 H      1   2   3     1.069992175439   109.47076090    58.19150387
 H      1   2   3     1.070001551307   109.47111129   298.19165820
 H      1   2   3     1.069992637264   109.47116908   178.19193625

---------------------------
INTERNAL COORDINATES (A.U.)
---------------------------
 C      0   0   0     0.000000000000     0.00000000     0.00000000
 C      1   0   0     2.900062548087     0.00000000     0.00000000
 S      2   1   0     3.408551124791   115.53546249     0.00000000
 H      2   1   3     2.058154954786   109.30283314   240.40847439
 H      2   1   3     2.063570871878   112.27278736   121.80830992
 O      3   2   1     2.707502954505   105.66825675   192.14354175
 O      3   2   1     2.814094004611   102.64124569    74.09180184
 O      3   2   1     2.731362905178   105.09290493   316.90648081
 H      1   2   3     2.021992177018   109.47076090    58.19150387
 H      1   2   3     2.022009894842   109.47111129   298.19165820
 H      1   2   3     2.021993049742   109.47116908   178.19193625

---------------------
BASIS SET INFORMATION
---------------------
There are 4 groups of distinct atoms

 Group   1 Type C   : 11s6p2d1f contracted to 5s3p2d1f pattern {62111/411/11/1}
 Group   2 Type S   : 14s9p3d1f contracted to 5s5p2d1f pattern {73211/51111/21/1}
 Group   3 Type H   : 5s1p contracted to 3s1p pattern {311/1}
 Group   4 Type O   : 11s6p2d1f contracted to 5s3p2d1f pattern {62111/411/11/1}

Atom   0C    basis set group =>   1
Atom   1C    basis set group =>   1
Atom   2S    basis set group =>   2
Atom   3H    basis set group =>   3
Atom   4H    basis set group =>   3
Atom   5O    basis set group =>   4
Atom   6O    basis set group =>   4
Atom   7O    basis set group =>   4
Atom   8H    basis set group =>   3
Atom   9H    basis set group =>   3
Atom  10H    basis set group =>   3
---------------------------------
AUXILIARY/J BASIS SET INFORMATION
---------------------------------
There are 4 groups of distinct atoms

 Group   1 Type C   : 12s5p4d2f1g contracted to 6s4p3d1f1g pattern {711111/2111/211/2/1}
 Group   2 Type S   : 14s5p5d2f1g contracted to 8s4p3d1f1g pattern {71111111/2111/311/2/1}
 Group   3 Type H   : 5s2p1d contracted to 3s1p1d pattern {311/2/1}
 Group   4 Type O   : 12s5p4d2f1g contracted to 6s4p3d1f1g pattern {711111/2111/211/2/1}

Atom   0C    basis set group =>   1
Atom   1C    basis set group =>   1
Atom   2S    basis set group =>   2
Atom   3H    basis set group =>   3
Atom   4H    basis set group =>   3
Atom   5O    basis set group =>   4
Atom   6O    basis set group =>   4
Atom   7O    basis set group =>   4
Atom   8H    basis set group =>   3
Atom   9H    basis set group =>   3
Atom  10H    basis set group =>   3


           ************************************************************
           *        Program running with 4 parallel MPI-processes     *
           *              working on a common directory               *
           ************************************************************
------------------------------------------------------------------------------
                           ORCA GTO INTEGRAL CALCULATION
                           -- RI-GTO INTEGRALS CHOSEN --
------------------------------------------------------------------------------
------------------------------------------------------------------------------
                   ___                                                        
                  /   \      - P O W E R E D   B Y -                         
                 /     \                                                     
                 |  |  |   _    _      __       _____    __    __             
                 |  |  |  | |  | |    /  \     |  _  \  |  |  /  |          
                  \  \/   | |  | |   /    \    | | | |  |  | /  /          
                 / \  \   | |__| |  /  /\  \   | |_| |  |  |/  /          
                |  |  |   |  __  | /  /__\  \  |    /   |      \           
                |  |  |   | |  | | |   __   |  |    \   |  |\   \          
                \     /   | |  | | |  |  |  |  | |\  \  |  | \   \       
                 \___/    |_|  |_| |__|  |__|  |_| \__\ |__|  \__/        
                                                                              
                      - O R C A' S   B I G   F R I E N D -                    
                                      &                                       
                       - I N T E G R A L  F E E D E R -                       
                                                                              
 v1 FN, 2020, v2 2021                                                         
------------------------------------------------------------------------------


Reading SHARK input file TZVP_PBE0_A_wt_dlpno_neg.SHARKINP.tmp ... ok
----------------------
SHARK INTEGRAL PACKAGE
----------------------

Number of atoms                             ...     11
Number of basis functions                   ...    222
Number of shells                            ...     88
Maximum angular momentum                    ...      3
Integral batch strategy                     ... SHARK/LIBINT Hybrid
RI-J (if used) integral strategy            ... SPLIT-RIJ (Revised 2003 algorithm where possible)
Printlevel                                  ...      1
Contraction scheme used                     ... SEGMENTED contraction
Coulomb Range Separation                    ... NOT USED
Exchange Range Separation                   ... NOT USED
Finite Nucleus Model                        ... NOT USED
Auxiliary Coulomb fitting basis             ... AVAILABLE
   # of basis functions in Aux-J            ...    351
   # of shells in Aux-J                     ...    117
   Maximum angular momentum in Aux-J        ...      4
Auxiliary J/K fitting basis                 ... NOT available
Auxiliary Correlation fitting basis         ... NOT available
Auxiliary 'external' fitting basis          ... NOT available
Integral threshold                          ...     2.500000e-11
Primitive cut-off                           ...     2.500000e-12
Primitive pair pre-selection threshold      ...     2.500000e-12

Calculating pre-screening integrals         ... done (  0.1 sec) Dimension = 88
Organizing shell pair data                  ... done (  0.0 sec)
Shell pair information
Total number of shell pairs                 ...      3916
Shell pairs after pre-screening             ...      3676
Total number of primitive shell pairs       ...     12564
Primitive shell pairs kept                  ...      8952
          la=0 lb=0:    928 shell pairs
          la=1 lb=0:   1062 shell pairs
          la=1 lb=1:    318 shell pairs
          la=2 lb=0:    501 shell pairs
          la=2 lb=1:    293 shell pairs
          la=2 lb=2:     77 shell pairs
          la=3 lb=0:    257 shell pairs
          la=3 lb=1:    148 shell pairs
          la=3 lb=2:     71 shell pairs
          la=3 lb=3:     21 shell pairs

Calculating one electron integrals          ... done (  0.0 sec)
Calculating RI/J V-Matrix + Cholesky decomp.... done (  0.0 sec)
Calculating Nuclear repulsion               ... done (  0.0 sec) ENN=    350.328493473334 Eh

SHARK setup successfully completed in   0.2 seconds

Maximum memory used throughout the entire GTOINT-calculation: 15.3 MB


           ************************************************************
           *        Program running with 4 parallel MPI-processes     *
           *              working on a common directory               *
           ************************************************************
-------------------------------------------------------------------------------
                                 ORCA SCF
-------------------------------------------------------------------------------

------------
SCF SETTINGS
------------
Hamiltonian:
 Density Functional     Method          .... DFT(GTOs)
 Exchange Functional    Exchange        .... PBE
   PBE kappa parameter   XKappa         ....  0.804000
   PBE mue parameter    XMuePBE         ....  0.219520
 Correlation Functional Correlation     .... PBE
   PBE beta parameter  CBetaPBE         ....  0.066725
 LDA part of GGA corr.  LDAOpt          .... PW91-LDA
 Gradients option       PostSCFGGA      .... off
 Hybrid DFT is turned on
   Fraction HF Exchange ScalHFX         ....  0.250000
   Scaling of DF-GGA-X  ScalDFX         ....  0.750000
   Scaling of DF-GGA-C  ScalDFC         ....  1.000000
   Scaling of DF-LDA-C  ScalLDAC        ....  1.000000
   Perturbative correction              ....  0.000000
   Density functional embedding theory  .... OFF
   NL short-range parameter             ....  6.900000
 RI-approximation to the Coulomb term is turned on
   Number of AuxJ basis functions       .... 351
   RIJ-COSX (HFX calculated with COS-X)).... on


General Settings:
 Integral files         IntName         .... TZVP_PBE0_A_wt_dlpno_neg
 Hartree-Fock type      HFTyp           .... RHF
 Total Charge           Charge          ....   -1
 Multiplicity           Mult            ....    1
 Number of Electrons    NEL             ....   58
 Basis Dimension        Dim             ....  222
 Nuclear Repulsion      ENuc            ....    350.3284934733 Eh

Convergence Acceleration:
 DIIS                   CNVDIIS         .... on
   Start iteration      DIISMaxIt       ....    12
   Startup error        DIISStart       ....  0.200000
   # of expansion vecs  DIISMaxEq       ....     5
   Bias factor          DIISBfac        ....   1.050
   Max. coefficient     DIISMaxC        ....  10.000
 Trust-Rad. Augm. Hess. CNVTRAH         .... auto
   Auto Start mean grad. ratio tolernc. ....  1.125000
   Auto Start start iteration           ....    20
   Auto Start num. interpolation iter.  ....    10
   Max. Number of Micro iterations      ....    16
   Max. Number of Macro iterations      .... Maxiter - #DIIS iter
   Number of Davidson start vectors     ....     2
   Converg. threshold I  (grad. norm)   ....   1.000e-05
   Converg. threshold II (energy diff.) ....   1.000e-08
   Grad. Scal. Fac. for Micro threshold ....   0.100
   Minimum threshold for Micro iter.    ....   0.010
   NR start threshold (gradient norm)   ....   0.001
   Initial trust radius                 ....   0.400
   Minimum AH scaling param. (alpha)    ....   1.000
   Maximum AH scaling param. (alpha)    .... 1000.000
   Orbital update algorithm             .... Taylor
   White noise on init. David. guess    .... on
   Maximum white noise                  ....   0.010
   Quad. conv. algorithm                .... NR
 SOSCF                  CNVSOSCF        .... on
   Start iteration      SOSCFMaxIt      ....   150
   Startup grad/error   SOSCFStart      ....  0.003300
 Level Shifting         CNVShift        .... on
   Level shift para.    LevelShift      ....    0.2500
   Turn off err/grad.   ShiftErr        ....    0.0010
 Zerner damping         CNVZerner       .... off
 Static damping         CNVDamp         .... on
   Fraction old density DampFac         ....    0.7000
   Max. Damping (<1)    DampMax         ....    0.9800
   Min. Damping (>=0)   DampMin         ....    0.0000
   Turn off err/grad.   DampErr         ....    0.1000
 Fernandez-Rico         CNVRico         .... off

SCF Procedure:
 Maximum # iterations   MaxIter         ....   150
 SCF integral mode      SCFMode         .... Direct
   Integral package                     .... SHARK and LIBINT hybrid scheme
 Reset frequency        DirectResetFreq ....    20
 Integral Threshold     Thresh          ....  2.500e-11 Eh
 Primitive CutOff       TCut            ....  2.500e-12 Eh

Convergence Tolerance:
 Convergence Check Mode ConvCheckMode   .... Total+1el-Energy
 Convergence forced     ConvForced      .... 0
 Energy Change          TolE            ....  1.000e-08 Eh
 1-El. energy change                    ....  1.000e-05 Eh
 Orbital Gradient       TolG            ....  1.000e-05
 Orbital Rotation angle TolX            ....  1.000e-05
 DIIS Error             TolErr          ....  5.000e-07


Diagonalization of the overlap matrix:
Smallest eigenvalue                        ... 4.618e-04
Time for diagonalization                   ...    0.010 sec
Threshold for overlap eigenvalues          ... 1.000e-08
Number of eigenvalues below threshold      ... 0
Time for construction of square roots      ...    0.008 sec
Total time needed                          ...    0.019 sec

Time for model grid setup =    0.078 sec

------------------------------
INITIAL GUESS: MODEL POTENTIAL
------------------------------
Loading Hartree-Fock densities                     ... done
Calculating cut-offs                               ... done
Initializing the effective Hamiltonian             ... done
Setting up the integral package (SHARK)            ... done
Starting the Coulomb interaction                   ... done (   0.1 sec)
Reading the grid                                   ... done
Mapping shells                                     ... done
Starting the XC term evaluation                    ... done (   0.1 sec)
  promolecular density results
     # of electrons  =     56.995106858
     EX              =    -61.164525752
     EC              =     -2.016499526
     EX+EC           =    -63.181025278
Transforming the Hamiltonian                       ... done (   0.0 sec)
Diagonalizing the Hamiltonian                      ... done (   0.0 sec)
Back transforming the eigenvectors                 ... done (   0.0 sec)
Now organizing SCF variables                       ... done
                      ------------------
                      INITIAL GUESS DONE (   0.2 sec)
                      ------------------
-------------------
DFT GRID GENERATION
-------------------

General Integration Accuracy     IntAcc      ... 4.388
Radial Grid Type                 RadialGrid  ... OptM3 with GC (2021)
Angular Grid (max. ang.)         AngularGrid ... 4 (Lebedev-302)
Angular grid pruning method      GridPruning ... 4 (adaptive)
Weight generation scheme         WeightScheme... Becke
Basis function cutoff            BFCut       ... 1.0000e-11
Integration weight cutoff        WCut        ... 1.0000e-14
Angular grids for H and He will be reduced by one unit
Partially contracted basis set               ... off
Rotationally invariant grid construction     ... off

Total number of grid points                  ...    53863
Total number of batches                      ...      847
Average number of points per batch           ...       63
Average number of grid points per atom       ...     4897
Time for grid setup =    0.367 sec

--------------------
COSX GRID GENERATION
--------------------

GRIDX 1
-------
General Integration Accuracy     IntAcc      ... 3.816
Radial Grid Type                 RadialGrid  ... OptM3 with GC (2021)
Angular Grid (max. ang.)         AngularGrid ... 1 (Lebedev-50)
Angular grid pruning method      GridPruning ... 4 (adaptive)
Weight generation scheme         WeightScheme... Becke
Basis function cutoff            BFCut       ... 1.0000e-11
Integration weight cutoff        WCut        ... 1.0000e-14
Angular grids for H and He will be reduced by one unit
Partially contracted basis set               ... on
Rotationally invariant grid construction     ... off

Total number of grid points                  ...     6801
Total number of batches                      ...      111
Average number of points per batch           ...       61
Average number of grid points per atom       ...      618
UseSFitting                                  ... on

GRIDX 2
-------
General Integration Accuracy     IntAcc      ... 4.020
Radial Grid Type                 RadialGrid  ... OptM3 with GC (2021)
Angular Grid (max. ang.)         AngularGrid ... 2 (Lebedev-110)
Angular grid pruning method      GridPruning ... 4 (adaptive)
Weight generation scheme         WeightScheme... Becke
Basis function cutoff            BFCut       ... 1.0000e-11
Integration weight cutoff        WCut        ... 1.0000e-14
Angular grids for H and He will be reduced by one unit
Partially contracted basis set               ... on
Rotationally invariant grid construction     ... off

Total number of grid points                  ...    15002
Total number of batches                      ...      240
Average number of points per batch           ...       62
Average number of grid points per atom       ...     1364
UseSFitting                                  ... on

GRIDX 3
-------
General Integration Accuracy     IntAcc      ... 4.338
Radial Grid Type                 RadialGrid  ... OptM3 with GC (2021)
Angular Grid (max. ang.)         AngularGrid ... 3 (Lebedev-194)
Angular grid pruning method      GridPruning ... 4 (adaptive)
Weight generation scheme         WeightScheme... Becke
Basis function cutoff            BFCut       ... 1.0000e-11
Integration weight cutoff        WCut        ... 1.0000e-14
Angular grids for H and He will be reduced by one unit
Partially contracted basis set               ... on
Rotationally invariant grid construction     ... off

Total number of grid points                  ...    33622
Total number of batches                      ...      532
Average number of points per batch           ...       63
Average number of grid points per atom       ...     3057
UseSFitting                                  ... on

Time for X-Grid setup             =    0.349 sec

--------------
SCF ITERATIONS
--------------
ITER       Energy         Delta-E        Max-DP      RMS-DP      [F,P]     Damp
               ***  Starting incremental Fock matrix formation  ***
  0   -702.4597962484   0.000000000000 0.09748053  0.00181608  0.3168090 0.7000
  1   -702.6391735581  -0.179377309681 0.08180254  0.00143676  0.1314593 0.7000
                               ***Turning on DIIS***
  2   -702.7031391896  -0.063965631474 0.16331603  0.00254677  0.0452063 0.0000
  3   -702.8112930372  -0.108153847605 0.06491633  0.00097587  0.0717002 0.0000
  4   -702.8319011951  -0.020608157919 0.03653792  0.00044263  0.0157695 0.0000
  5   -702.8331508201  -0.001249625049 0.01315008  0.00016083  0.0039999 0.0000
                      *** Initiating the SOSCF procedure ***
                           *** Shutting down DIIS ***
                      *** Re-Reading the Fockian *** 
                      *** Removing any level shift *** 
ITER      Energy       Delta-E        Grad      Rot      Max-DP    RMS-DP
  6   -702.83320776  -0.0000569420  0.000254  0.000254  0.007840  0.000099
               *** Restarting incremental Fock matrix formation ***
  7   -702.83318798   0.0000197833  0.000136  0.000276  0.000771  0.000019
  8   -702.83318624   0.0000017347  0.000257  0.000176  0.000334  0.000010
  9   -702.83318894  -0.0000026986  0.000021  0.000047  0.000192  0.000002
 10   -702.83318892   0.0000000238  0.000031  0.000025  0.000118  0.000001
                  ***Gradient check signals convergence***
              ***Rediagonalizing the Fockian in SOSCF/NRSCF***

               *****************************************************
               *                     SUCCESS                       *
               *           SCF CONVERGED AFTER  11 CYCLES          *
               *****************************************************

Old exchange energy                            =    -15.574477587 Eh
New exchange energy                            =    -15.574488586 Eh
Exchange energy change after final integration =     -0.000010999 Eh
Total energy after final integration           =   -702.833199976 Eh
Final COS-X integration done in                =     2.837 sec

----------------
TOTAL SCF ENERGY
----------------

Total Energy       :         -702.83319998 Eh          -19125.06367 eV

Components:
Nuclear Repulsion  :          350.32849347 Eh            9532.92295 eV
Electronic Energy  :        -1053.16169345 Eh          -28657.98662 eV
One Electron Energy:        -1674.95588164 Eh          -45577.86667 eV
Two Electron Energy:          621.79418819 Eh           16919.88005 eV
Max COSX asymmetry :            0.00000212 Eh               0.00006 eV

Virial components:
Potential Energy   :        -1403.94269325 Eh          -38203.22290 eV
Kinetic Energy     :          701.10949328 Eh           19078.15923 eV
Virial Ratio       :            2.00245854


DFT components:
N(Alpha)           :       28.999981934006 electrons
N(Beta)            :       28.999981934006 electrons
N(Total)           :       57.999963868012 electrons
E(X)               :      -46.598353448131 Eh       
E(C)               :       -2.056759454171 Eh       
E(XC)              :      -48.655112902302 Eh       
DFET-embed. en.    :        0.000000000000 Eh       

---------------
SCF CONVERGENCE
---------------

  Last Energy change         ...   -5.7656e-08  Tolerance :   1.0000e-08
  Last MAX-Density change    ...    1.5543e-15  Tolerance :   1.0000e-07
  Last RMS-Density change    ...    2.5190e-17  Tolerance :   5.0000e-09
  Last Orbital Gradient      ...    1.6414e-06  Tolerance :   1.0000e-05
  Last Orbital Rotation      ...    2.4783e-06  Tolerance :   1.0000e-05

             **** THE GBW FILE WAS UPDATED (TZVP_PBE0_A_wt_dlpno_neg.gbw) ****
             **** DENSITY TZVP_PBE0_A_wt_dlpno_neg.scfp WAS UPDATED ****
             **** ENERGY FILE WAS UPDATED (TZVP_PBE0_A_wt_dlpno_neg.en.tmp) ****
             **** THE GBW FILE WAS UPDATED (TZVP_PBE0_A_wt_dlpno_neg.gbw) ****
             **** DENSITY TZVP_PBE0_A_wt_dlpno_neg.scfp WAS UPDATED ****
----------------
ORBITAL ENERGIES
----------------

  NO   OCC          E(Eh)            E(eV) 
   0   2.0000     -88.992824     -2421.6179 
   1   2.0000     -18.981613      -516.5160 
   2   2.0000     -18.978122      -516.4210 
   3   2.0000     -18.961718      -515.9746 
   4   2.0000     -10.075057      -274.1562 
   5   2.0000     -10.069920      -274.0164 
   6   2.0000      -7.938417      -216.0153 
   7   2.0000      -5.875842      -159.8898 
   8   2.0000      -5.874458      -159.8521 
   9   2.0000      -5.874231      -159.8460 
  10   2.0000      -0.946766       -25.7628 
  11   2.0000      -0.820276       -22.3209 
  12   2.0000      -0.789199       -21.4752 
  13   2.0000      -0.646403       -17.5895 
  14   2.0000      -0.519168       -14.1273 
  15   2.0000      -0.391733       -10.6596 
  16   2.0000      -0.324204        -8.8220 
  17   2.0000      -0.323810        -8.8113 
  18   2.0000      -0.283838        -7.7236 
  19   2.0000      -0.270776        -7.3682 
  20   2.0000      -0.263813        -7.1787 
  21   2.0000      -0.235256        -6.4016 
  22   2.0000      -0.220089        -5.9889 
  23   2.0000      -0.160597        -4.3701 
  24   2.0000      -0.159674        -4.3450 
  25   2.0000      -0.127063        -3.4576 
  26   2.0000      -0.115664        -3.1474 
  27   2.0000      -0.102319        -2.7842 
  28   2.0000      -0.071202        -1.9375 
  29   0.0000       0.185003         5.0342 
  30   0.0000       0.227553         6.1920 
  31   0.0000       0.244136         6.6433 
  32   0.0000       0.248502         6.7621 
  33   0.0000       0.275307         7.4915 
  34   0.0000       0.298733         8.1289 
  35   0.0000       0.309422         8.4198 
  36   0.0000       0.334041         9.0897 
  37   0.0000       0.353975         9.6321 
  38   0.0000       0.356614         9.7040 
  39   0.0000       0.370611        10.0848 
  40   0.0000       0.375519        10.2184 
  41   0.0000       0.427322        11.6280 
  42   0.0000       0.463658        12.6168 
  43   0.0000       0.478729        13.0269 
  44   0.0000       0.482394        13.1266 
  45   0.0000       0.488832        13.3018 
  46   0.0000       0.499751        13.5989 
  47   0.0000       0.535617        14.5749 
  48   0.0000       0.565479        15.3875 
  49   0.0000       0.572091        15.5674 
  50   0.0000       0.578607        15.7447 
  51   0.0000       0.595025        16.1915 
  52   0.0000       0.603752        16.4289 
  53   0.0000       0.635480        17.2923 
  54   0.0000       0.641984        17.4693 
  55   0.0000       0.662745        18.0342 
  56   0.0000       0.680754        18.5243 
  57   0.0000       0.692302        18.8385 
  58   0.0000       0.708498        19.2792 
  59   0.0000       0.726085        19.7578 
  60   0.0000       0.741709        20.1829 
  61   0.0000       0.765241        20.8233 
  62   0.0000       0.780631        21.2421 
  63   0.0000       0.803796        21.8724 
  64   0.0000       0.807213        21.9654 
  65   0.0000       0.817274        22.2392 
  66   0.0000       0.897853        24.4318 
  67   0.0000       0.915366        24.9084 
  68   0.0000       0.934817        25.4377 
  69   0.0000       0.955055        25.9884 
  70   0.0000       1.013215        27.5710 
  71   0.0000       1.027654        27.9639 
  72   0.0000       1.045792        28.4574 
  73   0.0000       1.081825        29.4380 
  74   0.0000       1.105991        30.0956 
  75   0.0000       1.115295        30.3487 
  76   0.0000       1.117670        30.4133 
  77   0.0000       1.160166        31.5697 
  78   0.0000       1.217993        33.1433 
  79   0.0000       1.253605        34.1123 
  80   0.0000       1.281864        34.8813 
  81   0.0000       1.297932        35.3185 
  82   0.0000       1.362127        37.0654 
  83   0.0000       1.536573        41.8123 
  84   0.0000       1.547659        42.1139 
  85   0.0000       1.572192        42.7815 
  86   0.0000       1.607361        43.7385 
  87   0.0000       1.624761        44.2120 
  88   0.0000       1.634488        44.4767 
  89   0.0000       1.648485        44.8575 
  90   0.0000       1.671295        45.4783 
  91   0.0000       1.691496        46.0279 
  92   0.0000       1.701328        46.2955 
  93   0.0000       1.737334        47.2753 
  94   0.0000       1.748620        47.5824 
  95   0.0000       1.772882        48.2426 
  96   0.0000       1.798267        48.9333 
  97   0.0000       1.814220        49.3674 
  98   0.0000       1.815554        49.4037 
  99   0.0000       1.844085        50.1801 
 100   0.0000       1.855833        50.4998 
 101   0.0000       1.905258        51.8447 
 102   0.0000       1.926387        52.4196 
 103   0.0000       1.968452        53.5643 
 104   0.0000       2.003534        54.5189 
 105   0.0000       2.013055        54.7780 
 106   0.0000       2.040334        55.5203 
 107   0.0000       2.062807        56.1318 
 108   0.0000       2.087973        56.8166 
 109   0.0000       2.104325        57.2616 
 110   0.0000       2.124226        57.8031 
 111   0.0000       2.200280        59.8727 
 112   0.0000       2.229793        60.6757 
 113   0.0000       2.305379        62.7326 
 114   0.0000       2.323382        63.2224 
 115   0.0000       2.350949        63.9726 
 116   0.0000       2.414456        65.7007 
 117   0.0000       2.437743        66.3344 
 118   0.0000       2.442345        66.4596 
 119   0.0000       2.477585        67.4185 
 120   0.0000       2.492045        67.8120 
 121   0.0000       2.515629        68.4537 
 122   0.0000       2.530324        68.8536 
 123   0.0000       2.538723        69.0822 
 124   0.0000       2.557994        69.6066 
 125   0.0000       2.603550        70.8462 
 126   0.0000       2.609613        71.0112 
 127   0.0000       2.654080        72.2212 
 128   0.0000       2.659276        72.3626 
 129   0.0000       2.664838        72.5139 
 130   0.0000       2.687394        73.1277 
 131   0.0000       2.702750        73.5456 
 132   0.0000       2.741844        74.6094 
 133   0.0000       2.763445        75.1972 
 134   0.0000       2.814598        76.5891 
 135   0.0000       2.823500        76.8313 
 136   0.0000       2.844332        77.3982 
 137   0.0000       2.942020        80.0564 
 138   0.0000       2.976249        80.9878 
 139   0.0000       2.982217        81.1503 
 140   0.0000       3.065470        83.4157 
 141   0.0000       3.093981        84.1915 
 142   0.0000       3.110844        84.6504 
 143   0.0000       3.161888        86.0393 
 144   0.0000       3.179756        86.5256 
 145   0.0000       3.223133        87.7059 
 146   0.0000       3.228053        87.8398 
 147   0.0000       3.258830        88.6773 
 148   0.0000       3.300985        89.8244 
 149   0.0000       3.314690        90.1973 
 150   0.0000       3.322794        90.4178 
 151   0.0000       3.332976        90.6949 
 152   0.0000       3.369456        91.6876 
 153   0.0000       3.388022        92.1928 
 154   0.0000       3.430634        93.3523 
 155   0.0000       3.476849        94.6099 
 156   0.0000       3.511010        95.5394 
 157   0.0000       3.559019        96.8458 
 158   0.0000       3.580618        97.4336 
 159   0.0000       3.607977        98.1780 
 160   0.0000       3.656504        99.4985 
 161   0.0000       3.706511       100.8593 
 162   0.0000       3.766454       102.4904 
 163   0.0000       3.927154       106.8633 
 164   0.0000       3.932840       107.0180 
 165   0.0000       4.013642       109.2167 
 166   0.0000       4.060708       110.4975 
 167   0.0000       4.122389       112.1759 
 168   0.0000       4.162574       113.2694 
 169   0.0000       4.345052       118.2349 
 170   0.0000       4.402838       119.8073 
 171   0.0000       4.440062       120.8202 
 172   0.0000       4.483535       122.0032 
 173   0.0000       4.612699       125.5179 
 174   0.0000       4.629083       125.9638 
 175   0.0000       4.747248       129.1792 
 176   0.0000       4.929476       134.1379 
 177   0.0000       5.309248       144.4720 
 178   0.0000       5.359442       145.8378 
 179   0.0000       5.364459       145.9744 
 180   0.0000       5.370143       146.1290 
 181   0.0000       5.371710       146.1717 
 182   0.0000       5.379635       146.3873 
 183   0.0000       5.383668       146.4971 
 184   0.0000       5.388718       146.6345 
 185   0.0000       5.406124       147.1081 
 186   0.0000       5.471153       148.8777 
 187   0.0000       5.520501       150.2205 
 188   0.0000       5.527158       150.4016 
 189   0.0000       5.552191       151.0828 
 190   0.0000       5.578066       151.7869 
 191   0.0000       5.677320       154.4877 
 192   0.0000       5.740073       156.1953 
 193   0.0000       5.799243       157.8054 
 194   0.0000       5.897202       160.4710 
 195   0.0000       5.924077       161.2023 
 196   0.0000       5.951123       161.9383 
 197   0.0000       6.106488       166.1660 
 198   0.0000       6.519747       177.4113 
 199   0.0000       6.529046       177.6644 
 200   0.0000       6.535211       177.8321 
 201   0.0000       6.625207       180.2810 
 202   0.0000       6.633397       180.5039 
 203   0.0000       6.694282       182.1607 
 204   0.0000       6.916750       188.2143 
 205   0.0000       6.941062       188.8759 
 206   0.0000       6.962724       189.4654 
 207   0.0000       6.979406       189.9193 
 208   0.0000       7.084372       192.7756 
 209   0.0000       7.094827       193.0601 
 210   0.0000       7.122978       193.8261 
 211   0.0000       7.182579       195.4479 
 212   0.0000       7.206303       196.0935 
 213   0.0000       9.626572       261.9523 
 214   0.0000       9.812254       267.0050 
 215   0.0000       9.929049       270.1832 
 216   0.0000      22.509029       612.5018 
 217   0.0000      22.606774       615.1616 
 218   0.0000      23.062064       627.5507 
 219   0.0000      43.702920      1189.2169 
 220   0.0000      43.936800      1195.5811 
 221   0.0000      44.041069      1198.4184 

                    ********************************
                    * MULLIKEN POPULATION ANALYSIS *
                    ********************************

-----------------------
MULLIKEN ATOMIC CHARGES
-----------------------
   0 C :   -0.344681
   1 C :   -0.243393
   2 S :    0.804571
   3 H :    0.074288
   4 H :    0.083455
   5 O :   -0.531624
   6 O :   -0.595276
   7 O :   -0.548506
   8 H :    0.118516
   9 H :    0.111295
  10 H :    0.071354
Sum of atomic charges:   -1.0000000

--------------------------------
MULLIKEN REDUCED ORBITAL CHARGES
--------------------------------
  0 C s       :     3.190512  s :     3.190512
      pz      :     1.090128  p :     3.089245
      px      :     0.983401
      py      :     1.015716
      dz2     :     0.008114  d :     0.061370
      dxz     :     0.017868
      dyz     :     0.007781
      dx2y2   :     0.009592
      dxy     :     0.018015
      f0      :     0.000212  f :     0.003554
      f+1     :     0.000521
      f-1     :     0.000635
      f+2     :     0.000603
      f-2     :     0.000235
      f+3     :     0.000618
      f-3     :     0.000731
  1 C s       :     3.162660  s :     3.162660
      pz      :     1.008659  p :     2.983186
      px      :     0.952054
      py      :     1.022472
      dz2     :     0.010823  d :     0.092621
      dxz     :     0.021852
      dyz     :     0.017090
      dx2y2   :     0.015476
      dxy     :     0.027381
      f0      :     0.000424  f :     0.004926
      f+1     :     0.000631
      f-1     :     0.000548
      f+2     :     0.000845
      f-2     :     0.000439
      f+3     :     0.000924
      f-3     :     0.001114
  2 S s       :     5.319967  s :     5.319967
      pz      :     2.845373  p :     8.628721
      px      :     2.845364
      py      :     2.937983
      dz2     :     0.244131  d :     1.126213
      dxz     :     0.242345
      dyz     :     0.199213
      dx2y2   :     0.208198
      dxy     :     0.232326
      f0      :     0.016711  f :     0.120529
      f+1     :     0.033511
      f-1     :     0.013784
      f+2     :     0.016715
      f-2     :     0.013650
      f+3     :     0.014269
      f-3     :     0.011889
  3 H s       :     0.903828  s :     0.903828
      pz      :     0.009988  p :     0.021884
      px      :     0.004642
      py      :     0.007254
  4 H s       :     0.894577  s :     0.894577
      pz      :     0.008108  p :     0.021968
      px      :     0.007251
      py      :     0.006609
  5 O s       :     3.787646  s :     3.787646
      pz      :     1.634113  p :     4.708786
      px      :     1.422791
      py      :     1.651883
      dz2     :     0.005282  d :     0.033150
      dxz     :     0.009387
      dyz     :     0.002489
      dx2y2   :     0.007962
      dxy     :     0.008029
      f0      :     0.000171  f :     0.002041
      f+1     :     0.000473
      f-1     :     0.000042
      f+2     :     0.000365
      f-2     :     0.000290
      f+3     :     0.000347
      f-3     :     0.000355
  6 O s       :     3.812179  s :     3.812179
      pz      :     1.371229  p :     4.751156
      px      :     1.718979
      py      :     1.660948
      dz2     :     0.011058  d :     0.030143
      dxz     :     0.006953
      dyz     :     0.008806
      dx2y2   :     0.001644
      dxy     :     0.001681
      f0      :     0.000545  f :     0.001798
      f+1     :     0.000358
      f-1     :     0.000501
      f+2     :     0.000176
      f-2     :     0.000179
      f+3     :     0.000021
      f-3     :     0.000018
  7 O s       :     3.796278  s :     3.796278
      pz      :     1.612882  p :     4.717764
      px      :     1.518976
      py      :     1.585907
      dz2     :     0.005811  d :     0.032483
      dxz     :     0.006776
      dyz     :     0.005809
      dx2y2   :     0.006987
      dxy     :     0.007100
      f0      :     0.000181  f :     0.001981
      f+1     :     0.000315
      f-1     :     0.000220
      f+2     :     0.000308
      f-2     :     0.000404
      f+3     :     0.000279
      f-3     :     0.000273
  8 H s       :     0.859534  s :     0.859534
      pz      :     0.008587  p :     0.021950
      px      :     0.006509
      py      :     0.006854
  9 H s       :     0.866818  s :     0.866818
      pz      :     0.010136  p :     0.021887
      px      :     0.004859
      py      :     0.006891
 10 H s       :     0.907317  s :     0.907317
      pz      :     0.004791  p :     0.021329
      px      :     0.006108
      py      :     0.010430


                     *******************************
                     * LOEWDIN POPULATION ANALYSIS *
                     *******************************

----------------------
LOEWDIN ATOMIC CHARGES
----------------------
   0 C :   -0.346083
   1 C :   -0.434344
   2 S :    0.392342
   3 H :    0.114300
   4 H :    0.118292
   5 O :   -0.361498
   6 O :   -0.436265
   7 O :   -0.374989
   8 H :    0.114705
   9 H :    0.114254
  10 H :    0.099289

-------------------------------
LOEWDIN REDUCED ORBITAL CHARGES
-------------------------------
  0 C s       :     2.830441  s :     2.830441
      pz      :     1.089976  p :     3.222519
      px      :     1.065019
      py      :     1.067524
      dz2     :     0.041732  d :     0.267705
      dxz     :     0.065953
      dyz     :     0.036517
      dx2y2   :     0.051989
      dxy     :     0.071515
      f0      :     0.001991  f :     0.025418
      f+1     :     0.004407
      f-1     :     0.003179
      f+2     :     0.003611
      f-2     :     0.002764
      f+3     :     0.004451
      f-3     :     0.005015
  1 C s       :     2.858436  s :     2.858436
      pz      :     1.059770  p :     3.181281
      px      :     1.054590
      py      :     1.066922
      dz2     :     0.047211  d :     0.363732
      dxz     :     0.074886
      dyz     :     0.070260
      dx2y2   :     0.073829
      dxy     :     0.097547
      f0      :     0.002716  f :     0.030895
      f+1     :     0.004628
      f-1     :     0.003622
      f+2     :     0.004172
      f-2     :     0.003722
      f+3     :     0.005594
      f-3     :     0.006441
  2 S s       :     4.725025  s :     4.725025
      pz      :     2.867813  p :     8.622701
      px      :     2.869431
      py      :     2.885457
      dz2     :     0.414779  d :     1.888277
      dxz     :     0.412850
      dyz     :     0.328714
      dx2y2   :     0.340099
      dxy     :     0.391835
      f0      :     0.052790  f :     0.371656
      f+1     :     0.093932
      f-1     :     0.045066
      f+2     :     0.050039
      f-2     :     0.045442
      f+3     :     0.043869
      f-3     :     0.040518
  3 H s       :     0.821903  s :     0.821903
      pz      :     0.029045  p :     0.063797
      px      :     0.013480
      py      :     0.021271
  4 H s       :     0.818436  s :     0.818436
      pz      :     0.024354  p :     0.063272
      px      :     0.019485
      py      :     0.019432
  5 O s       :     3.550542  s :     3.550542
      pz      :     1.614258  p :     4.741675
      px      :     1.530389
      py      :     1.597028
      dz2     :     0.008193  d :     0.064768
      dxz     :     0.021141
      dyz     :     0.004270
      dx2y2   :     0.017878
      dxy     :     0.013285
      f0      :     0.000540  f :     0.004514
      f+1     :     0.000761
      f-1     :     0.000089
      f+2     :     0.001009
      f-2     :     0.000611
      f+3     :     0.000725
      f-3     :     0.000779
  6 O s       :     3.585157  s :     3.585157
      pz      :     1.499774  p :     4.789141
      px      :     1.664303
      py      :     1.625064
      dz2     :     0.025148  d :     0.058076
      dxz     :     0.010161
      dyz     :     0.017887
      dx2y2   :     0.002441
      dxy     :     0.002440
      f0      :     0.001162  f :     0.003892
      f+1     :     0.000647
      f-1     :     0.001314
      f+2     :     0.000350
      f-2     :     0.000346
      f+3     :     0.000045
      f-3     :     0.000028
  7 O s       :     3.556607  s :     3.556607
      pz      :     1.609611  p :     4.750607
      px      :     1.563344
      py      :     1.577653
      dz2     :     0.008201  d :     0.063396
      dxz     :     0.016211
      dyz     :     0.012366
      dx2y2   :     0.009906
      dxy     :     0.016712
      f0      :     0.000530  f :     0.004379
      f+1     :     0.000562
      f-1     :     0.000367
      f+2     :     0.000527
      f-2     :     0.001232
      f+3     :     0.000485
      f-3     :     0.000674
  8 H s       :     0.818971  s :     0.818971
      pz      :     0.026854  p :     0.066324
      px      :     0.019028
      py      :     0.020442
  9 H s       :     0.819840  s :     0.819840
      pz      :     0.030726  p :     0.065906
      px      :     0.014429
      py      :     0.020751
 10 H s       :     0.835651  s :     0.835651
      pz      :     0.015822  p :     0.065060
      px      :     0.017400
      py      :     0.031839


                      *****************************
                      * MAYER POPULATION ANALYSIS *
                      *****************************

  NA   - Mulliken gross atomic population
  ZA   - Total nuclear charge
  QA   - Mulliken gross atomic charge
  VA   - Mayer's total valence
  BVA  - Mayer's bonded valence
  FA   - Mayer's free valence

  ATOM       NA         ZA         QA         VA         BVA        FA
  0 C      6.3447     6.0000    -0.3447     3.8713     3.8713    -0.0000
  1 C      6.2434     6.0000    -0.2434     3.8614     3.8614    -0.0000
  2 S     15.1954    16.0000     0.8046     6.2831     6.2831     0.0000
  3 H      0.9257     1.0000     0.0743     0.9841     0.9841     0.0000
  4 H      0.9165     1.0000     0.0835     0.9914     0.9914    -0.0000
  5 O      8.5316     8.0000    -0.5316     1.9056     1.9056     0.0000
  6 O      8.5953     8.0000    -0.5953     1.8054     1.8054     0.0000
  7 O      8.5485     8.0000    -0.5485     1.8558     1.8558     0.0000
  8 H      0.8815     1.0000     0.1185     0.9995     0.9995    -0.0000
  9 H      0.8887     1.0000     0.1113     0.9998     0.9998    -0.0000
 10 H      0.9286     1.0000     0.0714     0.9615     0.9615    -0.0000

  Mayer bond orders larger than 0.100000
B(  0-C ,  1-C ) :   0.9852 B(  0-C ,  8-H ) :   0.9703 B(  0-C ,  9-H ) :   0.9723 
B(  0-C , 10-H ) :   0.9622 B(  1-C ,  2-S ) :   0.8766 B(  1-C ,  3-H ) :   0.9499 
B(  1-C ,  4-H ) :   0.9586 B(  2-S ,  5-O ) :   1.8418 B(  2-S ,  6-O ) :   1.7488 
B(  2-S ,  7-O ) :   1.7795 

-------
TIMINGS
-------

Total SCF time: 0 days 0 hours 0 min 19 sec 

Total time                  ....      19.572 sec
Sum of individual times     ....      19.374 sec  ( 99.0%)

Fock matrix formation       ....      18.217 sec  ( 93.1%)
  Split-RI-J                ....       1.498 sec  (  8.2% of F)
  Chain of spheres X        ....      13.884 sec  ( 76.2% of F)
  XC integration            ....       2.786 sec  ( 15.3% of F)
    Basis function eval.    ....       0.926 sec  ( 33.2% of XC)
    Density eval.           ....       0.682 sec  ( 24.5% of XC)
    XC-Functional eval.     ....       0.157 sec  (  5.6% of XC)
    XC-Potential eval.      ....       0.886 sec  ( 31.8% of XC)
Diagonalization             ....       0.084 sec  (  0.4%)
Density matrix formation    ....       0.007 sec  (  0.0%)
Population analysis         ....       0.011 sec  (  0.1%)
Initial guess               ....       0.165 sec  (  0.8%)
Orbital Transformation      ....       0.000 sec  (  0.0%)
Orbital Orthonormalization  ....       0.000 sec  (  0.0%)
DIIS solution               ....       0.049 sec  (  0.3%)
SOSCF solution              ....       0.047 sec  (  0.2%)
Grid generation             ....       0.793 sec  (  4.1%)

Maximum memory used throughout the entire SCF-calculation: 70.3 MB


-------------------------------------------------------------------------------
                          DFT DISPERSION CORRECTION                            
                                                                               
                              DFTD3 V3.1  Rev 1                                
                          USING Becke-Johnson damping                          
-------------------------------------------------------------------------------
The PBE0 functional is recognized
Active option DFTDOPT                   ...         4   

molecular C6(AA) [au] = 1522.460936 


            DFT-D V3
 parameters
 s6 scaling factor         :     1.0000 
 a1 scaling factor         :     0.4145 
 s8 scaling factor         :     1.2177 
 a2 scaling factor         :     4.8593 
 ad hoc parameters k1-k3   :    16.0000     1.3333    -4.0000 

 Edisp/kcal,au: -5.180075724680  -0.008254975241 
 E6   /kcal   :  -3.202642559 
 E8   /kcal   :  -1.977433165 
 % E8         :  38.173827379 

-------------------------   ----------------
Dispersion correction           -0.008254975
-------------------------   ----------------


-------------------------   --------------------
FINAL SINGLE POINT ENERGY      -702.841454950869
-------------------------   --------------------


                            ***************************************
                            *     ORCA property calculations      *
                            ***************************************

                                    ---------------------
                                    Active property flags
                                    ---------------------
   (+) Dipole Moment


------------------------------------------------------------------------------
                       ORCA ELECTRIC PROPERTIES CALCULATION
------------------------------------------------------------------------------

Dipole Moment Calculation                       ... on
Quadrupole Moment Calculation                   ... off
Polarizability Calculation                      ... off
GBWName                                         ... TZVP_PBE0_A_wt_dlpno_neg.gbw
Electron density file                           ... TZVP_PBE0_A_wt_dlpno_neg.scfp
The origin for moment calculation is the CENTER OF MASS  = (-1.840066,  0.789313 -8.124395)

-------------
DIPOLE MOMENT
-------------
                                X             Y             Z
Electronic contribution:     -5.64166      -5.36302      -1.94845
Nuclear contribution   :      6.64523       6.80157       2.07300
                        -----------------------------------------
Total Dipole Moment    :      1.00357       1.43856       0.12455
                        -----------------------------------------
Magnitude (a.u.)       :      1.75844
Magnitude (Debye)      :      4.46959



--------------------
Rotational spectrum 
--------------------
 
Rotational constants in cm-1:     0.163070     0.082807     0.081541 
Rotational constants in MHz :  4888.719902  2482.497026  2444.541148 

 Dipole components along the rotational axes: 
x,y,z [a.u.] :     1.608646     0.651258    -0.283242 
x,y,z [Debye]:     4.088853     1.655365    -0.719943 

 

Timings for individual modules:

Sum of individual times         ...       23.560 sec (=   0.393 min)
GTO integral calculation        ...        2.324 sec (=   0.039 min)   9.9 %
SCF iterations                  ...       21.237 sec (=   0.354 min)  90.1 %
                             ****ORCA TERMINATED NORMALLY****
TOTAL RUN TIME: 0 days 0 hours 0 minutes 24 seconds 108 msec
