
                                        *****************
                                        * O   R   C   A *
                                        *****************

                                            #,                                       
                                            ###                                      
                                            ####                                     
                                            #####                                    
                                            ######                                   
                                           ########,                                 
                                     ,,################,,,,,                         
                               ,,#################################,,                 
                          ,,##########################################,,             
                       ,#########################################, ''#####,          
                    ,#############################################,,   '####,        
                  ,##################################################,,,,####,       
                ,###########''''           ''''###############################       
              ,#####''   ,,,,##########,,,,          '''####'''          '####       
            ,##' ,,,,###########################,,,                        '##       
           ' ,,###''''                  '''############,,,                           
         ,,##''                                '''############,,,,        ,,,,,,###''
      ,#''                                            '''#######################'''  
     '                                                          ''''####''''         
             ,#######,   #######,   ,#######,      ##                                
            ,#'     '#,  ##    ##  ,#'     '#,    #''#        ######   ,####,        
            ##       ##  ##   ,#'  ##            #'  '#       #        #'  '#        
            ##       ##  #######   ##           ,######,      #####,   #    #        
            '#,     ,#'  ##    ##  '#,     ,#' ,#      #,         ##   #,  ,#        
             '#######'   ##     ##  '#######'  #'      '#     #####' # '####'        



                  #######################################################
                  #                        -***-                        #
                  #          Department of theory and spectroscopy      #
                  #    Directorship and core code : Frank Neese         #
                  #        Max Planck Institute fuer Kohlenforschung    #
                  #                Kaiser Wilhelm Platz 1               #
                  #                 D-45470 Muelheim/Ruhr               #
                  #                      Germany                        #
                  #                                                     #
                  #                  All rights reserved                #
                  #                        -***-                        #
                  #######################################################


                         Program Version 5.0.0 -  RELEASE  -
                                (SVN: $Rev: 19529$)
                ($Date: 2021-06-28 11:36:33 +0200 (Mo, 28 Jun 2021) $)


 With contributions from (in alphabetic order):
   Daniel Aravena         : Magnetic Suceptibility
   Michael Atanasov       : Ab Initio Ligand Field Theory (pilot matlab implementation)
   Alexander A. Auer      : GIAO ZORA, VPT2 properties, NMR spectrum
   Ute Becker             : Parallelization
   Giovanni Bistoni       : ED, misc. LED, open-shell LED, HFLD
   Martin Brehm           : Molecular dynamics
   Dmytro Bykov           : SCF Hessian
   Vijay G. Chilkuri      : MRCI spin determinant printing, contributions to CSF-ICE
   Dipayan Datta          : RHF DLPNO-CCSD density
   Achintya Kumar Dutta   : EOM-CC, STEOM-CC
   Dmitry Ganyushin       : Spin-Orbit,Spin-Spin,Magnetic field MRCI
   Miquel Garcia          : C-PCM Hessian, Gaussian charge scheme
   Yang Guo               : DLPNO-NEVPT2, F12-NEVPT2, CIM, IAO-localization
   Andreas Hansen         : Spin unrestricted coupled pair/coupled cluster methods
   Benjamin Helmich-Paris : MC-RPA, TRAH-SCF, COSX integrals
   Lee Huntington         : MR-EOM, pCC
   Robert Izsak           : Overlap fitted RIJCOSX, COSX-SCS-MP3, EOM
   Marcus Kettner         : VPT2
   Christian Kollmar      : KDIIS, OOCD, Brueckner-CCSD(T), CCSD density, CASPT2, CASPT2-K
   Simone Kossmann        : Meta GGA functionals, TD-DFT gradient, OOMP2, MP2 Hessian
   Martin Krupicka        : Initial AUTO-CI
   Lucas Lang             : DCDCAS
   Marvin Lechner         : AUTO-CI (C++ implementation), FIC-MRCC
   Dagmar Lenk            : GEPOL surface, SMD
   Dimitrios Liakos       : Extrapolation schemes; Compound Job, initial MDCI parallelization
   Dimitrios Manganas     : Further ROCIS development; embedding schemes
   Dimitrios Pantazis     : SARC Basis sets
   Anastasios Papadopoulos: AUTO-CI, single reference methods and gradients
   Taras Petrenko         : DFT Hessian,TD-DFT gradient, ASA, ECA, R-Raman, ABS, FL, XAS/XES, NRVS
   Peter Pinski           : DLPNO-MP2, DLPNO-MP2 Gradient
   Christoph Reimann      : Effective Core Potentials
   Marius Retegan         : Local ZFS, SOC
   Christoph Riplinger    : Optimizer, TS searches, QM/MM, DLPNO-CCSD(T), (RO)-DLPNO pert. Triples
   Tobias Risthaus        : Range-separated hybrids, TD-DFT gradient, RPA, STAB
   Michael Roemelt        : Original ROCIS implementation
   Masaaki Saitow         : Open-shell DLPNO-CCSD energy and density
   Barbara Sandhoefer     : DKH picture change effects
   Avijit Sen             : IP-ROCIS
   Kantharuban Sivalingam : CASSCF convergence, NEVPT2, FIC-MRCI
   Bernardo de Souza      : ESD, SOC TD-DFT
   Georgi Stoychev        : AutoAux, RI-MP2 NMR
   Willem Van den Heuvel  : Paramagnetic NMR
   Boris Wezisla          : Elementary symmetry handling
   Frank Wennmohs         : Technical directorship


 We gratefully acknowledge several colleagues who have allowed us to
 interface, adapt or use parts of their codes:
   Stefan Grimme, W. Hujo, H. Kruse, P. Pracht,  : VdW corrections, initial TS optimization,
                  C. Bannwarth, S. Ehlert          DFT functionals, gCP, sTDA/sTD-DF
   Ed Valeev, F. Pavosevic, A. Kumar             : LibInt (2-el integral package), F12 methods
   Garnet Chan, S. Sharma, J. Yang, R. Olivares  : DMRG
   Ulf Ekstrom                                   : XCFun DFT Library
   Mihaly Kallay                                 : mrcc  (arbitrary order and MRCC methods)
   Jiri Pittner, Ondrej Demel                    : Mk-CCSD
   Frank Weinhold                                : gennbo (NPA and NBO analysis)
   Christopher J. Cramer and Donald G. Truhlar   : smd solvation model
   Lars Goerigk                                  : TD-DFT with DH, B97 family of functionals
   V. Asgeirsson, H. Jonsson                     : NEB implementation
   FAccTs GmbH                                   : IRC, NEB, NEB-TS, DLPNO-Multilevel, CI-OPT
                                                   MM, QMMM, 2- and 3-layer-ONIOM, Crystal-QMMM,
                                                   LR-CPCM, SF, NACMEs, symmetry and pop. for TD-DFT,
                                                   nearIR, NL-DFT gradient (VV10), updates on ESD,
                                                   ML-optimized integration grids
   S Lehtola, MJT Oliveira, MAL Marques          : LibXC Library
   Liviu Ungur et al                             : ANISO software


 Your calculation uses the libint2 library for the computation of 2-el integrals
 For citations please refer to: http://libint.valeyev.net

 Your ORCA version has been built with support for libXC version: 5.1.0
 For citations please refer to: https://tddft.org/programs/libxc/

 This ORCA versions uses:
   CBLAS   interface :  Fast vector & matrix operations
   LAPACKE interface :  Fast linear algebra routines
   SCALAPACK package :  Parallel linear algebra routines
   Shared memory     :  Shared parallel matrices
   BLAS/LAPACK       :  OpenBLAS 0.3.15  USE64BITINT DYNAMIC_ARCH NO_AFFINITY Haswell SINGLE_THREADED
        Core in use  :  Haswell
   Copyright (c) 2011-2014, The OpenBLAS Project




***************************************
The coordinates will be read from file: B.xyz
***************************************


================================================================================

----- Orbital basis set information -----
Your calculation utilizes the basis: def2-TZVP
   F. Weigend and R. Ahlrichs, Phys. Chem. Chem. Phys. 7, 3297 (2005).

----- AuxJ basis set information -----
Your calculation utilizes the auxiliary basis: def2/J
   F. Weigend, Phys. Chem. Chem. Phys. 8, 1057 (2006).

================================================================================
                                        WARNINGS
                       Please study these warnings very carefully!
================================================================================


INFO   : the flag for use of the SHARK integral package has been found!

================================================================================
                                       INPUT FILE
================================================================================
NAME = LC_PBE_B_wt_wb97.com
|  1> !LC-PBE RIJCOSX def2-TZVP def2/J TightSCF xyzfile                                                                                         
|  2> 
|  3> *xyzfile 0 1 B.xyz
|  4> 
|  5> %MaxCore 64000
|  6> 
|  7> %pal nprocs 18                                                                                                                                                  
|  8> end  
|  9> 
| 10> %scf
| 11>   MaxIter 150
| 12> end
| 13> 
| 14> 
| 15>                          ****END OF INPUT****
================================================================================

                       ****************************
                       * Single Point Calculation *
                       ****************************

---------------------------------
CARTESIAN COORDINATES (ANGSTROEM)
---------------------------------
  C      3.956426    0.501466   -0.379100
  H      3.168398    0.029201    0.207383
  N      3.803893    1.961572   -0.156747
  C      3.842322    0.148490   -1.854058
  H      4.923231    0.177982    0.009371
  H      4.620021    0.694502   -2.402150
  H      4.096015   -0.910930   -1.955103
  C      2.475619    0.412708   -2.485377
  H      2.174689    1.445076   -2.287971
  C      1.383931   -0.532740   -1.995203
  H      2.575613    0.318574   -3.571460
  H      1.264698   -0.412309   -0.915491
  H      1.705223   -1.566885   -2.164984
  C      0.031398   -0.317260   -2.677791
  C     -0.587292    1.060853   -2.436460
  H     -0.662815   -1.089530   -2.329985
  H      0.149465   -0.478040   -3.755648
  H      0.104376    1.828590   -2.793130
  C     -0.951213    1.334978   -0.972500
  H     -1.478832    1.161355   -3.062484
  H     -0.317007    0.741648   -0.311389
  H     -1.980916    1.012842   -0.788958
  C     -0.774550    2.788332   -0.543943
  H     -1.352609    3.459372   -1.192585
  H     -1.171014    2.902331    0.469968
  C      0.697208    3.227911   -0.525126
  O      1.489294    2.374703    0.199189
  H      0.715998    4.264030   -0.130774
  H      1.036148    3.330920   -1.583669
  H      4.206425    2.244406    0.745359
  H      2.808269    2.211323   -0.096097
  H      4.280757    2.501552   -0.891037

----------------------------
CARTESIAN COORDINATES (A.U.)
----------------------------
  NO LB      ZA    FRAG     MASS         X           Y           Z
   0 C     6.0000    0    12.011    7.476561    0.947633   -0.716396
   1 H     1.0000    0     1.008    5.987405    0.055183    0.391897
   2 N     7.0000    0    14.007    7.188316    3.706835   -0.296209
   3 C     6.0000    0    12.011    7.260937    0.280606   -3.503662
   4 H     1.0000    0     1.008    9.303558    0.336336    0.017709
   5 H     1.0000    0     1.008    8.730574    1.312418   -4.539406
   6 H     1.0000    0     1.008    7.740346   -1.721408   -3.694610
   7 C     6.0000    0    12.011    4.678241    0.779904   -4.696682
   8 H     1.0000    0     1.008    4.109567    2.730798   -4.323639
   9 C     6.0000    0    12.011    2.615251   -1.006733   -3.770387
  10 H     1.0000    0     1.008    4.867203    0.602019   -6.749081
  11 H     1.0000    0     1.008    2.389933   -0.779151   -1.730028
  12 H     1.0000    0     1.008    3.222404   -2.960983   -4.091227
  13 C     6.0000    0    12.011    0.059334   -0.599535   -5.060291
  14 C     6.0000    0    12.011   -1.109820    2.004721   -4.604242
  15 H     1.0000    0     1.008   -1.252539   -2.058914   -4.403033
  16 H     1.0000    0     1.008    0.282447   -0.903365   -7.097147
  17 H     1.0000    0     1.008    0.197242    3.455535   -5.278251
  18 C     6.0000    0    12.011   -1.797531    2.522743   -1.837758
  19 H     1.0000    0     1.008   -2.794587    2.194642   -5.787255
  20 H     1.0000    0     1.008   -0.599056    1.401512   -0.588441
  21 H     1.0000    0     1.008   -3.743390    1.913994   -1.490915
  22 C     6.0000    0    12.011   -1.463687    5.269184   -1.027904
  23 H     1.0000    0     1.008   -2.556060    6.537265   -2.253660
  24 H     1.0000    0     1.008   -2.212896    5.484610    0.888111
  25 C     6.0000    0    12.011    1.317533    6.099868   -0.992345
  26 O     8.0000    0    15.999    2.814358    4.487537    0.376413
  27 H     1.0000    0     1.008    1.353041    8.057849   -0.247127
  28 H     1.0000    0     1.008    1.958035    6.294527   -2.992701
  29 H     1.0000    0     1.008    7.948992    4.241312    1.408525
  30 H     1.0000    0     1.008    5.306860    4.178795   -0.181597
  31 H     1.0000    0     1.008    8.089457    4.727247   -1.683816

--------------------------------
INTERNAL COORDINATES (ANGSTROEM)
--------------------------------
 C      0   0   0     0.000000000000     0.00000000     0.00000000
 H      1   0   0     1.089946386736     0.00000000     0.00000000
 N      1   2   0     1.484795980114   105.73767240     0.00000000
 C      1   2   3     1.520891583052   111.53263764   238.68845697
 H      1   2   3     1.090992469467   108.70094992   117.16590861
 H      4   1   2     1.096972067914   108.41177860   176.73616583
 H      4   1   2     1.094048394116   107.27220002   290.50889358
 C      4   1   2     1.528481039223   115.31071539    52.98571734
 H      8   4   1     1.093303169447   109.55828632    52.65607182
 C      8   4   1     1.525097781162   113.58676240   290.13497629
 H      8   4   1     1.094731013971   108.25438280   168.51656259
 H     10   8   4     1.092930262592   109.10494017    60.80495737
 H     10   8   4     1.096133958118   108.98194218   304.53969952
 C     10   8   4     1.530262426597   113.70443570   182.94708839
 C     14  10   8     1.529775752203   114.45280313   297.48522040
 H     14  10   8     1.095126888907   108.62193335   175.18333491
 H     14  10   8     1.096160153195   108.82984409    60.10288901
 H     15  14  10     1.093178033006   108.98449960    58.52341285
 C     15  14  10     1.533219883795   114.05976958   295.64188075
 H     15  14  10     1.094006222607   108.78813739   172.87791078
 H     19  15  14     1.091478036038   110.07394216    26.26766594
 H     19  15  14     1.094417261501   109.31898935   269.53880143
 C     19  15  14     1.525486001193   114.27328780   145.76196442
 H     23  19  15     1.097808523453   110.81692127    56.04004437
 H     23  19  15     1.094621343925   108.51134162   173.28296627
 C     23  19  15     1.536116985972   112.76973073   292.64697585
 O     26  23  19     1.371130131829   112.45056163   308.05816608
 H     26  23  19     1.108786897830   106.73832820   184.14541170
 H     26  23  19     1.116245400496   107.80097515    72.66078514
 H      3   1   2     1.027532611813   111.21736672    79.20415484
 H      3   1   2     1.028260830531   110.31307706   322.98023061
 H      3   1   2     1.028668136143   111.20347886   198.97165888

---------------------------
INTERNAL COORDINATES (A.U.)
---------------------------
 C      0   0   0     0.000000000000     0.00000000     0.00000000
 H      1   0   0     2.059700171588     0.00000000     0.00000000
 N      1   2   0     2.805857767163   105.73767240     0.00000000
 C      1   2   3     2.874068571354   111.53263764   238.68845697
 H      1   2   3     2.061676981462   108.70094992   117.16590861
 H      4   1   2     2.072976784918   108.41177860   176.73616583
 H      4   1   2     2.067451842136   107.27220002   290.50889358
 C      4   1   2     2.888410565023   115.31071539    52.98571734
 H      8   4   1     2.066043571603   109.55828632    52.65607182
 C      8   4   1     2.882017133847   113.58676240   290.13497629
 H      8   4   1     2.068741806714   108.25438280   168.51656259
 H     10   8   4     2.065338879773   109.10494017    60.80495737
 H     10   8   4     2.071392986934   108.98194218   304.53969952
 C     10   8   4     2.891776899298   113.70443570   182.94708839
 C     14  10   8     2.890857217978   114.45280313   297.48522040
 H     14  10   8     2.069489901927   108.62193335   175.18333491
 H     14  10   8     2.071442488456   108.82984409    60.10288901
 H     15  14  10     2.065807098001   108.98449960    58.52341285
 C     15  14  10     2.897365683455   114.05976958   295.64188075
 H     15  14  10     2.067372149532   108.78813739   172.87791078
 H     19  15  14     2.062594569302   110.07394216    26.26766594
 H     19  15  14     2.068148900472   109.31898935   269.53880143
 C     19  15  14     2.882750763385   114.27328780   145.76196442
 H     23  19  15     2.074557456810   110.81692127    56.04004437
 H     23  19  15     2.068534560363   108.51134162   173.28296627
 C     23  19  15     2.902840413152   112.76973073   292.64697585
 O     26  23  19     2.591060443124   112.45056163   308.05816608
 H     26  23  19     2.095303577779   106.73832820   184.14541170
 H     26  23  19     2.109398105186   107.80097515    72.66078514
 H      3   1   2     1.941755229999   111.21736672    79.20415484
 H      3   1   2     1.943131363941   110.31307706   322.98023061
 H      3   1   2     1.943901060001   111.20347886   198.97165888

---------------------
BASIS SET INFORMATION
---------------------
There are 4 groups of distinct atoms

 Group   1 Type C   : 11s6p2d1f contracted to 5s3p2d1f pattern {62111/411/11/1}
 Group   2 Type H   : 5s1p contracted to 3s1p pattern {311/1}
 Group   3 Type N   : 11s6p2d1f contracted to 5s3p2d1f pattern {62111/411/11/1}
 Group   4 Type O   : 11s6p2d1f contracted to 5s3p2d1f pattern {62111/411/11/1}

Atom   0C    basis set group =>   1
Atom   1H    basis set group =>   2
Atom   2N    basis set group =>   3
Atom   3C    basis set group =>   1
Atom   4H    basis set group =>   2
Atom   5H    basis set group =>   2
Atom   6H    basis set group =>   2
Atom   7C    basis set group =>   1
Atom   8H    basis set group =>   2
Atom   9C    basis set group =>   1
Atom  10H    basis set group =>   2
Atom  11H    basis set group =>   2
Atom  12H    basis set group =>   2
Atom  13C    basis set group =>   1
Atom  14C    basis set group =>   1
Atom  15H    basis set group =>   2
Atom  16H    basis set group =>   2
Atom  17H    basis set group =>   2
Atom  18C    basis set group =>   1
Atom  19H    basis set group =>   2
Atom  20H    basis set group =>   2
Atom  21H    basis set group =>   2
Atom  22C    basis set group =>   1
Atom  23H    basis set group =>   2
Atom  24H    basis set group =>   2
Atom  25C    basis set group =>   1
Atom  26O    basis set group =>   4
Atom  27H    basis set group =>   2
Atom  28H    basis set group =>   2
Atom  29H    basis set group =>   2
Atom  30H    basis set group =>   2
Atom  31H    basis set group =>   2
---------------------------------
AUXILIARY/J BASIS SET INFORMATION
---------------------------------
There are 4 groups of distinct atoms

 Group   1 Type C   : 12s5p4d2f1g contracted to 6s4p3d1f1g pattern {711111/2111/211/2/1}
 Group   2 Type H   : 5s2p1d contracted to 3s1p1d pattern {311/2/1}
 Group   3 Type N   : 12s5p4d2f1g contracted to 6s4p3d1f1g pattern {711111/2111/211/2/1}
 Group   4 Type O   : 12s5p4d2f1g contracted to 6s4p3d1f1g pattern {711111/2111/211/2/1}

Atom   0C    basis set group =>   1
Atom   1H    basis set group =>   2
Atom   2N    basis set group =>   3
Atom   3C    basis set group =>   1
Atom   4H    basis set group =>   2
Atom   5H    basis set group =>   2
Atom   6H    basis set group =>   2
Atom   7C    basis set group =>   1
Atom   8H    basis set group =>   2
Atom   9C    basis set group =>   1
Atom  10H    basis set group =>   2
Atom  11H    basis set group =>   2
Atom  12H    basis set group =>   2
Atom  13C    basis set group =>   1
Atom  14C    basis set group =>   1
Atom  15H    basis set group =>   2
Atom  16H    basis set group =>   2
Atom  17H    basis set group =>   2
Atom  18C    basis set group =>   1
Atom  19H    basis set group =>   2
Atom  20H    basis set group =>   2
Atom  21H    basis set group =>   2
Atom  22C    basis set group =>   1
Atom  23H    basis set group =>   2
Atom  24H    basis set group =>   2
Atom  25C    basis set group =>   1
Atom  26O    basis set group =>   4
Atom  27H    basis set group =>   2
Atom  28H    basis set group =>   2
Atom  29H    basis set group =>   2
Atom  30H    basis set group =>   2
Atom  31H    basis set group =>   2


           ************************************************************
           *        Program running with 18 parallel MPI-processes    *
           *              working on a common directory               *
           ************************************************************
------------------------------------------------------------------------------
                           ORCA GTO INTEGRAL CALCULATION
                           -- RI-GTO INTEGRALS CHOSEN --
------------------------------------------------------------------------------
------------------------------------------------------------------------------
                   ___                                                        
                  /   \      - P O W E R E D   B Y -                         
                 /     \                                                     
                 |  |  |   _    _      __       _____    __    __             
                 |  |  |  | |  | |    /  \     |  _  \  |  |  /  |          
                  \  \/   | |  | |   /    \    | | | |  |  | /  /          
                 / \  \   | |__| |  /  /\  \   | |_| |  |  |/  /          
                |  |  |   |  __  | /  /__\  \  |    /   |      \           
                |  |  |   | |  | | |   __   |  |    \   |  |\   \          
                \     /   | |  | | |  |  |  |  | |\  \  |  | \   \       
                 \___/    |_|  |_| |__|  |__|  |_| \__\ |__|  \__/        
                                                                              
                      - O R C A' S   B I G   F R I E N D -                    
                                      &                                       
                       - I N T E G R A L  F E E D E R -                       
                                                                              
 v1 FN, 2020, v2 2021                                                         
------------------------------------------------------------------------------


Reading SHARK input file LC_PBE_B_wt_wb97.SHARKINP.tmp ... ok
----------------------
SHARK INTEGRAL PACKAGE
----------------------

Number of atoms                             ...     32
Number of basis functions                   ...    467
Number of shells                            ...    205
Maximum angular momentum                    ...      3
Integral batch strategy                     ... SHARK/LIBINT Hybrid
RI-J (if used) integral strategy            ... SPLIT-RIJ (Revised 2003 algorithm where possible)
Printlevel                                  ...      1
Contraction scheme used                     ... SEGMENTED contraction
Coulomb Range Separation                    ... NOT USED
Exchange Range Separation                   ... Long Range
   Mu parameter                             ...  0.470000
   Scaling (regular/separated)              ...  0.000000  1.000000
Finite Nucleus Model                        ... NOT USED
Auxiliary Coulomb fitting basis             ... AVAILABLE
   # of basis functions in Aux-J            ...    770
   # of shells in Aux-J                     ...    270
   Maximum angular momentum in Aux-J        ...      4
Auxiliary J/K fitting basis                 ... NOT available
Auxiliary Correlation fitting basis         ... NOT available
Auxiliary 'external' fitting basis          ... NOT available
Integral threshold                          ...     2.500000e-11
Primitive cut-off                           ...     2.500000e-12
Primitive pair pre-selection threshold      ...     2.500000e-12

Calculating pre-screening integrals         ... done (  0.2 sec) Dimension = 205
Organizing shell pair data                  ... done (  0.2 sec)
Shell pair information
Total number of shell pairs                 ...     21115
Shell pairs after pre-screening             ...     18268
Total number of primitive shell pairs       ...     60336
Primitive shell pairs kept                  ...     37615
          la=0 lb=0:   5968 shell pairs
          la=1 lb=0:   5517 shell pairs
          la=1 lb=1:   1317 shell pairs
          la=2 lb=0:   2275 shell pairs
          la=2 lb=1:   1073 shell pairs
          la=2 lb=2:    232 shell pairs
          la=3 lb=0:   1087 shell pairs
          la=3 lb=1:    516 shell pairs
          la=3 lb=2:    222 shell pairs
          la=3 lb=3:     61 shell pairs

Calculating one electron integrals          ... done (  0.0 sec)
Calculating RI/J V-Matrix + Cholesky decomp.... done (  0.1 sec)
Calculating Nuclear repulsion               ... done (  0.0 sec) ENN=    704.827124718823 Eh

SHARK setup successfully completed in   0.6 seconds

Maximum memory used throughout the entire GTOINT-calculation: 27.8 MB


           ************************************************************
           *        Program running with 18 parallel MPI-processes    *
           *              working on a common directory               *
           ************************************************************
-------------------------------------------------------------------------------
                                 ORCA SCF
-------------------------------------------------------------------------------

------------
SCF SETTINGS
------------
Hamiltonian:
 Density Functional     Method          .... DFT(GTOs)
 Exchange Functional    Exchange        .... LC-PBE
 Correlation Functional Correlation     .... PBE
   PBE beta parameter  CBetaPBE         ....  0.066725
 LDA part of GGA corr.  LDAOpt          .... PW91-LDA
 Gradients option       PostSCFGGA      .... off
   Density functional embedding theory  .... OFF
 Long-range corrected/Screened/Range-Separated Hybrid DFT is turned on
   Amount of maximum screened exact exchange              ....  1.000000
   Range separation parameter mu (erf(mu*r12)/r12)        ....  0.470000
   NL short-range parameter             ....  6.400000
 RI-approximation to the Coulomb term is turned on
   Number of AuxJ basis functions       .... 770
   RIJ-COSX (HFX calculated with COS-X)).... on


General Settings:
 Integral files         IntName         .... LC_PBE_B_wt_wb97
 Hartree-Fock type      HFTyp           .... RHF
 Total Charge           Charge          ....    0
 Multiplicity           Mult            ....    1
 Number of Electrons    NEL             ....   90
 Basis Dimension        Dim             ....  467
 Nuclear Repulsion      ENuc            ....    704.8271247188 Eh

Convergence Acceleration:
 DIIS                   CNVDIIS         .... on
   Start iteration      DIISMaxIt       ....    12
   Startup error        DIISStart       ....  0.200000
   # of expansion vecs  DIISMaxEq       ....     5
   Bias factor          DIISBfac        ....   1.050
   Max. coefficient     DIISMaxC        ....  10.000
 Trust-Rad. Augm. Hess. CNVTRAH         .... auto
   Auto Start mean grad. ratio tolernc. ....  1.125000
   Auto Start start iteration           ....    20
   Auto Start num. interpolation iter.  ....    10
   Max. Number of Micro iterations      ....    16
   Max. Number of Macro iterations      .... Maxiter - #DIIS iter
   Number of Davidson start vectors     ....     2
   Converg. threshold I  (grad. norm)   ....   1.000e-05
   Converg. threshold II (energy diff.) ....   1.000e-08
   Grad. Scal. Fac. for Micro threshold ....   0.100
   Minimum threshold for Micro iter.    ....   0.010
   NR start threshold (gradient norm)   ....   0.001
   Initial trust radius                 ....   0.400
   Minimum AH scaling param. (alpha)    ....   1.000
   Maximum AH scaling param. (alpha)    .... 1000.000
   Orbital update algorithm             .... Taylor
   White noise on init. David. guess    .... on
   Maximum white noise                  ....   0.010
   Quad. conv. algorithm                .... NR
 SOSCF                  CNVSOSCF        .... on
   Start iteration      SOSCFMaxIt      ....   150
   Startup grad/error   SOSCFStart      ....  0.003300
 Level Shifting         CNVShift        .... on
   Level shift para.    LevelShift      ....    0.2500
   Turn off err/grad.   ShiftErr        ....    0.0010
 Zerner damping         CNVZerner       .... off
 Static damping         CNVDamp         .... on
   Fraction old density DampFac         ....    0.7000
   Max. Damping (<1)    DampMax         ....    0.9800
   Min. Damping (>=0)   DampMin         ....    0.0000
   Turn off err/grad.   DampErr         ....    0.1000
 Fernandez-Rico         CNVRico         .... off

SCF Procedure:
 Maximum # iterations   MaxIter         ....   150
 SCF integral mode      SCFMode         .... Direct
   Integral package                     .... SHARK and LIBINT hybrid scheme
 Reset frequency        DirectResetFreq ....    20
 Integral Threshold     Thresh          ....  2.500e-11 Eh
 Primitive CutOff       TCut            ....  2.500e-12 Eh

Convergence Tolerance:
 Convergence Check Mode ConvCheckMode   .... Total+1el-Energy
 Convergence forced     ConvForced      .... 0
 Energy Change          TolE            ....  1.000e-08 Eh
 1-El. energy change                    ....  1.000e-05 Eh
 Orbital Gradient       TolG            ....  1.000e-05
 Orbital Rotation angle TolX            ....  1.000e-05
 DIIS Error             TolErr          ....  5.000e-07


Diagonalization of the overlap matrix:
Smallest eigenvalue                        ... 7.642e-05
Time for diagonalization                   ...    0.087 sec
Threshold for overlap eigenvalues          ... 1.000e-08
Number of eigenvalues below threshold      ... 0
Time for construction of square roots      ...    0.100 sec
Total time needed                          ...    0.191 sec

Time for model grid setup =    0.188 sec

------------------------------
INITIAL GUESS: MODEL POTENTIAL
------------------------------
Loading Hartree-Fock densities                     ... done
Calculating cut-offs                               ... done
Initializing the effective Hamiltonian             ... done
Setting up the integral package (SHARK)            ... done
Starting the Coulomb interaction                   ... done (   0.2 sec)
Reading the grid                                   ... done
Mapping shells                                     ... done
Starting the XC term evaluation                    ... done (   0.1 sec)
  promolecular density results
     # of electrons  =     89.975923616
     EX              =    -46.258429934
     EC              =     -2.978679375
     EX+EC           =    -49.237109309
Transforming the Hamiltonian                       ... done (   0.0 sec)
Diagonalizing the Hamiltonian                      ... done (   0.1 sec)
Back transforming the eigenvectors                 ... done (   0.0 sec)
Now organizing SCF variables                       ... done
                      ------------------
                      INITIAL GUESS DONE (   0.7 sec)
                      ------------------
-------------------
DFT GRID GENERATION
-------------------

General Integration Accuracy     IntAcc      ... 4.388
Radial Grid Type                 RadialGrid  ... OptM3 with GC (2021)
Angular Grid (max. ang.)         AngularGrid ... 4 (Lebedev-302)
Angular grid pruning method      GridPruning ... 4 (adaptive)
Weight generation scheme         WeightScheme... Becke
Basis function cutoff            BFCut       ... 1.0000e-11
Integration weight cutoff        WCut        ... 1.0000e-14
Angular grids for H and He will be reduced by one unit
Partially contracted basis set               ... off
Rotationally invariant grid construction     ... off

Total number of grid points                  ...   131913
Total number of batches                      ...     2077
Average number of points per batch           ...       63
Average number of grid points per atom       ...     4122
Time for grid setup =    0.907 sec

--------------------
COSX GRID GENERATION
--------------------

GRIDX 1
-------
General Integration Accuracy     IntAcc      ... 3.816
Radial Grid Type                 RadialGrid  ... OptM3 with GC (2021)
Angular Grid (max. ang.)         AngularGrid ... 1 (Lebedev-50)
Angular grid pruning method      GridPruning ... 4 (adaptive)
Weight generation scheme         WeightScheme... Becke
Basis function cutoff            BFCut       ... 1.0000e-11
Integration weight cutoff        WCut        ... 1.0000e-14
Angular grids for H and He will be reduced by one unit
Partially contracted basis set               ... on
Rotationally invariant grid construction     ... off

Total number of grid points                  ...    16869
Total number of batches                      ...      285
Average number of points per batch           ...       59
Average number of grid points per atom       ...      527
UseSFitting                                  ... on

GRIDX 2
-------
General Integration Accuracy     IntAcc      ... 4.020
Radial Grid Type                 RadialGrid  ... OptM3 with GC (2021)
Angular Grid (max. ang.)         AngularGrid ... 2 (Lebedev-110)
Angular grid pruning method      GridPruning ... 4 (adaptive)
Weight generation scheme         WeightScheme... Becke
Basis function cutoff            BFCut       ... 1.0000e-11
Integration weight cutoff        WCut        ... 1.0000e-14
Angular grids for H and He will be reduced by one unit
Partially contracted basis set               ... on
Rotationally invariant grid construction     ... off

Total number of grid points                  ...    34706
Total number of batches                      ...      562
Average number of points per batch           ...       61
Average number of grid points per atom       ...     1085
UseSFitting                                  ... on

GRIDX 3
-------
General Integration Accuracy     IntAcc      ... 4.338
Radial Grid Type                 RadialGrid  ... OptM3 with GC (2021)
Angular Grid (max. ang.)         AngularGrid ... 3 (Lebedev-194)
Angular grid pruning method      GridPruning ... 4 (adaptive)
Weight generation scheme         WeightScheme... Becke
Basis function cutoff            BFCut       ... 1.0000e-11
Integration weight cutoff        WCut        ... 1.0000e-14
Angular grids for H and He will be reduced by one unit
Partially contracted basis set               ... on
Rotationally invariant grid construction     ... off

Total number of grid points                  ...    75263
Total number of batches                      ...     1194
Average number of points per batch           ...       63
Average number of grid points per atom       ...     2352
UseSFitting                                  ... on

Time for X-Grid setup             =    0.917 sec

--------------
SCF ITERATIONS
--------------
ITER       Energy         Delta-E        Max-DP      RMS-DP      [F,P]     Damp
               ***  Starting incremental Fock matrix formation  ***
  0   -483.9281772235   0.000000000000 0.04609096  0.00064525  0.1720172 0.7000
  1   -484.0000728306  -0.071895607053 0.04283131  0.00051763  0.0777354 0.7000
                               ***Turning on DIIS***
  2   -484.0369247056  -0.036851875044 0.08577831  0.00106686  0.0395391 0.0000
  3   -484.1017923806  -0.064867675008 0.05300508  0.00047782  0.0466261 0.0000
  4   -484.1108062278  -0.009013847206 0.01280806  0.00015769  0.0108548 0.0000
  5   -484.1112793765  -0.000473148704 0.00877880  0.00009581  0.0065219 0.0000
                      *** Initiating the SOSCF procedure ***
                           *** Shutting down DIIS ***
                      *** Re-Reading the Fockian *** 
                      *** Removing any level shift *** 
ITER      Energy       Delta-E        Grad      Rot      Max-DP    RMS-DP
  6   -484.11140444  -0.0001250604  0.000445  0.000445  0.003362  0.000043
               *** Restarting incremental Fock matrix formation ***
  7   -484.11143334  -0.0000288998  0.000211  0.000452  0.002497  0.000027
  8   -484.11143610  -0.0000027625  0.000079  0.000290  0.001317  0.000015
  9   -484.11143645  -0.0000003474  0.000029  0.000033  0.000273  0.000003
 10   -484.11143651  -0.0000000591  0.000007  0.000008  0.000053  0.000001
 11   -484.11143653  -0.0000000279  0.000004  0.000004  0.000017  0.000000
                  ***Gradient check signals convergence***
              ***Rediagonalizing the Fockian in SOSCF/NRSCF***

               *****************************************************
               *                     SUCCESS                       *
               *           SCF CONVERGED AFTER  12 CYCLES          *
               *****************************************************


----------------
TOTAL SCF ENERGY
----------------

Total Energy       :         -484.11143654 Eh          -13173.34191 eV

Components:
Nuclear Repulsion  :          704.82712472 Eh           19179.32112 eV
Electronic Energy  :        -1188.93856126 Eh          -32352.66303 eV
One Electron Energy:        -2056.59402056 Eh          -55962.76839 eV
Two Electron Energy:          867.65545930 Eh           23610.10536 eV
Max COSX asymmetry :            0.00000492 Eh               0.00013 eV

Virial components:
Potential Energy   :         -965.55050505 Eh          -26273.96499 eV
Kinetic Energy     :          481.43906851 Eh           13100.62308 eV
Virial Ratio       :            2.00555079


DFT components:
N(Alpha)           :       45.000097180013 electrons
N(Beta)            :       45.000097180013 electrons
N(Total)           :       90.000194360026 electrons
E(X)               :      -47.464930488280 Eh       
E(C)               :       -2.974290536866 Eh       
E(XC)              :      -50.439221025147 Eh       
DFET-embed. en.    :        0.000000000000 Eh       

---------------
SCF CONVERGENCE
---------------

  Last Energy change         ...   -7.5110e-09  Tolerance :   1.0000e-08
  Last MAX-Density change    ...    1.0704e-05  Tolerance :   1.0000e-07
  Last RMS-Density change    ...    1.5602e-07  Tolerance :   5.0000e-09
  Last Orbital Gradient      ...    1.3114e-06  Tolerance :   1.0000e-05
  Last Orbital Rotation      ...    2.5172e-06  Tolerance :   1.0000e-05

             **** THE GBW FILE WAS UPDATED (LC_PBE_B_wt_wb97.gbw) ****
             **** DENSITY LC_PBE_B_wt_wb97.scfp WAS UPDATED ****
             **** ENERGY FILE WAS UPDATED (LC_PBE_B_wt_wb97.en.tmp) ****
             **** THE GBW FILE WAS UPDATED (LC_PBE_B_wt_wb97.gbw) ****
             **** DENSITY LC_PBE_B_wt_wb97.scfp WAS UPDATED ****
----------------
ORBITAL ENERGIES
----------------

  NO   OCC          E(Eh)            E(eV) 
   0   2.0000     -18.838343      -512.6174 
   1   2.0000     -14.293860      -388.9557 
   2   2.0000     -10.182522      -277.0805 
   3   2.0000     -10.138193      -275.8743 
   4   2.0000     -10.111506      -275.1481 
   5   2.0000     -10.099007      -274.8079 
   6   2.0000     -10.094960      -274.6978 
   7   2.0000     -10.093621      -274.6614 
   8   2.0000     -10.080988      -274.3176 
   9   2.0000     -10.067305      -273.9453 
  10   2.0000     -10.060203      -273.7520 
  11   2.0000      -1.164136       -31.6778 
  12   2.0000      -1.053634       -28.6708 
  13   2.0000      -0.998698       -27.1759 
  14   2.0000      -0.956917       -26.0390 
  15   2.0000      -0.915605       -24.9149 
  16   2.0000      -0.867558       -23.6074 
  17   2.0000      -0.827356       -22.5135 
  18   2.0000      -0.784336       -21.3429 
  19   2.0000      -0.755556       -20.5597 
  20   2.0000      -0.722737       -19.6667 
  21   2.0000      -0.717172       -19.5152 
  22   2.0000      -0.702553       -19.1175 
  23   2.0000      -0.662042       -18.0151 
  24   2.0000      -0.634659       -17.2700 
  25   2.0000      -0.614713       -16.7272 
  26   2.0000      -0.611992       -16.6532 
  27   2.0000      -0.581161       -15.8142 
  28   2.0000      -0.564165       -15.3517 
  29   2.0000      -0.560041       -15.2395 
  30   2.0000      -0.536812       -14.6074 
  31   2.0000      -0.527139       -14.3442 
  32   2.0000      -0.516223       -14.0471 
  33   2.0000      -0.496363       -13.5067 
  34   2.0000      -0.487402       -13.2629 
  35   2.0000      -0.474995       -12.9253 
  36   2.0000      -0.466615       -12.6972 
  37   2.0000      -0.451624       -12.2893 
  38   2.0000      -0.442009       -12.0277 
  39   2.0000      -0.435838       -11.8598 
  40   2.0000      -0.413050       -11.2397 
  41   2.0000      -0.408520       -11.1164 
  42   2.0000      -0.402664       -10.9571 
  43   2.0000      -0.306004        -8.3268 
  44   2.0000      -0.299961        -8.1623 
  45   0.0000       0.078102         2.1253 
  46   0.0000       0.118542         3.2257 
  47   0.0000       0.123609         3.3636 
  48   0.0000       0.137396         3.7387 
  49   0.0000       0.150987         4.1086 
  50   0.0000       0.160344         4.3632 
  51   0.0000       0.165567         4.5053 
  52   0.0000       0.169043         4.5999 
  53   0.0000       0.180756         4.9186 
  54   0.0000       0.193478         5.2648 
  55   0.0000       0.197527         5.3750 
  56   0.0000       0.201028         5.4702 
  57   0.0000       0.203552         5.5389 
  58   0.0000       0.218031         5.9329 
  59   0.0000       0.222855         6.0642 
  60   0.0000       0.230245         6.2653 
  61   0.0000       0.238767         6.4972 
  62   0.0000       0.250768         6.8238 
  63   0.0000       0.252020         6.8578 
  64   0.0000       0.257747         7.0137 
  65   0.0000       0.268721         7.3123 
  66   0.0000       0.274999         7.4831 
  67   0.0000       0.280182         7.6241 
  68   0.0000       0.289004         7.8642 
  69   0.0000       0.292381         7.9561 
  70   0.0000       0.304685         8.2909 
  71   0.0000       0.311796         8.4844 
  72   0.0000       0.321300         8.7430 
  73   0.0000       0.327337         8.9073 
  74   0.0000       0.343499         9.3471 
  75   0.0000       0.344925         9.3859 
  76   0.0000       0.357749         9.7348 
  77   0.0000       0.361066         9.8251 
  78   0.0000       0.364769         9.9259 
  79   0.0000       0.374185        10.1821 
  80   0.0000       0.381186        10.3726 
  81   0.0000       0.392110        10.6699 
  82   0.0000       0.399515        10.8714 
  83   0.0000       0.401419        10.9232 
  84   0.0000       0.413779        11.2595 
  85   0.0000       0.422580        11.4990 
  86   0.0000       0.431006        11.7283 
  87   0.0000       0.451368        12.2823 
  88   0.0000       0.462077        12.5737 
  89   0.0000       0.483297        13.1512 
  90   0.0000       0.485545        13.2124 
  91   0.0000       0.489222        13.3124 
  92   0.0000       0.498274        13.5587 
  93   0.0000       0.511124        13.9084 
  94   0.0000       0.516579        14.0568 
  95   0.0000       0.523737        14.2516 
  96   0.0000       0.524921        14.2838 
  97   0.0000       0.532490        14.4898 
  98   0.0000       0.538213        14.6455 
  99   0.0000       0.541255        14.7283 
 100   0.0000       0.550748        14.9866 
 101   0.0000       0.552470        15.0335 
 102   0.0000       0.554494        15.0885 
 103   0.0000       0.564822        15.3696 
 104   0.0000       0.571056        15.5392 
 105   0.0000       0.572622        15.5818 
 106   0.0000       0.577336        15.7101 
 107   0.0000       0.580843        15.8055 
 108   0.0000       0.588376        16.0105 
 109   0.0000       0.589346        16.0369 
 110   0.0000       0.596717        16.2375 
 111   0.0000       0.600304        16.3351 
 112   0.0000       0.606256        16.4971 
 113   0.0000       0.609610        16.5883 
 114   0.0000       0.610337        16.6081 
 115   0.0000       0.617787        16.8108 
 116   0.0000       0.625218        17.0130 
 117   0.0000       0.629921        17.1410 
 118   0.0000       0.643407        17.5080 
 119   0.0000       0.652137        17.7456 
 120   0.0000       0.655698        17.8425 
 121   0.0000       0.663957        18.0672 
 122   0.0000       0.669485        18.2176 
 123   0.0000       0.683010        18.5857 
 124   0.0000       0.704083        19.1591 
 125   0.0000       0.706414        19.2225 
 126   0.0000       0.722556        19.6618 
 127   0.0000       0.743039        20.2191 
 128   0.0000       0.750137        20.4123 
 129   0.0000       0.767998        20.8983 
 130   0.0000       0.777365        21.1532 
 131   0.0000       0.790813        21.5191 
 132   0.0000       0.811288        22.0763 
 133   0.0000       0.834583        22.7101 
 134   0.0000       0.844306        22.9747 
 135   0.0000       0.863168        23.4880 
 136   0.0000       0.864971        23.5371 
 137   0.0000       0.882979        24.0271 
 138   0.0000       0.898426        24.4474 
 139   0.0000       0.917231        24.9591 
 140   0.0000       0.921414        25.0730 
 141   0.0000       0.932275        25.3685 
 142   0.0000       0.936877        25.4937 
 143   0.0000       0.947012        25.7695 
 144   0.0000       0.958538        26.0831 
 145   0.0000       0.972345        26.4589 
 146   0.0000       0.995902        27.0999 
 147   0.0000       1.017013        27.6743 
 148   0.0000       1.020877        27.7795 
 149   0.0000       1.039492        28.2860 
 150   0.0000       1.050111        28.5750 
 151   0.0000       1.063757        28.9463 
 152   0.0000       1.075396        29.2630 
 153   0.0000       1.087447        29.5909 
 154   0.0000       1.106710        30.1151 
 155   0.0000       1.115316        30.3493 
 156   0.0000       1.124886        30.6097 
 157   0.0000       1.135199        30.8903 
 158   0.0000       1.145893        31.1813 
 159   0.0000       1.167631        31.7728 
 160   0.0000       1.176326        32.0095 
 161   0.0000       1.196350        32.5543 
 162   0.0000       1.211661        32.9710 
 163   0.0000       1.228475        33.4285 
 164   0.0000       1.229763        33.4636 
 165   0.0000       1.242999        33.8237 
 166   0.0000       1.256338        34.1867 
 167   0.0000       1.266922        34.4747 
 168   0.0000       1.289782        35.0967 
 169   0.0000       1.300037        35.3758 
 170   0.0000       1.306554        35.5531 
 171   0.0000       1.313539        35.7432 
 172   0.0000       1.324641        36.0453 
 173   0.0000       1.328975        36.1632 
 174   0.0000       1.350399        36.7462 
 175   0.0000       1.360438        37.0194 
 176   0.0000       1.366971        37.1972 
 177   0.0000       1.381537        37.5935 
 178   0.0000       1.391082        37.8533 
 179   0.0000       1.407718        38.3060 
 180   0.0000       1.418578        38.6015 
 181   0.0000       1.432900        38.9912 
 182   0.0000       1.442110        39.2418 
 183   0.0000       1.449866        39.4529 
 184   0.0000       1.464571        39.8530 
 185   0.0000       1.472163        40.0596 
 186   0.0000       1.488725        40.5103 
 187   0.0000       1.507706        41.0268 
 188   0.0000       1.522991        41.4427 
 189   0.0000       1.538427        41.8627 
 190   0.0000       1.572640        42.7937 
 191   0.0000       1.634889        44.4876 
 192   0.0000       1.657919        45.1143 
 193   0.0000       1.670501        45.4566 
 194   0.0000       1.677321        45.6422 
 195   0.0000       1.687815        45.9278 
 196   0.0000       1.693440        46.0808 
 197   0.0000       1.703616        46.3577 
 198   0.0000       1.706772        46.4436 
 199   0.0000       1.718792        46.7707 
 200   0.0000       1.723610        46.9018 
 201   0.0000       1.740652        47.3655 
 202   0.0000       1.749082        47.5949 
 203   0.0000       1.760009        47.8923 
 204   0.0000       1.784733        48.5651 
 205   0.0000       1.787937        48.6522 
 206   0.0000       1.791151        48.7397 
 207   0.0000       1.798557        48.9412 
 208   0.0000       1.804550        49.1043 
 209   0.0000       1.822179        49.5840 
 210   0.0000       1.832223        49.8573 
 211   0.0000       1.837416        49.9986 
 212   0.0000       1.842581        50.1392 
 213   0.0000       1.853756        50.4433 
 214   0.0000       1.869631        50.8753 
 215   0.0000       1.889798        51.4240 
 216   0.0000       1.903905        51.8079 
 217   0.0000       1.919791        52.2402 
 218   0.0000       1.934313        52.6353 
 219   0.0000       1.941715        52.8368 
 220   0.0000       1.951644        53.1069 
 221   0.0000       1.963467        53.4287 
 222   0.0000       1.977097        53.7995 
 223   0.0000       1.985859        54.0380 
 224   0.0000       1.997727        54.3609 
 225   0.0000       2.005767        54.5797 
 226   0.0000       2.019385        54.9503 
 227   0.0000       2.034257        55.3549 
 228   0.0000       2.043789        55.6143 
 229   0.0000       2.059080        56.0304 
 230   0.0000       2.066101        56.2215 
 231   0.0000       2.072940        56.4076 
 232   0.0000       2.090293        56.8798 
 233   0.0000       2.095096        57.0105 
 234   0.0000       2.119407        57.6720 
 235   0.0000       2.143607        58.3305 
 236   0.0000       2.148018        58.4505 
 237   0.0000       2.156264        58.6749 
 238   0.0000       2.175804        59.2066 
 239   0.0000       2.182940        59.4008 
 240   0.0000       2.201642        59.9097 
 241   0.0000       2.219118        60.3853 
 242   0.0000       2.221988        60.4634 
 243   0.0000       2.234441        60.8022 
 244   0.0000       2.252525        61.2943 
 245   0.0000       2.269540        61.7573 
 246   0.0000       2.278625        62.0045 
 247   0.0000       2.291794        62.3629 
 248   0.0000       2.308456        62.8163 
 249   0.0000       2.335021        63.5392 
 250   0.0000       2.369939        64.4893 
 251   0.0000       2.380892        64.7874 
 252   0.0000       2.395402        65.1822 
 253   0.0000       2.406835        65.4933 
 254   0.0000       2.419590        65.8404 
 255   0.0000       2.438434        66.3532 
 256   0.0000       2.445765        66.5527 
 257   0.0000       2.462196        66.9998 
 258   0.0000       2.473968        67.3201 
 259   0.0000       2.485617        67.6371 
 260   0.0000       2.516898        68.4883 
 261   0.0000       2.540359        69.1267 
 262   0.0000       2.549130        69.3654 
 263   0.0000       2.560253        69.6680 
 264   0.0000       2.572590        70.0037 
 265   0.0000       2.581945        70.2583 
 266   0.0000       2.590204        70.4830 
 267   0.0000       2.602939        70.8296 
 268   0.0000       2.617335        71.2213 
 269   0.0000       2.624702        71.4218 
 270   0.0000       2.632509        71.6342 
 271   0.0000       2.635018        71.7025 
 272   0.0000       2.654753        72.2395 
 273   0.0000       2.668170        72.6046 
 274   0.0000       2.675878        72.8143 
 275   0.0000       2.686879        73.1137 
 276   0.0000       2.696323        73.3707 
 277   0.0000       2.699176        73.4483 
 278   0.0000       2.707384        73.6717 
 279   0.0000       2.730458        74.2995 
 280   0.0000       2.743788        74.6623 
 281   0.0000       2.747039        74.7507 
 282   0.0000       2.760824        75.1258 
 283   0.0000       2.772725        75.4497 
 284   0.0000       2.776856        75.5621 
 285   0.0000       2.781328        75.6838 
 286   0.0000       2.791136        75.9507 
 287   0.0000       2.795816        76.0780 
 288   0.0000       2.807157        76.3866 
 289   0.0000       2.818920        76.7067 
 290   0.0000       2.823158        76.8220 
 291   0.0000       2.838226        77.2320 
 292   0.0000       2.849391        77.5359 
 293   0.0000       2.853236        77.6405 
 294   0.0000       2.873347        78.1878 
 295   0.0000       2.874889        78.2297 
 296   0.0000       2.875965        78.2590 
 297   0.0000       2.891377        78.6784 
 298   0.0000       2.900623        78.9300 
 299   0.0000       2.906072        79.0782 
 300   0.0000       2.907574        79.1191 
 301   0.0000       2.912441        79.2516 
 302   0.0000       2.922094        79.5142 
 303   0.0000       2.940558        80.0166 
 304   0.0000       2.951183        80.3058 
 305   0.0000       2.966093        80.7115 
 306   0.0000       2.968422        80.7749 
 307   0.0000       2.989191        81.3400 
 308   0.0000       2.993147        81.4477 
 309   0.0000       3.006394        81.8081 
 310   0.0000       3.013126        81.9913 
 311   0.0000       3.044747        82.8518 
 312   0.0000       3.060653        83.2846 
 313   0.0000       3.079808        83.8058 
 314   0.0000       3.094653        84.2098 
 315   0.0000       3.104355        84.4738 
 316   0.0000       3.127364        85.0999 
 317   0.0000       3.154723        85.8444 
 318   0.0000       3.165247        86.1307 
 319   0.0000       3.171976        86.3139 
 320   0.0000       3.196372        86.9777 
 321   0.0000       3.199765        87.0700 
 322   0.0000       3.222185        87.6801 
 323   0.0000       3.224554        87.7446 
 324   0.0000       3.248337        88.3917 
 325   0.0000       3.255817        88.5953 
 326   0.0000       3.263742        88.8109 
 327   0.0000       3.275056        89.1188 
 328   0.0000       3.284752        89.3826 
 329   0.0000       3.297915        89.7408 
 330   0.0000       3.310855        90.0930 
 331   0.0000       3.321162        90.3734 
 332   0.0000       3.337312        90.8129 
 333   0.0000       3.350857        91.1815 
 334   0.0000       3.361432        91.4692 
 335   0.0000       3.376441        91.8776 
 336   0.0000       3.381853        92.0249 
 337   0.0000       3.404366        92.6375 
 338   0.0000       3.408074        92.7384 
 339   0.0000       3.423147        93.1486 
 340   0.0000       3.432600        93.4058 
 341   0.0000       3.438534        93.5673 
 342   0.0000       3.448319        93.8335 
 343   0.0000       3.467065        94.3436 
 344   0.0000       3.468282        94.3768 
 345   0.0000       3.475169        94.5642 
 346   0.0000       3.490983        94.9945 
 347   0.0000       3.500936        95.2653 
 348   0.0000       3.512789        95.5879 
 349   0.0000       3.540059        96.3299 
 350   0.0000       3.541755        96.3761 
 351   0.0000       3.553410        96.6932 
 352   0.0000       3.562662        96.9450 
 353   0.0000       3.564013        96.9817 
 354   0.0000       3.575180        97.2856 
 355   0.0000       3.597142        97.8832 
 356   0.0000       3.609157        98.2102 
 357   0.0000       3.620814        98.5274 
 358   0.0000       3.627625        98.7127 
 359   0.0000       3.646614        99.2294 
 360   0.0000       3.661643        99.6384 
 361   0.0000       3.671028        99.8938 
 362   0.0000       3.688356       100.3653 
 363   0.0000       3.700735       100.7021 
 364   0.0000       3.707269       100.8799 
 365   0.0000       3.713675       101.0542 
 366   0.0000       3.723985       101.3348 
 367   0.0000       3.742047       101.8263 
 368   0.0000       3.755372       102.1889 
 369   0.0000       3.774468       102.7085 
 370   0.0000       3.784664       102.9859 
 371   0.0000       3.815432       103.8232 
 372   0.0000       3.830807       104.2416 
 373   0.0000       3.852854       104.8415 
 374   0.0000       3.866217       105.2051 
 375   0.0000       3.867235       105.2328 
 376   0.0000       3.902760       106.1995 
 377   0.0000       3.916782       106.5811 
 378   0.0000       3.926067       106.8337 
 379   0.0000       3.956239       107.6547 
 380   0.0000       3.976632       108.2097 
 381   0.0000       4.006473       109.0217 
 382   0.0000       4.016070       109.2828 
 383   0.0000       4.033266       109.7507 
 384   0.0000       4.043690       110.0344 
 385   0.0000       4.051674       110.2517 
 386   0.0000       4.074788       110.8806 
 387   0.0000       4.091456       111.3342 
 388   0.0000       4.108938       111.8099 
 389   0.0000       4.116557       112.0172 
 390   0.0000       4.132132       112.4410 
 391   0.0000       4.141118       112.6856 
 392   0.0000       4.166924       113.3878 
 393   0.0000       4.184885       113.8765 
 394   0.0000       4.196167       114.1835 
 395   0.0000       4.212781       114.6356 
 396   0.0000       4.217911       114.7752 
 397   0.0000       4.253144       115.7339 
 398   0.0000       4.259496       115.9068 
 399   0.0000       4.281474       116.5048 
 400   0.0000       4.298550       116.9695 
 401   0.0000       4.344552       118.2213 
 402   0.0000       4.362957       118.7221 
 403   0.0000       4.382167       119.2448 
 404   0.0000       4.392564       119.5278 
 405   0.0000       4.441519       120.8599 
 406   0.0000       4.468481       121.5935 
 407   0.0000       4.504253       122.5670 
 408   0.0000       4.537631       123.4752 
 409   0.0000       4.546526       123.7173 
 410   0.0000       4.564241       124.1993 
 411   0.0000       4.598158       125.1222 
 412   0.0000       4.616930       125.6331 
 413   0.0000       4.652751       126.6078 
 414   0.0000       4.663871       126.9104 
 415   0.0000       4.720893       128.4620 
 416   0.0000       4.725063       128.5755 
 417   0.0000       4.764119       129.6383 
 418   0.0000       4.800059       130.6162 
 419   0.0000       4.823792       131.2620 
 420   0.0000       4.844497       131.8255 
 421   0.0000       4.867344       132.4472 
 422   0.0000       4.894286       133.1803 
 423   0.0000       4.898845       133.3044 
 424   0.0000       4.913496       133.7030 
 425   0.0000       4.927531       134.0849 
 426   0.0000       4.932673       134.2249 
 427   0.0000       4.987866       135.7267 
 428   0.0000       4.997162       135.9797 
 429   0.0000       5.008085       136.2769 
 430   0.0000       5.032009       136.9279 
 431   0.0000       5.052795       137.4935 
 432   0.0000       5.065169       137.8302 
 433   0.0000       5.103238       138.8662 
 434   0.0000       5.136205       139.7632 
 435   0.0000       5.152328       140.2020 
 436   0.0000       5.185420       141.1025 
 437   0.0000       5.229814       142.3105 
 438   0.0000       5.260295       143.1399 
 439   0.0000       5.278933       143.6471 
 440   0.0000       5.338190       145.2595 
 441   0.0000       5.493211       149.4779 
 442   0.0000       5.499880       149.6593 
 443   0.0000       5.529986       150.4786 
 444   0.0000       5.635229       153.3424 
 445   0.0000       5.730306       155.9295 
 446   0.0000       5.830258       158.6494 
 447   0.0000       6.091191       165.7497 
 448   0.0000       6.162104       167.6794 
 449   0.0000       6.206486       168.8871 
 450   0.0000       6.611332       179.9035 
 451   0.0000       6.705778       182.4735 
 452   0.0000       6.849708       186.3900 
 453   0.0000       7.056649       192.0212 
 454   0.0000       7.305834       198.8018 
 455   0.0000       7.415291       201.7803 
 456   0.0000      22.432616       610.4225 
 457   0.0000      22.489965       611.9830 
 458   0.0000      22.523957       612.9080 
 459   0.0000      22.545712       613.5000 
 460   0.0000      22.565836       614.0476 
 461   0.0000      22.578277       614.3862 
 462   0.0000      22.614952       615.3841 
 463   0.0000      22.619911       615.5191 
 464   0.0000      22.672014       616.9369 
 465   0.0000      31.999378       870.7473 
 466   0.0000      43.992679      1197.1017 

                    ********************************
                    * MULLIKEN POPULATION ANALYSIS *
                    ********************************

-----------------------
MULLIKEN ATOMIC CHARGES
-----------------------
   0 C :   -0.270355
   1 H :    0.215876
   2 N :   -0.308557
   3 C :   -0.343752
   4 H :    0.173647
   5 H :    0.171164
   6 H :    0.163897
   7 C :   -0.295717
   8 H :    0.149435
   9 C :   -0.303508
  10 H :    0.155417
  11 H :    0.165201
  12 H :    0.141075
  13 C :   -0.271346
  14 C :   -0.338388
  15 H :    0.146126
  16 H :    0.140836
  17 H :    0.153612
  18 C :   -0.249020
  19 H :    0.140845
  20 H :    0.145483
  21 H :    0.130468
  22 C :   -0.223195
  23 H :    0.112357
  24 H :    0.118221
  25 C :   -0.117005
  26 O :   -0.705060
  27 H :    0.078502
  28 H :    0.056972
  29 H :    0.291672
  30 H :    0.291793
  31 H :    0.283306
Sum of atomic charges:    0.0000000

--------------------------------
MULLIKEN REDUCED ORBITAL CHARGES
--------------------------------
  0 C s       :     3.283903  s :     3.283903
      pz      :     0.984701  p :     2.866504
      px      :     1.131220
      py      :     0.750582
      dz2     :     0.014382  d :     0.112516
      dxz     :     0.025652
      dyz     :     0.030289
      dx2y2   :     0.021613
      dxy     :     0.020582
      f0      :     0.001303  f :     0.007432
      f+1     :     0.000853
      f-1     :     0.001397
      f+2     :     0.000967
      f-2     :     0.000157
      f+3     :     0.001494
      f-3     :     0.001262
  1 H s       :     0.764047  s :     0.764047
      pz      :     0.006297  p :     0.020077
      px      :     0.009259
      py      :     0.004521
  2 N s       :     3.414291  s :     3.414291
      pz      :     1.227010  p :     3.850226
      px      :     1.441584
      py      :     1.181632
      dz2     :     0.005675  d :     0.042297
      dxz     :     0.004439
      dyz     :     0.012231
      dx2y2   :     0.006838
      dxy     :     0.013113
      f0      :     0.000162  f :     0.001743
      f+1     :     0.000339
      f-1     :     0.000242
      f+2     :     0.000202
      f-2     :     0.000081
      f+3     :     0.000446
      f-3     :     0.000271
  3 C s       :     3.284420  s :     3.284420
      pz      :     0.882966  p :     2.956086
      px      :     0.954003
      py      :     1.119118
      dz2     :     0.023394  d :     0.098438
      dxz     :     0.031869
      dyz     :     0.009740
      dx2y2   :     0.013184
      dxy     :     0.020253
      f0      :     0.000861  f :     0.004808
      f+1     :     0.001403
      f-1     :     0.000668
      f+2     :     0.000344
      f-2     :     0.000353
      f+3     :     0.000423
      f-3     :     0.000756
  4 H s       :     0.807276  s :     0.807276
      pz      :     0.005149  p :     0.019076
      px      :     0.010062
      py      :     0.003866
  5 H s       :     0.809774  s :     0.809774
      pz      :     0.005752  p :     0.019062
      px      :     0.007836
      py      :     0.005474
  6 H s       :     0.816474  s :     0.816474
      pz      :     0.003716  p :     0.019629
      px      :     0.004388
      py      :     0.011526
  7 C s       :     3.251573  s :     3.251573
      pz      :     1.063572  p :     2.945700
      px      :     0.875049
      py      :     1.007079
      dz2     :     0.028400  d :     0.093662
      dxz     :     0.015742
      dyz     :     0.003782
      dx2y2   :     0.028522
      dxy     :     0.017216
      f0      :     0.000733  f :     0.004781
      f+1     :     0.000910
      f-1     :     0.000201
      f+2     :     0.000350
      f-2     :     0.000503
      f+3     :     0.001083
      f-3     :     0.001000
  8 H s       :     0.829492  s :     0.829492
      pz      :     0.004339  p :     0.021073
      px      :     0.004881
      py      :     0.011853
  9 C s       :     3.250603  s :     3.250603
      pz      :     1.035007  p :     2.951923
      px      :     0.923594
      py      :     0.993322
      dz2     :     0.031385  d :     0.096148
      dxz     :     0.013097
      dyz     :     0.003729
      dx2y2   :     0.026712
      dxy     :     0.021224
      f0      :     0.000680  f :     0.004834
      f+1     :     0.001062
      f-1     :     0.000263
      f+2     :     0.000320
      f-2     :     0.000533
      f+3     :     0.001008
      f-3     :     0.000969
 10 H s       :     0.825248  s :     0.825248
      pz      :     0.011734  p :     0.019334
      px      :     0.003629
      py      :     0.003971
 11 H s       :     0.814263  s :     0.814263
      pz      :     0.012411  p :     0.020536
      px      :     0.004053
      py      :     0.004072
 12 H s       :     0.839767  s :     0.839767
      pz      :     0.004061  p :     0.019158
      px      :     0.004337
      py      :     0.010760
 13 C s       :     3.252713  s :     3.252713
      pz      :     1.029143  p :     2.913196
      px      :     0.926401
      py      :     0.957652
      dz2     :     0.027463  d :     0.100557
      dxz     :     0.010253
      dyz     :     0.013631
      dx2y2   :     0.015924
      dxy     :     0.033286
      f0      :     0.000882  f :     0.004880
      f+1     :     0.000816
      f-1     :     0.000167
      f+2     :     0.000337
      f-2     :     0.000573
      f+3     :     0.000852
      f-3     :     0.001254
 14 C s       :     3.277626  s :     3.277626
      pz      :     0.951658  p :     2.965414
      px      :     1.078408
      py      :     0.935348
      dz2     :     0.013373  d :     0.090724
      dxz     :     0.022999
      dyz     :     0.025849
      dx2y2   :     0.014473
      dxy     :     0.014030
      f0      :     0.001121  f :     0.004624
      f+1     :     0.000698
      f-1     :     0.000805
      f+2     :     0.000449
      f-2     :     0.000275
      f+3     :     0.000520
      f-3     :     0.000757
 15 H s       :     0.834615  s :     0.834615
      pz      :     0.004534  p :     0.019259
      px      :     0.007029
      py      :     0.007696
 16 H s       :     0.840042  s :     0.840042
      pz      :     0.011212  p :     0.019122
      px      :     0.003775
      py      :     0.004136
 17 H s       :     0.825705  s :     0.825705
      pz      :     0.004822  p :     0.020683
      px      :     0.007366
      py      :     0.008495
 18 C s       :     3.221867  s :     3.221867
      pz      :     0.910532  p :     2.930900
      px      :     1.040487
      py      :     0.979880
      dz2     :     0.017161  d :     0.091516
      dxz     :     0.015227
      dyz     :     0.028268
      dx2y2   :     0.010453
      dxy     :     0.020407
      f0      :     0.000930  f :     0.004737
      f+1     :     0.000831
      f-1     :     0.000996
      f+2     :     0.000389
      f-2     :     0.000280
      f+3     :     0.000763
      f-3     :     0.000548
 19 H s       :     0.839793  s :     0.839793
      pz      :     0.006333  p :     0.019362
      px      :     0.008956
      py      :     0.004073
 20 H s       :     0.833400  s :     0.833400
      pz      :     0.007330  p :     0.021117
      px      :     0.007773
      py      :     0.006015
 21 H s       :     0.850319  s :     0.850319
      pz      :     0.003960  p :     0.019213
      px      :     0.010380
      py      :     0.004872
 22 C s       :     3.204819  s :     3.204819
      pz      :     1.048408  p :     2.916028
      px      :     0.949787
      py      :     0.917833
      dz2     :     0.012088  d :     0.097417
      dxz     :     0.020164
      dyz     :     0.018020
      dx2y2   :     0.015194
      dxy     :     0.031949
      f0      :     0.000682  f :     0.004932
      f+1     :     0.000385
      f-1     :     0.000544
      f+2     :     0.000758
      f-2     :     0.000298
      f+3     :     0.001345
      f-3     :     0.000920
 23 H s       :     0.868680  s :     0.868680
      pz      :     0.006179  p :     0.018963
      px      :     0.006180
      py      :     0.006604
 24 H s       :     0.862400  s :     0.862400
      pz      :     0.010580  p :     0.019379
      px      :     0.004886
      py      :     0.003913
 25 C s       :     3.228864  s :     3.228864
      pz      :     0.924863  p :     2.711910
      px      :     0.848041
      py      :     0.939006
      dz2     :     0.037932  d :     0.165141
      dxz     :     0.029486
      dyz     :     0.018963
      dx2y2   :     0.057044
      dxy     :     0.021716
      f0      :     0.000989  f :     0.011090
      f+1     :     0.001560
      f-1     :     0.001478
      f+2     :     0.002300
      f-2     :     0.001172
      f+3     :     0.001642
      f-3     :     0.001949
 26 O s       :     3.805178  s :     3.805178
      pz      :     1.712384  p :     4.876939
      px      :     1.530669
      py      :     1.633886
      dz2     :     0.003664  d :     0.021614
      dxz     :     0.003922
      dyz     :     0.004903
      dx2y2   :     0.005183
      dxy     :     0.003943
      f0      :     0.000148  f :     0.001328
      f+1     :     0.000125
      f-1     :     0.000152
      f+2     :     0.000157
      f-2     :     0.000316
      f+3     :     0.000242
      f-3     :     0.000189
 27 H s       :     0.903470  s :     0.903470
      pz      :     0.004151  p :     0.018029
      px      :     0.003379
      py      :     0.010498
 28 H s       :     0.925405  s :     0.925405
      pz      :     0.010453  p :     0.017623
      px      :     0.003772
      py      :     0.003398
 29 H s       :     0.675490  s :     0.675490
      pz      :     0.016273  p :     0.032838
      px      :     0.009367
      py      :     0.007198
 30 H s       :     0.622362  s :     0.622362
      pz      :     0.009374  p :     0.085845
      px      :     0.065452
      py      :     0.011019
 31 H s       :     0.684106  s :     0.684106
      pz      :     0.012519  p :     0.032588
      px      :     0.010124
      py      :     0.009945


                     *******************************
                     * LOEWDIN POPULATION ANALYSIS *
                     *******************************

----------------------
LOEWDIN ATOMIC CHARGES
----------------------
   0 C :   -0.295959
   1 H :    0.156037
   2 N :    0.133288
   3 C :   -0.293405
   4 H :    0.138205
   5 H :    0.144189
   6 H :    0.155401
   7 C :   -0.283718
   8 H :    0.148805
   9 C :   -0.288047
  10 H :    0.146821
  11 H :    0.145842
  12 H :    0.141055
  13 C :   -0.287986
  14 C :   -0.282761
  15 H :    0.144884
  16 H :    0.140656
  17 H :    0.140324
  18 C :   -0.289775
  19 H :    0.139623
  20 H :    0.146973
  21 H :    0.135655
  22 C :   -0.302719
  23 H :    0.134394
  24 H :    0.139308
  25 C :   -0.498532
  26 O :   -0.283729
  27 H :    0.105098
  28 H :    0.090832
  29 H :    0.200788
  30 H :    0.082449
  31 H :    0.196003

-------------------------------
LOEWDIN REDUCED ORBITAL CHARGES
-------------------------------
  0 C s       :     2.785497  s :     2.785497
      pz      :     1.075211  p :     3.019838
      px      :     1.070356
      py      :     0.874271
      dz2     :     0.079315  d :     0.440618
      dxz     :     0.084913
      dyz     :     0.106847
      dx2y2   :     0.087440
      dxy     :     0.082104
      f0      :     0.007777  f :     0.050005
      f+1     :     0.005349
      f-1     :     0.009645
      f+2     :     0.006991
      f-2     :     0.004406
      f+3     :     0.008963
      f-3     :     0.006874
  1 H s       :     0.782585  s :     0.782585
      pz      :     0.019344  p :     0.061378
      px      :     0.027856
      py      :     0.014178
  2 N s       :     2.970245  s :     2.970245
      pz      :     1.197019  p :     3.725692
      px      :     1.312261
      py      :     1.216412
      dz2     :     0.023603  d :     0.160405
      dxz     :     0.017025
      dyz     :     0.045170
      dx2y2   :     0.034501
      dxy     :     0.040106
      f0      :     0.000906  f :     0.010370
      f+1     :     0.001599
      f-1     :     0.001330
      f+2     :     0.001149
      f-2     :     0.001511
      f+3     :     0.002379
      f-3     :     0.001495
  3 C s       :     2.769709  s :     2.769709
      pz      :     1.013826  p :     3.089062
      px      :     1.034097
      py      :     1.041139
      dz2     :     0.102046  d :     0.397291
      dxz     :     0.112273
      dyz     :     0.048282
      dx2y2   :     0.065314
      dxy     :     0.069376
      f0      :     0.005824  f :     0.037344
      f+1     :     0.009234
      f-1     :     0.005498
      f+2     :     0.003403
      f-2     :     0.005484
      f+3     :     0.002906
      f-3     :     0.004994
  4 H s       :     0.802556  s :     0.802556
      pz      :     0.015861  p :     0.059239
      px      :     0.031053
      py      :     0.012325
  5 H s       :     0.798207  s :     0.798207
      pz      :     0.017398  p :     0.057604
      px      :     0.022195
      py      :     0.018010
  6 H s       :     0.786366  s :     0.786366
      pz      :     0.012302  p :     0.058233
      px      :     0.013657
      py      :     0.032274
  7 C s       :     2.762748  s :     2.762748
      pz      :     1.030620  p :     3.087970
      px      :     1.009301
      py      :     1.048050
      dz2     :     0.109637  d :     0.395264
      dxz     :     0.066936
      dyz     :     0.023820
      dx2y2   :     0.111659
      dxy     :     0.083212
      f0      :     0.004102  f :     0.037737
      f+1     :     0.005842
      f-1     :     0.002703
      f+2     :     0.005236
      f-2     :     0.006321
      f+3     :     0.007038
      f-3     :     0.006495
  8 H s       :     0.790093  s :     0.790093
      pz      :     0.014318  p :     0.061102
      px      :     0.015117
      py      :     0.031667
  9 C s       :     2.763734  s :     2.763734
      pz      :     1.047446  p :     3.088534
      px      :     1.017403
      py      :     1.023684
      dz2     :     0.113095  d :     0.398146
      dxz     :     0.068000
      dyz     :     0.024116
      dx2y2   :     0.104025
      dxy     :     0.088910
      f0      :     0.003769  f :     0.037632
      f+1     :     0.006575
      f-1     :     0.002835
      f+2     :     0.004865
      f-2     :     0.006477
      f+3     :     0.007011
      f-3     :     0.006101
 10 H s       :     0.795223  s :     0.795223
      pz      :     0.031856  p :     0.057956
      px      :     0.012294
      py      :     0.013806
 11 H s       :     0.793495  s :     0.793495
      pz      :     0.033379  p :     0.060663
      px      :     0.013654
      py      :     0.013630
 12 H s       :     0.801460  s :     0.801460
      pz      :     0.014245  p :     0.057485
      px      :     0.013912
      py      :     0.029328
 13 C s       :     2.767993  s :     2.767993
      pz      :     1.029952  p :     3.082662
      px      :     1.017091
      py      :     1.035618
      dz2     :     0.100209  d :     0.400236
      dxz     :     0.052393
      dyz     :     0.051591
      dx2y2   :     0.076404
      dxy     :     0.119640
      f0      :     0.004727  f :     0.037095
      f+1     :     0.005009
      f-1     :     0.002500
      f+2     :     0.005233
      f-2     :     0.006027
      f+3     :     0.005495
      f-3     :     0.008103
 14 C s       :     2.764308  s :     2.764308
      pz      :     1.034923  p :     3.087464
      px      :     1.030739
      py      :     1.021803
      dz2     :     0.074440  d :     0.393337
      dxz     :     0.094948
      dyz     :     0.090706
      dx2y2   :     0.059201
      dxy     :     0.074043
      f0      :     0.007110  f :     0.037651
      f+1     :     0.004210
      f-1     :     0.007067
      f+2     :     0.006017
      f-2     :     0.004061
      f+3     :     0.003896
      f-3     :     0.005291
 15 H s       :     0.797528  s :     0.797528
      pz      :     0.015243  p :     0.057589
      px      :     0.020301
      py      :     0.022044
 16 H s       :     0.802036  s :     0.802036
      pz      :     0.031187  p :     0.057308
      px      :     0.012805
      py      :     0.013316
 17 H s       :     0.799915  s :     0.799915
      pz      :     0.014582  p :     0.059761
      px      :     0.022138
      py      :     0.023040
 18 C s       :     2.764298  s :     2.764298
      pz      :     1.022821  p :     3.093735
      px      :     1.032128
      py      :     1.038787
      dz2     :     0.085604  d :     0.393797
      dxz     :     0.064255
      dyz     :     0.108021
      dx2y2   :     0.063940
      dxy     :     0.071977
      f0      :     0.005980  f :     0.037945
      f+1     :     0.005674
      f-1     :     0.007467
      f+2     :     0.004148
      f-2     :     0.005710
      f+3     :     0.005216
      f-3     :     0.003750
 19 H s       :     0.802367  s :     0.802367
      pz      :     0.018838  p :     0.058010
      px      :     0.025917
      py      :     0.013255
 20 H s       :     0.791649  s :     0.791649
      pz      :     0.020383  p :     0.061379
      px      :     0.022740
      py      :     0.018256
 21 H s       :     0.806441  s :     0.806441
      pz      :     0.013274  p :     0.057904
      px      :     0.029681
      py      :     0.014948
 22 C s       :     2.779491  s :     2.779491
      pz      :     1.030772  p :     3.095350
      px      :     1.041939
      py      :     1.022639
      dz2     :     0.060170  d :     0.391282
      dxz     :     0.074032
      dyz     :     0.067817
      dx2y2   :     0.082455
      dxy     :     0.106808
      f0      :     0.004466  f :     0.036597
      f+1     :     0.003375
      f-1     :     0.003983
      f+2     :     0.004967
      f-2     :     0.004763
      f+3     :     0.008645
      f-3     :     0.006397
 23 H s       :     0.808481  s :     0.808481
      pz      :     0.019766  p :     0.057125
      px      :     0.018193
      py      :     0.019166
 24 H s       :     0.802973  s :     0.802973
      pz      :     0.029856  p :     0.057719
      px      :     0.015195
      py      :     0.012668
 25 C s       :     2.796216  s :     2.796216
      pz      :     0.995290  p :     2.984169
      px      :     0.999045
      py      :     0.989834
      dz2     :     0.152225  d :     0.640390
      dxz     :     0.111602
      dyz     :     0.081072
      dx2y2   :     0.190477
      dxy     :     0.105014
      f0      :     0.006571  f :     0.077756
      f+1     :     0.011760
      f-1     :     0.008331
      f+2     :     0.014822
      f-2     :     0.010972
      f+3     :     0.011589
      f-3     :     0.013712
 26 O s       :     3.423167  s :     3.423167
      pz      :     1.676526  p :     4.793253
      px      :     1.487276
      py      :     1.629451
      dz2     :     0.011032  d :     0.062674
      dxz     :     0.010345
      dyz     :     0.011732
      dx2y2   :     0.017406
      dxy     :     0.012159
      f0      :     0.000452  f :     0.004635
      f+1     :     0.000558
      f-1     :     0.000584
      f+2     :     0.000618
      f-2     :     0.000882
      f+3     :     0.000949
      f-3     :     0.000591
 27 H s       :     0.841164  s :     0.841164
      pz      :     0.013581  p :     0.053738
      px      :     0.011011
      py      :     0.029146
 28 H s       :     0.855708  s :     0.855708
      pz      :     0.030105  p :     0.053461
      px      :     0.012138
      py      :     0.011218
 29 H s       :     0.699505  s :     0.699505
      pz      :     0.048902  p :     0.099707
      px      :     0.030179
      py      :     0.020626
 30 H s       :     0.641848  s :     0.641848
      pz      :     0.026034  p :     0.275702
      px      :     0.218802
      py      :     0.030866
 31 H s       :     0.704001  s :     0.704001
      pz      :     0.038741  p :     0.099996
      px      :     0.033478
      py      :     0.027777


                      *****************************
                      * MAYER POPULATION ANALYSIS *
                      *****************************

  NA   - Mulliken gross atomic population
  ZA   - Total nuclear charge
  QA   - Mulliken gross atomic charge
  VA   - Mayer's total valence
  BVA  - Mayer's bonded valence
  FA   - Mayer's free valence

  ATOM       NA         ZA         QA         VA         BVA        FA
  0 C      6.2704     6.0000    -0.2704     3.8143     3.8143     0.0000
  1 H      0.7841     1.0000     0.2159     0.9452     0.9452     0.0000
  2 N      7.3086     7.0000    -0.3086     3.2292     3.2292     0.0000
  3 C      6.3438     6.0000    -0.3438     3.7878     3.7878     0.0000
  4 H      0.8264     1.0000     0.1736     0.9573     0.9573     0.0000
  5 H      0.8288     1.0000     0.1712     0.9545     0.9545     0.0000
  6 H      0.8361     1.0000     0.1639     0.9681     0.9681    -0.0000
  7 C      6.2957     6.0000    -0.2957     3.7247     3.7247     0.0000
  8 H      0.8506     1.0000     0.1494     0.9656     0.9656    -0.0000
  9 C      6.3035     6.0000    -0.3035     3.7648     3.7648    -0.0000
 10 H      0.8446     1.0000     0.1554     0.9622     0.9622     0.0000
 11 H      0.8348     1.0000     0.1652     0.9554     0.9554     0.0000
 12 H      0.8589     1.0000     0.1411     0.9600     0.9600    -0.0000
 13 C      6.2713     6.0000    -0.2713     3.8422     3.8422     0.0000
 14 C      6.3384     6.0000    -0.3384     3.7734     3.7734    -0.0000
 15 H      0.8539     1.0000     0.1461     0.9601     0.9601    -0.0000
 16 H      0.8592     1.0000     0.1408     0.9616     0.9616     0.0000
 17 H      0.8464     1.0000     0.1536     0.9494     0.9494     0.0000
 18 C      6.2490     6.0000    -0.2490     3.7398     3.7398    -0.0000
 19 H      0.8592     1.0000     0.1408     0.9661     0.9661     0.0000
 20 H      0.8545     1.0000     0.1455     0.9849     0.9849     0.0000
 21 H      0.8695     1.0000     0.1305     0.9601     0.9601    -0.0000
 22 C      6.2232     6.0000    -0.2232     3.7667     3.7667     0.0000
 23 H      0.8876     1.0000     0.1124     0.9683     0.9683     0.0000
 24 H      0.8818     1.0000     0.1182     0.9736     0.9736     0.0000
 25 C      6.1170     6.0000    -0.1170     4.0676     4.0676     0.0000
 26 O      8.7051     8.0000    -0.7051     1.5706     1.5706     0.0000
 27 H      0.9215     1.0000     0.0785     0.9580     0.9580     0.0000
 28 H      0.9430     1.0000     0.0570     0.9367     0.9367     0.0000
 29 H      0.7083     1.0000     0.2917     0.9140     0.9140     0.0000
 30 H      0.7082     1.0000     0.2918     1.0557     1.0557     0.0000
 31 H      0.7167     1.0000     0.2833     0.9204     0.9204     0.0000

  Mayer bond orders larger than 0.100000
B(  0-C ,  1-H ) :   0.9718 B(  0-C ,  2-N ) :   0.8718 B(  0-C ,  3-C ) :   0.9512 
B(  0-C ,  4-H ) :   0.9752 B(  2-N , 29-H ) :   0.9043 B(  2-N , 30-H ) :   0.6314 
B(  2-N , 31-H ) :   0.8972 B(  3-C ,  5-H ) :   0.9929 B(  3-C ,  6-H ) :   0.9754 
B(  3-C ,  7-C ) :   0.9333 B(  7-C ,  8-H ) :   0.9857 B(  7-C ,  9-C ) :   0.8859 
B(  7-C , 10-H ) :   0.9734 B(  9-C , 11-H ) :   0.9778 B(  9-C , 12-H ) :   0.9727 
B(  9-C , 13-C ) :   0.9682 B( 13-C , 14-C ) :   0.9317 B( 13-C , 15-H ) :   0.9844 
B( 13-C , 16-H ) :   0.9911 B( 14-C , 17-H ) :   0.9993 B( 14-C , 18-C ) :   0.8913 
B( 14-C , 19-H ) :   0.9779 B( 18-C , 20-H ) :   0.9736 B( 18-C , 21-H ) :   0.9747 
B( 18-C , 22-C ) :   0.9642 B( 22-C , 23-H ) :   0.9755 B( 22-C , 24-H ) :   0.9716 
B( 22-C , 25-C ) :   0.9500 B( 25-C , 26-O ) :   1.1730 B( 25-C , 27-H ) :   0.9816 
B( 25-C , 28-H ) :   0.9775 B( 26-O , 30-H ) :   0.4289 

-------
TIMINGS
-------

Total SCF time: 0 days 0 hours 0 min 54 sec 

Total time                  ....      54.279 sec
Sum of individual times     ....      53.377 sec  ( 98.3%)

Fock matrix formation       ....      49.654 sec  ( 91.5%)
  Split-RI-J                ....       3.894 sec  (  7.8% of F)
  Chain of spheres X        ....      40.774 sec  ( 82.1% of F)
  XC integration            ....       4.746 sec  (  9.6% of F)
    Basis function eval.    ....       1.050 sec  ( 22.1% of XC)
    Density eval.           ....       1.059 sec  ( 22.3% of XC)
    XC-Functional eval.     ....       0.156 sec  (  3.3% of XC)
    XC-Potential eval.      ....       0.992 sec  ( 20.9% of XC)
Diagonalization             ....       0.514 sec  (  0.9%)
Density matrix formation    ....       0.039 sec  (  0.1%)
Population analysis         ....       0.069 sec  (  0.1%)
Initial guess               ....       0.464 sec  (  0.9%)
Orbital Transformation      ....       0.000 sec  (  0.0%)
Orbital Orthonormalization  ....       0.000 sec  (  0.0%)
DIIS solution               ....       0.291 sec  (  0.5%)
SOSCF solution              ....       0.335 sec  (  0.6%)
Grid generation             ....       2.012 sec  (  3.7%)

Maximum memory used throughout the entire SCF-calculation: 76.5 MB

-------------------------   --------------------
FINAL SINGLE POINT ENERGY      -484.111436541281
-------------------------   --------------------


                            ***************************************
                            *     ORCA property calculations      *
                            ***************************************

                                    ---------------------
                                    Active property flags
                                    ---------------------
   (+) Dipole Moment


------------------------------------------------------------------------------
                       ORCA ELECTRIC PROPERTIES CALCULATION
------------------------------------------------------------------------------

Dipole Moment Calculation                       ... on
Quadrupole Moment Calculation                   ... off
Polarizability Calculation                      ... off
GBWName                                         ... LC_PBE_B_wt_wb97.gbw
Electron density file                           ... LC_PBE_B_wt_wb97.scfp
The origin for moment calculation is the CENTER OF MASS  = ( 2.719608,  2.291278 -2.309193)

-------------
DIPOLE MOMENT
-------------
                                X             Y             Z
Electronic contribution:      2.15735       0.93017       2.55512
Nuclear contribution   :      0.61785      -1.47632      -2.91844
                        -----------------------------------------
Total Dipole Moment    :      2.77520      -0.54615      -0.36332
                        -----------------------------------------
Magnitude (a.u.)       :      2.85167
Magnitude (Debye)      :      7.24836



--------------------
Rotational spectrum 
--------------------
 
Rotational constants in cm-1:     0.040993     0.027400     0.018162 
Rotational constants in MHz :  1228.944366   821.418004   544.476857 

 Dipole components along the rotational axes: 
x,y,z [a.u.] :     2.793332    -0.304401    -0.486453 
x,y,z [Debye]:     7.100086    -0.773725    -1.236465 

 

Timings for individual modules:

Sum of individual times         ...       56.461 sec (=   0.941 min)
GTO integral calculation        ...        1.617 sec (=   0.027 min)   2.9 %
SCF iterations                  ...       54.844 sec (=   0.914 min)  97.1 %
                             ****ORCA TERMINATED NORMALLY****
TOTAL RUN TIME: 0 days 0 hours 0 minutes 57 seconds 137 msec
