
                                        *****************
                                        * O   R   C   A *
                                        *****************

                                            #,                                       
                                            ###                                      
                                            ####                                     
                                            #####                                    
                                            ######                                   
                                           ########,                                 
                                     ,,################,,,,,                         
                               ,,#################################,,                 
                          ,,##########################################,,             
                       ,#########################################, ''#####,          
                    ,#############################################,,   '####,        
                  ,##################################################,,,,####,       
                ,###########''''           ''''###############################       
              ,#####''   ,,,,##########,,,,          '''####'''          '####       
            ,##' ,,,,###########################,,,                        '##       
           ' ,,###''''                  '''############,,,                           
         ,,##''                                '''############,,,,        ,,,,,,###''
      ,#''                                            '''#######################'''  
     '                                                          ''''####''''         
             ,#######,   #######,   ,#######,      ##                                
            ,#'     '#,  ##    ##  ,#'     '#,    #''#        ######   ,####,        
            ##       ##  ##   ,#'  ##            #'  '#       #        #'  '#        
            ##       ##  #######   ##           ,######,      #####,   #    #        
            '#,     ,#'  ##    ##  '#,     ,#' ,#      #,         ##   #,  ,#        
             '#######'   ##     ##  '#######'  #'      '#     #####' # '####'        



                  #######################################################
                  #                        -***-                        #
                  #          Department of theory and spectroscopy      #
                  #    Directorship and core code : Frank Neese         #
                  #        Max Planck Institute fuer Kohlenforschung    #
                  #                Kaiser Wilhelm Platz 1               #
                  #                 D-45470 Muelheim/Ruhr               #
                  #                      Germany                        #
                  #                                                     #
                  #                  All rights reserved                #
                  #                        -***-                        #
                  #######################################################


                         Program Version 5.0.0 -  RELEASE  -
                                (SVN: $Rev: 19529$)
                ($Date: 2021-06-28 11:36:33 +0200 (Mo, 28 Jun 2021) $)


 With contributions from (in alphabetic order):
   Daniel Aravena         : Magnetic Suceptibility
   Michael Atanasov       : Ab Initio Ligand Field Theory (pilot matlab implementation)
   Alexander A. Auer      : GIAO ZORA, VPT2 properties, NMR spectrum
   Ute Becker             : Parallelization
   Giovanni Bistoni       : ED, misc. LED, open-shell LED, HFLD
   Martin Brehm           : Molecular dynamics
   Dmytro Bykov           : SCF Hessian
   Vijay G. Chilkuri      : MRCI spin determinant printing, contributions to CSF-ICE
   Dipayan Datta          : RHF DLPNO-CCSD density
   Achintya Kumar Dutta   : EOM-CC, STEOM-CC
   Dmitry Ganyushin       : Spin-Orbit,Spin-Spin,Magnetic field MRCI
   Miquel Garcia          : C-PCM Hessian, Gaussian charge scheme
   Yang Guo               : DLPNO-NEVPT2, F12-NEVPT2, CIM, IAO-localization
   Andreas Hansen         : Spin unrestricted coupled pair/coupled cluster methods
   Benjamin Helmich-Paris : MC-RPA, TRAH-SCF, COSX integrals
   Lee Huntington         : MR-EOM, pCC
   Robert Izsak           : Overlap fitted RIJCOSX, COSX-SCS-MP3, EOM
   Marcus Kettner         : VPT2
   Christian Kollmar      : KDIIS, OOCD, Brueckner-CCSD(T), CCSD density, CASPT2, CASPT2-K
   Simone Kossmann        : Meta GGA functionals, TD-DFT gradient, OOMP2, MP2 Hessian
   Martin Krupicka        : Initial AUTO-CI
   Lucas Lang             : DCDCAS
   Marvin Lechner         : AUTO-CI (C++ implementation), FIC-MRCC
   Dagmar Lenk            : GEPOL surface, SMD
   Dimitrios Liakos       : Extrapolation schemes; Compound Job, initial MDCI parallelization
   Dimitrios Manganas     : Further ROCIS development; embedding schemes
   Dimitrios Pantazis     : SARC Basis sets
   Anastasios Papadopoulos: AUTO-CI, single reference methods and gradients
   Taras Petrenko         : DFT Hessian,TD-DFT gradient, ASA, ECA, R-Raman, ABS, FL, XAS/XES, NRVS
   Peter Pinski           : DLPNO-MP2, DLPNO-MP2 Gradient
   Christoph Reimann      : Effective Core Potentials
   Marius Retegan         : Local ZFS, SOC
   Christoph Riplinger    : Optimizer, TS searches, QM/MM, DLPNO-CCSD(T), (RO)-DLPNO pert. Triples
   Tobias Risthaus        : Range-separated hybrids, TD-DFT gradient, RPA, STAB
   Michael Roemelt        : Original ROCIS implementation
   Masaaki Saitow         : Open-shell DLPNO-CCSD energy and density
   Barbara Sandhoefer     : DKH picture change effects
   Avijit Sen             : IP-ROCIS
   Kantharuban Sivalingam : CASSCF convergence, NEVPT2, FIC-MRCI
   Bernardo de Souza      : ESD, SOC TD-DFT
   Georgi Stoychev        : AutoAux, RI-MP2 NMR
   Willem Van den Heuvel  : Paramagnetic NMR
   Boris Wezisla          : Elementary symmetry handling
   Frank Wennmohs         : Technical directorship


 We gratefully acknowledge several colleagues who have allowed us to
 interface, adapt or use parts of their codes:
   Stefan Grimme, W. Hujo, H. Kruse, P. Pracht,  : VdW corrections, initial TS optimization,
                  C. Bannwarth, S. Ehlert          DFT functionals, gCP, sTDA/sTD-DF
   Ed Valeev, F. Pavosevic, A. Kumar             : LibInt (2-el integral package), F12 methods
   Garnet Chan, S. Sharma, J. Yang, R. Olivares  : DMRG
   Ulf Ekstrom                                   : XCFun DFT Library
   Mihaly Kallay                                 : mrcc  (arbitrary order and MRCC methods)
   Jiri Pittner, Ondrej Demel                    : Mk-CCSD
   Frank Weinhold                                : gennbo (NPA and NBO analysis)
   Christopher J. Cramer and Donald G. Truhlar   : smd solvation model
   Lars Goerigk                                  : TD-DFT with DH, B97 family of functionals
   V. Asgeirsson, H. Jonsson                     : NEB implementation
   FAccTs GmbH                                   : IRC, NEB, NEB-TS, DLPNO-Multilevel, CI-OPT
                                                   MM, QMMM, 2- and 3-layer-ONIOM, Crystal-QMMM,
                                                   LR-CPCM, SF, NACMEs, symmetry and pop. for TD-DFT,
                                                   nearIR, NL-DFT gradient (VV10), updates on ESD,
                                                   ML-optimized integration grids
   S Lehtola, MJT Oliveira, MAL Marques          : LibXC Library
   Liviu Ungur et al                             : ANISO software


 Your calculation uses the libint2 library for the computation of 2-el integrals
 For citations please refer to: http://libint.valeyev.net

 Your ORCA version has been built with support for libXC version: 5.1.0
 For citations please refer to: https://tddft.org/programs/libxc/

 This ORCA versions uses:
   CBLAS   interface :  Fast vector & matrix operations
   LAPACKE interface :  Fast linear algebra routines
   SCALAPACK package :  Parallel linear algebra routines
   Shared memory     :  Shared parallel matrices
   BLAS/LAPACK       :  OpenBLAS 0.3.15  USE64BITINT DYNAMIC_ARCH NO_AFFINITY Haswell SINGLE_THREADED
        Core in use  :  Haswell
   Copyright (c) 2011-2014, The OpenBLAS Project




***************************************
The coordinates will be read from file: B.xyz
***************************************


Your calculation utilizes the atom-pairwise dispersion correction
with the Becke-Johnson damping scheme (D3BJ)
Cite in your paper:
S.Grimme, S.Ehrlich, L.Goerigk, J Comput Chem, (2011), 32, 1456–1465 
S.Grimme, J.Antony, S.Ehrlich and H.Krieg, J.Chem.Phys., 132, (2010), 154104 
   

================================================================================

----- Orbital basis set information -----
Your calculation utilizes the basis: def2-TZVP
   F. Weigend and R. Ahlrichs, Phys. Chem. Chem. Phys. 7, 3297 (2005).

----- AuxJ basis set information -----
Your calculation utilizes the auxiliary basis: def2/J
   F. Weigend, Phys. Chem. Chem. Phys. 8, 1057 (2006).

================================================================================
                                        WARNINGS
                       Please study these warnings very carefully!
================================================================================



WARNING: Found flag for RIJCOSX approximation but no HF exchange needed!
  ===> : RIJCOSX  will be disabled and Split-RI-J is turned on

INFO   : the flag for use of the SHARK integral package has been found!

================================================================================
                                       INPUT FILE
================================================================================
NAME = TPSS_B_wt_wb97.com
|  1> !TPSS D3BJ RIJCOSX def2-TZVP def2/J TightSCF xyzfile                                                                                         
|  2> 
|  3> *xyzfile 0 1 B.xyz
|  4> 
|  5> %MaxCore 64000
|  6> 
|  7> %pal nprocs 18                                                                                                                                                  
|  8> end  
|  9> 
| 10> %scf
| 11>   MaxIter 150
| 12> end
| 13> 
| 14> 
| 15>                          ****END OF INPUT****
================================================================================

                       ****************************
                       * Single Point Calculation *
                       ****************************

---------------------------------
CARTESIAN COORDINATES (ANGSTROEM)
---------------------------------
  C      4.602954   -2.440100    2.634780
  C     -0.914947    0.615112    2.505538
  C     -0.059146    1.503524    3.410578
  H      0.365364    2.344315    2.861161
  H     -0.692261    1.920207    4.198985
  C      1.083027    0.749640    4.085705
  C      3.860851   -1.591565    3.622893
  N      2.756502   -2.046159    4.166333
  N      4.254325   -0.362905    3.860455
  H      3.565256    0.310994    4.168983
  H      5.054292   -0.016059    3.337838
  H      2.439696   -2.973894    3.897395
  H      2.066869   -1.412532    4.549813
  O      2.228167    1.263475    4.019826
  O      0.810034   -0.345411    4.636269
  C      3.744685   -2.580557    1.361882
  C      0.772139    0.636882    0.562129
  C     -0.130740   -0.193985    1.470763
  H     -0.840563   -0.760165    0.856377
  H      0.466691   -0.938942    2.006959
  H     -1.647961    1.245963    1.991076
  H     -1.478180   -0.081046    3.130424
  C      3.203721   -1.256004    0.826211
  H      2.898939   -3.239289    1.583074
  H      4.334962   -3.095523    0.600188
  C      2.107815   -1.442385   -0.216865
  H      2.786775   -0.672760    1.650711
  H      4.021008   -0.652993    0.414046
  C      1.390662   -0.145912   -0.602422
  H      1.372179   -2.152184    0.176151
  H      2.523302   -1.906787   -1.117115
  H      1.561361    1.100094    1.161831
  H      0.195516    1.468325    0.142758
  H      0.602893   -0.398214   -1.319716
  H      2.087247    0.508272   -1.137335
  H      5.561557   -1.971347    2.407084
  H      4.810498   -3.422552    3.063099

----------------------------
CARTESIAN COORDINATES (A.U.)
----------------------------
  NO LB      ZA    FRAG     MASS         X           Y           Z
   0 C     6.0000    0    12.011    8.698322   -4.611120    4.979013
   1 C     6.0000    0    12.011   -1.729000    1.162394    4.734780
   2 C     6.0000    0    12.011   -0.111770    2.841249    6.445058
   3 H     1.0000    0     1.008    0.690439    4.430113    5.406811
   4 H     1.0000    0     1.008   -1.308184    3.628665    7.934932
   5 C     6.0000    0    12.011    2.046625    1.416613    7.720864
   6 C     6.0000    0    12.011    7.295951   -3.007623    6.846275
   7 N     7.0000    0    14.007    5.209033   -3.866681    7.873228
   8 N     7.0000    0    14.007    8.039509   -0.685791    7.295203
   9 H     1.0000    0     1.008    6.737357    0.587693    7.878236
  10 H     1.0000    0     1.008    9.551228   -0.030346    6.307599
  11 H     1.0000    0     1.008    4.610356   -5.619845    7.365010
  12 H     1.0000    0     1.008    3.905816   -2.669299    8.597900
  13 O     8.0000    0    15.999    4.210626    2.387622    7.596370
  14 O     8.0000    0    15.999    1.530743   -0.652732    8.761278
  15 C     6.0000    0    12.011    7.076429   -4.876545    2.573585
  16 C     6.0000    0    12.011    1.459131    1.203533    1.062270
  17 C     6.0000    0    12.011   -0.247062   -0.366578    2.779339
  18 H     1.0000    0     1.008   -1.588435   -1.436503    1.618317
  19 H     1.0000    0     1.008    0.881918   -1.774344    3.792602
  20 H     1.0000    0     1.008   -3.114194    2.354529    3.762589
  21 H     1.0000    0     1.008   -2.793356   -0.153155    5.915644
  22 C     6.0000    0    12.011    6.054155   -2.373503    1.561312
  23 H     1.0000    0     1.008    5.478202   -6.121369    2.991576
  24 H     1.0000    0     1.008    8.191891   -5.849691    1.134191
  25 C     6.0000    0    12.011    3.983193   -2.725713   -0.409815
  26 H     1.0000    0     1.008    5.266242   -1.271333    3.119391
  27 H     1.0000    0     1.008    7.598605   -1.233978    0.782434
  28 C     6.0000    0    12.011    2.627970   -0.275734   -1.138412
  29 H     1.0000    0     1.008    2.593043   -4.067039    0.332877
  30 H     1.0000    0     1.008    4.768351   -3.603306   -2.111041
  31 H     1.0000    0     1.008    2.950544    2.078876    2.195543
  32 H     1.0000    0     1.008    0.369472    2.774732    0.269774
  33 H     1.0000    0     1.008    1.139302   -0.752515   -2.493901
  34 H     1.0000    0     1.008    3.944325    0.960495   -2.149252
  35 H     1.0000    0     1.008   10.509819   -3.725306    4.548729
  36 H     1.0000    0     1.008    9.090524   -6.467686    5.788418

--------------------------------
INTERNAL COORDINATES (ANGSTROEM)
--------------------------------
 C      0   0   0     0.000000000000     0.00000000     0.00000000
 C      1   0   0     6.308586203432     0.00000000     0.00000000
 C      2   1   0     1.529957107993    77.28183059     0.00000000
 H      3   2   1     1.090411256774   111.55882853    97.86413420
 H      3   2   1     1.093638623089   108.89708857   215.91870349
 C      3   2   1     1.526007259671   113.17289755   335.54994809
 C      1   2   3     1.499030944607    46.08102107    32.22435449
 N      7   1   2     1.312086311450   119.57550804    69.68026511
 N      7   1   2     1.311816934860   120.06979092   255.12582827
 H      9   7   1     1.012000689182   118.33807127   152.74591339
 H      9   7   1     1.016552687460   117.54905062     1.38456693
 H      8   7   1     1.016555216927   117.96452659     0.26424067
 H      8   7   1     1.011994677785   120.90292470   202.77321427
 O      6   3   2     1.256866490428   117.17953923   130.97680566
 O      6   3   2     1.255699244565   117.52128403   312.46756963
 C      1   2   3     1.541629623907    62.62949466   209.82401956
 C      2   1   7     2.573629742126    56.37183241   136.26281467
 C     17   2   1     1.526808691257    32.68646011    60.03349628
 H     18  17   2     1.096302867074   109.29355526   122.31318015
 H     18  17   2     1.095166743970   109.81281793   238.24291461
 H      2   1   7     1.095423053861   150.90514655   137.54603026
 H      2   1   7     1.091948135609    97.50871692   284.68569777
 C     16   1   2     1.527752200286   114.05719293    47.35458413
 H     16   1   2     1.094595536307   108.55040841   286.13459305
 H     16   1   2     1.092609492451   108.52889090   171.42518318
 C     23  16   1     1.524386816897   112.85978214   193.54989873
 H     23  16   1     1.092618984700   109.47162788   313.73212395
 H     23  16   1     1.096111287972   110.16899423    69.84711356
 C     26  23  16     1.530949467148   113.92567496   170.54322561
 H     26  23  16     1.095187357748   108.45658234    49.04879098
 H     26  23  16     1.094874135111   109.97857956   293.58866087
 H     17   2   1     1.094110893791    93.58564518   298.96858035
 H     17   2   1     1.095290749861    87.15927614   193.54313289
 H     29  26  23     1.094872693905   107.87186420   182.29548401
 H     29  26  23     1.095134664272   109.32442771    67.48507798
 H      1   2   3     1.091097475703   123.78768244   307.63340442
 H      1   2   3     1.091670392935   127.60165869   114.33613372

---------------------------
INTERNAL COORDINATES (A.U.)
---------------------------
 C      0   0   0     0.000000000000     0.00000000     0.00000000
 C      1   0   0    11.921500216720     0.00000000     0.00000000
 C      2   1   0     2.891199930754    77.28183059     0.00000000
 H      3   2   1     2.060578648647   111.55882853    97.86413420
 H      3   2   1     2.066677487118   108.89708857   215.91870349
 C      3   2   1     2.883735799153   113.17289755   335.54994809
 C      1   2   3     2.832757951581    46.08102107    32.22435449
 N      7   1   2     2.479483792708   119.57550804    69.68026511
 N      7   1   2     2.478974744726   120.06979092   255.12582827
 H      9   7   1     1.912404149893   118.33807127   152.74591339
 H      9   7   1     1.921006180000   117.54905062     1.38456693
 H      8   7   1     1.921010960000   117.96452659     0.26424067
 H      8   7   1     1.912392789999   120.90292470   202.77321427
 O      6   3   2     2.375133453811   117.17953923   130.97680566
 O      6   3   2     2.372927678799   117.52128403   312.46756963
 C      1   2   3     2.913257789125    62.62949466   209.82401956
 C      2   1   7     4.863455382733    56.37183241   136.26281467
 C     17   2   1     2.885250285367    32.68646011    60.03349628
 H     18  17   2     2.071712178603   109.29355526   122.31318015
 H     18  17   2     2.069565217082   109.81281793   238.24291461
 H      2   1   7     2.070049572580   150.90514655   137.54603026
 H      2   1   7     2.063482928747    97.50871692   284.68569777
 C     16   1   2     2.887033259036   114.05719293    47.35458413
 H     16   1   2     2.068485791032   108.55040841   286.13459305
 H     16   1   2     2.064732712056   108.52889090   171.42518318
 C     23  16   1     2.880673606096   112.85978214   193.54989873
 H     23  16   1     2.064750649806   109.47162788   313.73212395
 H     23  16   1     2.071350146566   110.16899423    69.84711356
 C     26  23  16     2.893075217783   113.92567496   170.54322561
 H     26  23  16     2.069604171476   108.45658234    49.04879098
 H     26  23  16     2.069012266473   109.97857956   293.58866087
 H     17   2   1     2.067569949404    93.58564518   298.96858035
 H     17   2   1     2.069799554255    87.15927614   193.54313289
 H     29  26  23     2.069009542990   107.87186420   182.29548401
 H     29  26  23     2.069504595238   109.32442771    67.48507798
 H      1   2   3     2.061875414492   123.78768244   307.63340442
 H      1   2   3     2.062958071157   127.60165869   114.33613372

---------------------
BASIS SET INFORMATION
---------------------
There are 4 groups of distinct atoms

 Group   1 Type C   : 11s6p2d1f contracted to 5s3p2d1f pattern {62111/411/11/1}
 Group   2 Type H   : 5s1p contracted to 3s1p pattern {311/1}
 Group   3 Type N   : 11s6p2d1f contracted to 5s3p2d1f pattern {62111/411/11/1}
 Group   4 Type O   : 11s6p2d1f contracted to 5s3p2d1f pattern {62111/411/11/1}

Atom   0C    basis set group =>   1
Atom   1C    basis set group =>   1
Atom   2C    basis set group =>   1
Atom   3H    basis set group =>   2
Atom   4H    basis set group =>   2
Atom   5C    basis set group =>   1
Atom   6C    basis set group =>   1
Atom   7N    basis set group =>   3
Atom   8N    basis set group =>   3
Atom   9H    basis set group =>   2
Atom  10H    basis set group =>   2
Atom  11H    basis set group =>   2
Atom  12H    basis set group =>   2
Atom  13O    basis set group =>   4
Atom  14O    basis set group =>   4
Atom  15C    basis set group =>   1
Atom  16C    basis set group =>   1
Atom  17C    basis set group =>   1
Atom  18H    basis set group =>   2
Atom  19H    basis set group =>   2
Atom  20H    basis set group =>   2
Atom  21H    basis set group =>   2
Atom  22C    basis set group =>   1
Atom  23H    basis set group =>   2
Atom  24H    basis set group =>   2
Atom  25C    basis set group =>   1
Atom  26H    basis set group =>   2
Atom  27H    basis set group =>   2
Atom  28C    basis set group =>   1
Atom  29H    basis set group =>   2
Atom  30H    basis set group =>   2
Atom  31H    basis set group =>   2
Atom  32H    basis set group =>   2
Atom  33H    basis set group =>   2
Atom  34H    basis set group =>   2
Atom  35H    basis set group =>   2
Atom  36H    basis set group =>   2
---------------------------------
AUXILIARY/J BASIS SET INFORMATION
---------------------------------
There are 4 groups of distinct atoms

 Group   1 Type C   : 12s5p4d2f1g contracted to 6s4p3d1f1g pattern {711111/2111/211/2/1}
 Group   2 Type H   : 5s2p1d contracted to 3s1p1d pattern {311/2/1}
 Group   3 Type N   : 12s5p4d2f1g contracted to 6s4p3d1f1g pattern {711111/2111/211/2/1}
 Group   4 Type O   : 12s5p4d2f1g contracted to 6s4p3d1f1g pattern {711111/2111/211/2/1}

Atom   0C    basis set group =>   1
Atom   1C    basis set group =>   1
Atom   2C    basis set group =>   1
Atom   3H    basis set group =>   2
Atom   4H    basis set group =>   2
Atom   5C    basis set group =>   1
Atom   6C    basis set group =>   1
Atom   7N    basis set group =>   3
Atom   8N    basis set group =>   3
Atom   9H    basis set group =>   2
Atom  10H    basis set group =>   2
Atom  11H    basis set group =>   2
Atom  12H    basis set group =>   2
Atom  13O    basis set group =>   4
Atom  14O    basis set group =>   4
Atom  15C    basis set group =>   1
Atom  16C    basis set group =>   1
Atom  17C    basis set group =>   1
Atom  18H    basis set group =>   2
Atom  19H    basis set group =>   2
Atom  20H    basis set group =>   2
Atom  21H    basis set group =>   2
Atom  22C    basis set group =>   1
Atom  23H    basis set group =>   2
Atom  24H    basis set group =>   2
Atom  25C    basis set group =>   1
Atom  26H    basis set group =>   2
Atom  27H    basis set group =>   2
Atom  28C    basis set group =>   1
Atom  29H    basis set group =>   2
Atom  30H    basis set group =>   2
Atom  31H    basis set group =>   2
Atom  32H    basis set group =>   2
Atom  33H    basis set group =>   2
Atom  34H    basis set group =>   2
Atom  35H    basis set group =>   2
Atom  36H    basis set group =>   2


           ************************************************************
           *        Program running with 18 parallel MPI-processes    *
           *              working on a common directory               *
           ************************************************************
------------------------------------------------------------------------------
                           ORCA GTO INTEGRAL CALCULATION
                           -- RI-GTO INTEGRALS CHOSEN --
------------------------------------------------------------------------------
------------------------------------------------------------------------------
                   ___                                                        
                  /   \      - P O W E R E D   B Y -                         
                 /     \                                                     
                 |  |  |   _    _      __       _____    __    __             
                 |  |  |  | |  | |    /  \     |  _  \  |  |  /  |          
                  \  \/   | |  | |   /    \    | | | |  |  | /  /          
                 / \  \   | |__| |  /  /\  \   | |_| |  |  |/  /          
                |  |  |   |  __  | /  /__\  \  |    /   |      \           
                |  |  |   | |  | | |   __   |  |    \   |  |\   \          
                \     /   | |  | | |  |  |  |  | |\  \  |  | \   \       
                 \___/    |_|  |_| |__|  |__|  |_| \__\ |__|  \__/        
                                                                              
                      - O R C A' S   B I G   F R I E N D -                    
                                      &                                       
                       - I N T E G R A L  F E E D E R -                       
                                                                              
 v1 FN, 2020, v2 2021                                                         
------------------------------------------------------------------------------


Reading SHARK input file TPSS_B_wt_wb97.SHARKINP.tmp ... ok
----------------------
SHARK INTEGRAL PACKAGE
----------------------

Number of atoms                             ...     37
Number of basis functions                   ...    597
Number of shells                            ...    253
Maximum angular momentum                    ...      3
Integral batch strategy                     ... SHARK/LIBINT Hybrid
RI-J (if used) integral strategy            ... SPLIT-RIJ (Revised 2003 algorithm where possible)
Printlevel                                  ...      1
Contraction scheme used                     ... SEGMENTED contraction
Coulomb Range Separation                    ... NOT USED
Exchange Range Separation                   ... NOT USED
Finite Nucleus Model                        ... NOT USED
Auxiliary Coulomb fitting basis             ... AVAILABLE
   # of basis functions in Aux-J            ...    977
   # of shells in Aux-J                     ...    335
   Maximum angular momentum in Aux-J        ...      4
Auxiliary J/K fitting basis                 ... NOT available
Auxiliary Correlation fitting basis         ... NOT available
Auxiliary 'external' fitting basis          ... NOT available
Integral threshold                          ...     2.500000e-11
Primitive cut-off                           ...     2.500000e-12
Primitive pair pre-selection threshold      ...     2.500000e-12

Calculating pre-screening integrals         ... done (  0.2 sec) Dimension = 253
Organizing shell pair data                  ... done (  0.2 sec)
Shell pair information
Total number of shell pairs                 ...     32131
Shell pairs after pre-screening             ...     26369
Total number of primitive shell pairs       ...     93924
Primitive shell pairs kept                  ...     53489
          la=0 lb=0:   8074 shell pairs
          la=1 lb=0:   7858 shell pairs
          la=1 lb=1:   1957 shell pairs
          la=2 lb=0:   3456 shell pairs
          la=2 lb=1:   1716 shell pairs
          la=2 lb=2:    399 shell pairs
          la=3 lb=0:   1633 shell pairs
          la=3 lb=1:    814 shell pairs
          la=3 lb=2:    366 shell pairs
          la=3 lb=3:     96 shell pairs

Calculating one electron integrals          ... done (  0.0 sec)
Calculating RI/J V-Matrix + Cholesky decomp.... done (  0.1 sec)
Calculating Nuclear repulsion               ... done (  0.0 sec) ENN=   1121.156086882111 Eh

SHARK setup successfully completed in   0.9 seconds

Maximum memory used throughout the entire GTOINT-calculation: 39.2 MB


           ************************************************************
           *        Program running with 18 parallel MPI-processes    *
           *              working on a common directory               *
           ************************************************************
-------------------------------------------------------------------------------
                                 ORCA SCF
-------------------------------------------------------------------------------

------------
SCF SETTINGS
------------
Hamiltonian:
 Density Functional     Method          .... DFT(GTOs)
 Exchange Functional    Exchange        .... TPSS
 Correlation Functional Correlation     .... TPSS
 LDA part of GGA corr.  LDAOpt          .... PW91-LDA
 Gradients option       PostSCFGGA      .... off
   Density functional embedding theory  .... OFF
   NL short-range parameter             ....  5.000000
 RI-approximation to the Coulomb term is turned on
   Number of AuxJ basis functions       .... 977


General Settings:
 Integral files         IntName         .... TPSS_B_wt_wb97
 Hartree-Fock type      HFTyp           .... RHF
 Total Charge           Charge          ....    0
 Multiplicity           Mult            ....    1
 Number of Electrons    NEL             ....  118
 Basis Dimension        Dim             ....  597
 Nuclear Repulsion      ENuc            ....   1121.1560868821 Eh

Convergence Acceleration:
 DIIS                   CNVDIIS         .... on
   Start iteration      DIISMaxIt       ....    12
   Startup error        DIISStart       ....  0.200000
   # of expansion vecs  DIISMaxEq       ....     5
   Bias factor          DIISBfac        ....   1.050
   Max. coefficient     DIISMaxC        ....  10.000
 Trust-Rad. Augm. Hess. CNVTRAH         .... auto
   Auto Start mean grad. ratio tolernc. ....  1.125000
   Auto Start start iteration           ....    20
   Auto Start num. interpolation iter.  ....    10
   Max. Number of Micro iterations      ....    16
   Max. Number of Macro iterations      .... Maxiter - #DIIS iter
   Number of Davidson start vectors     ....     2
   Converg. threshold I  (grad. norm)   ....   1.000e-05
   Converg. threshold II (energy diff.) ....   1.000e-08
   Grad. Scal. Fac. for Micro threshold ....   0.100
   Minimum threshold for Micro iter.    ....   0.010
   NR start threshold (gradient norm)   ....   0.001
   Initial trust radius                 ....   0.400
   Minimum AH scaling param. (alpha)    ....   1.000
   Maximum AH scaling param. (alpha)    .... 1000.000
   Orbital update algorithm             .... Taylor
   White noise on init. David. guess    .... on
   Maximum white noise                  ....   0.010
   Quad. conv. algorithm                .... NR
 SOSCF                  CNVSOSCF        .... on
   Start iteration      SOSCFMaxIt      ....   150
   Startup grad/error   SOSCFStart      ....  0.003300
 Level Shifting         CNVShift        .... on
   Level shift para.    LevelShift      ....    0.2500
   Turn off err/grad.   ShiftErr        ....    0.0010
 Zerner damping         CNVZerner       .... off
 Static damping         CNVDamp         .... on
   Fraction old density DampFac         ....    0.7000
   Max. Damping (<1)    DampMax         ....    0.9800
   Min. Damping (>=0)   DampMin         ....    0.0000
   Turn off err/grad.   DampErr         ....    0.1000
 Fernandez-Rico         CNVRico         .... off

SCF Procedure:
 Maximum # iterations   MaxIter         ....   150
 SCF integral mode      SCFMode         .... Direct
   Integral package                     .... SHARK and LIBINT hybrid scheme
 Reset frequency        DirectResetFreq ....    20
 Integral Threshold     Thresh          ....  2.500e-11 Eh
 Primitive CutOff       TCut            ....  2.500e-12 Eh

Convergence Tolerance:
 Convergence Check Mode ConvCheckMode   .... Total+1el-Energy
 Convergence forced     ConvForced      .... 0
 Energy Change          TolE            ....  1.000e-08 Eh
 1-El. energy change                    ....  1.000e-05 Eh
 Orbital Gradient       TolG            ....  1.000e-05
 Orbital Rotation angle TolX            ....  1.000e-05
 DIIS Error             TolErr          ....  5.000e-07


Diagonalization of the overlap matrix:
Smallest eigenvalue                        ... 6.390e-05
Time for diagonalization                   ...    0.110 sec
Threshold for overlap eigenvalues          ... 1.000e-08
Number of eigenvalues below threshold      ... 0
Time for construction of square roots      ...    0.283 sec
Total time needed                          ...    0.397 sec

Time for model grid setup =    0.289 sec

------------------------------
INITIAL GUESS: MODEL POTENTIAL
------------------------------
Loading Hartree-Fock densities                     ... done
Calculating cut-offs                               ... done
Initializing the effective Hamiltonian             ... done
Setting up the integral package (SHARK)            ... done
Starting the Coulomb interaction                   ... done (   0.3 sec)
Reading the grid                                   ... done
Mapping shells                                     ... done
Starting the XC term evaluation                    ... done (   0.2 sec)
  promolecular density results
     # of electrons  =    117.986918325
     EX              =    -92.237605153
     EC              =     -3.940916025
     EX+EC           =    -96.178521178
Transforming the Hamiltonian                       ... done (   0.1 sec)
Diagonalizing the Hamiltonian                      ... done (   0.1 sec)
Back transforming the eigenvectors                 ... done (   0.0 sec)
Now organizing SCF variables                       ... done
                      ------------------
                      INITIAL GUESS DONE (   1.1 sec)
                      ------------------
-------------------
DFT GRID GENERATION
-------------------

General Integration Accuracy     IntAcc      ... 4.388
Radial Grid Type                 RadialGrid  ... OptM3 with GC (2021)
Angular Grid (max. ang.)         AngularGrid ... 4 (Lebedev-302)
Angular grid pruning method      GridPruning ... 4 (adaptive)
Weight generation scheme         WeightScheme... Becke
Basis function cutoff            BFCut       ... 1.0000e-11
Integration weight cutoff        WCut        ... 1.0000e-14
Angular grids for H and He will be reduced by one unit
Partially contracted basis set               ... off
Rotationally invariant grid construction     ... off

Total number of grid points                  ...   158935
Total number of batches                      ...     2502
Average number of points per batch           ...       63
Average number of grid points per atom       ...     4296
Time for grid setup =    1.372 sec

--------------
SCF ITERATIONS
--------------
ITER       Energy         Delta-E        Max-DP      RMS-DP      [F,P]     Damp
               ***  Starting incremental Fock matrix formation  ***
  0   -692.2313024228   0.000000000000 0.14234113  0.00117989  0.2815386 0.7000
  1   -692.4998409561  -0.268538533311 0.15109383  0.00098171  0.1063657 0.7000
                               ***Turning on DIIS***
  2   -692.5907836451  -0.090942689009 0.17854263  0.00138798  0.0282816 0.0000
  3   -692.7314477392  -0.140664094062 0.15177515  0.00084722  0.0601777 0.0000
  4   -692.7710238270  -0.039576087832 0.05184220  0.00028155  0.0125025 0.0000
  5   -692.7734122519  -0.002388424886 0.02407721  0.00013112  0.0079793 0.0000
                      *** Initiating the SOSCF procedure ***
                           *** Shutting down DIIS ***
                      *** Re-Reading the Fockian *** 
                      *** Removing any level shift *** 
ITER      Energy       Delta-E        Grad      Rot      Max-DP    RMS-DP
  6   -692.77367138  -0.0002591318  0.000430  0.000430  0.008548  0.000049
               *** Restarting incremental Fock matrix formation ***
  7   -692.77368956  -0.0000181786  0.000245  0.001408  0.004823  0.000032
  8   -692.77368956   0.0000000058  0.000393  0.000566  0.000926  0.000010
  9   -692.77369315  -0.0000035967  0.000115  0.000419  0.001161  0.000010
 10   -692.77369275   0.0000004062  0.000223  0.000273  0.000213  0.000003
 11   -692.77369343  -0.0000006831  0.000051  0.000229  0.000595  0.000005
 12   -692.77369339   0.0000000365  0.000048  0.000075  0.000135  0.000001
 13   -692.77369352  -0.0000001279  0.000016  0.000068  0.000188  0.000002
 14   -692.77369352   0.0000000027  0.000029  0.000046  0.000068  0.000001
 15   -692.77369353  -0.0000000138  0.000006  0.000026  0.000082  0.000001
 16   -692.77369353   0.0000000019  0.000004  0.000013  0.000040  0.000000
                  ***Gradient check signals convergence***
              ***Rediagonalizing the Fockian in SOSCF/NRSCF***

               *****************************************************
               *                     SUCCESS                       *
               *           SCF CONVERGED AFTER  17 CYCLES          *
               *****************************************************


----------------
TOTAL SCF ENERGY
----------------

Total Energy       :         -692.77369352 Eh          -18851.33058 eV

Components:
Nuclear Repulsion  :         1121.15608688 Eh           30508.20813 eV
Electronic Energy  :        -1813.92978040 Eh          -49359.53872 eV
One Electron Energy:        -3167.19249945 Eh          -86183.68940 eV
Two Electron Energy:         1353.26271905 Eh           36824.15069 eV

Virial components:
Potential Energy   :        -1382.86600791 Eh          -37629.69713 eV
Kinetic Energy     :          690.09231439 Eh           18778.36655 eV
Virial Ratio       :            2.00388554


DFT components:
N(Alpha)           :       59.000225819975 electrons
N(Beta)            :       59.000225819975 electrons
N(Total)           :      118.000451639950 electrons
E(X)               :      -95.470559935069 Eh       
E(C)               :       -3.931917277044 Eh       
E(XC)              :      -99.402477212113 Eh       
DFET-embed. en.    :        0.000000000000 Eh       

---------------
SCF CONVERGENCE
---------------

  Last Energy change         ...    1.0197e-08  Tolerance :   1.0000e-08
  Last MAX-Density change    ...    1.4356e-05  Tolerance :   1.0000e-07
  Last RMS-Density change    ...    1.6609e-07  Tolerance :   5.0000e-09
  Last Orbital Gradient      ...    3.7515e-07  Tolerance :   1.0000e-05
  Last Orbital Rotation      ...    3.3543e-06  Tolerance :   1.0000e-05

             **** THE GBW FILE WAS UPDATED (TPSS_B_wt_wb97.gbw) ****
             **** DENSITY TPSS_B_wt_wb97.scfp WAS UPDATED ****
             **** ENERGY FILE WAS UPDATED (TPSS_B_wt_wb97.en.tmp) ****
             **** THE GBW FILE WAS UPDATED (TPSS_B_wt_wb97.gbw) ****
             **** DENSITY TPSS_B_wt_wb97.scfp WAS UPDATED ****
----------------
ORBITAL ENERGIES
----------------

  NO   OCC          E(Eh)            E(eV) 
   0   2.0000     -18.804915      -511.7078 
   1   2.0000     -18.803197      -511.6610 
   2   2.0000     -14.141051      -384.7976 
   3   2.0000     -14.141001      -384.7962 
   4   2.0000     -10.109093      -275.0824 
   5   2.0000     -10.035740      -273.0864 
   6   2.0000     -10.034511      -273.0529 
   7   2.0000     -10.016380      -272.5596 
   8   2.0000      -9.993331      -271.9324 
   9   2.0000      -9.984705      -271.6976 
  10   2.0000      -9.976804      -271.4826 
  11   2.0000      -9.966278      -271.1962 
  12   2.0000      -9.962834      -271.1025 
  13   2.0000      -9.958687      -270.9896 
  14   2.0000      -9.949665      -270.7441 
  15   2.0000      -0.952452       -25.9175 
  16   2.0000      -0.936020       -25.4704 
  17   2.0000      -0.861913       -23.4539 
  18   2.0000      -0.845481       -23.0067 
  19   2.0000      -0.778242       -21.1770 
  20   2.0000      -0.744759       -20.2659 
  21   2.0000      -0.715769       -19.4771 
  22   2.0000      -0.678211       -18.4551 
  23   2.0000      -0.641832       -17.4651 
  24   2.0000      -0.607915       -16.5422 
  25   2.0000      -0.591457       -16.0944 
  26   2.0000      -0.570255       -15.5174 
  27   2.0000      -0.537062       -14.6142 
  28   2.0000      -0.530180       -14.4269 
  29   2.0000      -0.522668       -14.2225 
  30   2.0000      -0.499818       -13.6007 
  31   2.0000      -0.467415       -12.7190 
  32   2.0000      -0.463409       -12.6100 
  33   2.0000      -0.441943       -12.0259 
  34   2.0000      -0.428394       -11.6572 
  35   2.0000      -0.419458       -11.4140 
  36   2.0000      -0.413178       -11.2431 
  37   2.0000      -0.399128       -10.8608 
  38   2.0000      -0.389039       -10.5863 
  39   2.0000      -0.379096       -10.3157 
  40   2.0000      -0.368744       -10.0340 
  41   2.0000      -0.363309        -9.8861 
  42   2.0000      -0.356086        -9.6896 
  43   2.0000      -0.351367        -9.5612 
  44   2.0000      -0.334288        -9.0964 
  45   2.0000      -0.333472        -9.0742 
  46   2.0000      -0.327895        -8.9225 
  47   2.0000      -0.320941        -8.7333 
  48   2.0000      -0.313159        -8.5215 
  49   2.0000      -0.297126        -8.0852 
  50   2.0000      -0.294800        -8.0219 
  51   2.0000      -0.286057        -7.7840 
  52   2.0000      -0.272917        -7.4265 
  53   2.0000      -0.267148        -7.2695 
  54   2.0000      -0.265175        -7.2158 
  55   2.0000      -0.259782        -7.0690 
  56   2.0000      -0.197345        -5.3700 
  57   2.0000      -0.184112        -5.0099 
  58   2.0000      -0.174073        -4.7368 
  59   0.0000      -0.059292        -1.6134 
  60   0.0000      -0.010566        -0.2875 
  61   0.0000       0.011297         0.3074 
  62   0.0000       0.026388         0.7181 
  63   0.0000       0.034979         0.9518 
  64   0.0000       0.040633         1.1057 
  65   0.0000       0.051314         1.3963 
  66   0.0000       0.058245         1.5849 
  67   0.0000       0.063813         1.7364 
  68   0.0000       0.071159         1.9363 
  69   0.0000       0.073286         1.9942 
  70   0.0000       0.087628         2.3845 
  71   0.0000       0.091939         2.5018 
  72   0.0000       0.100191         2.7263 
  73   0.0000       0.103281         2.8104 
  74   0.0000       0.111548         3.0354 
  75   0.0000       0.114704         3.1213 
  76   0.0000       0.116384         3.1670 
  77   0.0000       0.124856         3.3975 
  78   0.0000       0.125986         3.4283 
  79   0.0000       0.134341         3.6556 
  80   0.0000       0.142158         3.8683 
  81   0.0000       0.148289         4.0352 
  82   0.0000       0.150404         4.0927 
  83   0.0000       0.161127         4.3845 
  84   0.0000       0.165506         4.5036 
  85   0.0000       0.170693         4.6448 
  86   0.0000       0.176798         4.8109 
  87   0.0000       0.182035         4.9534 
  88   0.0000       0.185931         5.0594 
  89   0.0000       0.191408         5.2085 
  90   0.0000       0.197100         5.3634 
  91   0.0000       0.202368         5.5067 
  92   0.0000       0.207249         5.6395 
  93   0.0000       0.221136         6.0174 
  94   0.0000       0.224771         6.1163 
  95   0.0000       0.232790         6.3345 
  96   0.0000       0.234688         6.3862 
  97   0.0000       0.243235         6.6188 
  98   0.0000       0.247678         6.7397 
  99   0.0000       0.250974         6.8294 
 100   0.0000       0.256909         6.9909 
 101   0.0000       0.259805         7.0696 
 102   0.0000       0.261671         7.1204 
 103   0.0000       0.270982         7.3738 
 104   0.0000       0.283920         7.7259 
 105   0.0000       0.284891         7.7523 
 106   0.0000       0.293291         7.9809 
 107   0.0000       0.299047         8.1375 
 108   0.0000       0.320843         8.7306 
 109   0.0000       0.323219         8.7952 
 110   0.0000       0.330240         8.9863 
 111   0.0000       0.346341         9.4244 
 112   0.0000       0.351061         9.5529 
 113   0.0000       0.355169         9.6647 
 114   0.0000       0.363974         9.9042 
 115   0.0000       0.369158        10.0453 
 116   0.0000       0.372922        10.1477 
 117   0.0000       0.376419        10.2429 
 118   0.0000       0.384681        10.4677 
 119   0.0000       0.392628        10.6839 
 120   0.0000       0.396824        10.7981 
 121   0.0000       0.400601        10.9009 
 122   0.0000       0.404788        11.0148 
 123   0.0000       0.409142        11.1333 
 124   0.0000       0.413490        11.2516 
 125   0.0000       0.418265        11.3816 
 126   0.0000       0.420967        11.4551 
 127   0.0000       0.425592        11.5809 
 128   0.0000       0.428272        11.6539 
 129   0.0000       0.429567        11.6891 
 130   0.0000       0.432392        11.7660 
 131   0.0000       0.434184        11.8148 
 132   0.0000       0.440113        11.9761 
 133   0.0000       0.442145        12.0314 
 134   0.0000       0.444406        12.0929 
 135   0.0000       0.445761        12.1298 
 136   0.0000       0.449986        12.2448 
 137   0.0000       0.455113        12.3842 
 138   0.0000       0.458125        12.4662 
 139   0.0000       0.464763        12.6468 
 140   0.0000       0.469211        12.7679 
 141   0.0000       0.474554        12.9133 
 142   0.0000       0.479353        13.0438 
 143   0.0000       0.480506        13.0752 
 144   0.0000       0.485312        13.2060 
 145   0.0000       0.494700        13.4615 
 146   0.0000       0.498412        13.5625 
 147   0.0000       0.505695        13.7607 
 148   0.0000       0.516628        14.0581 
 149   0.0000       0.523022        14.2322 
 150   0.0000       0.535597        14.5743 
 151   0.0000       0.544475        14.8159 
 152   0.0000       0.550211        14.9720 
 153   0.0000       0.562474        15.3057 
 154   0.0000       0.566764        15.4224 
 155   0.0000       0.571400        15.5486 
 156   0.0000       0.587832        15.9957 
 157   0.0000       0.591107        16.0848 
 158   0.0000       0.606505        16.5038 
 159   0.0000       0.614711        16.7271 
 160   0.0000       0.620868        16.8947 
 161   0.0000       0.624747        17.0002 
 162   0.0000       0.640634        17.4326 
 163   0.0000       0.650941        17.7130 
 164   0.0000       0.665205        18.1011 
 165   0.0000       0.669080        18.2066 
 166   0.0000       0.674442        18.3525 
 167   0.0000       0.681446        18.5431 
 168   0.0000       0.699215        19.0266 
 169   0.0000       0.715364        19.4660 
 170   0.0000       0.723255        19.6808 
 171   0.0000       0.727779        19.8039 
 172   0.0000       0.746738        20.3198 
 173   0.0000       0.755415        20.5559 
 174   0.0000       0.761002        20.7079 
 175   0.0000       0.770498        20.9663 
 176   0.0000       0.783950        21.3324 
 177   0.0000       0.797157        21.6918 
 178   0.0000       0.798797        21.7364 
 179   0.0000       0.810262        22.0483 
 180   0.0000       0.818020        22.2595 
 181   0.0000       0.822119        22.3710 
 182   0.0000       0.829705        22.5774 
 183   0.0000       0.833420        22.6785 
 184   0.0000       0.850503        23.1434 
 185   0.0000       0.853561        23.2266 
 186   0.0000       0.863529        23.4978 
 187   0.0000       0.866022        23.5657 
 188   0.0000       0.875958        23.8360 
 189   0.0000       0.900566        24.5057 
 190   0.0000       0.903005        24.5720 
 191   0.0000       0.913944        24.8697 
 192   0.0000       0.935601        25.4590 
 193   0.0000       0.949897        25.8480 
 194   0.0000       0.957340        26.0505 
 195   0.0000       0.973478        26.4897 
 196   0.0000       0.974533        26.5184 
 197   0.0000       0.984854        26.7992 
 198   0.0000       0.990145        26.9432 
 199   0.0000       0.996213        27.1083 
 200   0.0000       1.013895        27.5895 
 201   0.0000       1.023231        27.8435 
 202   0.0000       1.025055        27.8932 
 203   0.0000       1.036818        28.2133 
 204   0.0000       1.052438        28.6383 
 205   0.0000       1.069402        29.0999 
 206   0.0000       1.088271        29.6134 
 207   0.0000       1.092374        29.7250 
 208   0.0000       1.107364        30.1329 
 209   0.0000       1.110140        30.2084 
 210   0.0000       1.114532        30.3280 
 211   0.0000       1.121348        30.5134 
 212   0.0000       1.132837        30.8261 
 213   0.0000       1.149380        31.2762 
 214   0.0000       1.153950        31.4006 
 215   0.0000       1.176106        32.0035 
 216   0.0000       1.181096        32.1393 
 217   0.0000       1.187712        32.3193 
 218   0.0000       1.195930        32.5429 
 219   0.0000       1.201050        32.6822 
 220   0.0000       1.206660        32.8349 
 221   0.0000       1.225260        33.3410 
 222   0.0000       1.234058        33.5804 
 223   0.0000       1.242823        33.8189 
 224   0.0000       1.250928        34.0395 
 225   0.0000       1.258192        34.2371 
 226   0.0000       1.272308        34.6213 
 227   0.0000       1.286267        35.0011 
 228   0.0000       1.291116        35.1331 
 229   0.0000       1.309113        35.6228 
 230   0.0000       1.317752        35.8579 
 231   0.0000       1.323699        36.0197 
 232   0.0000       1.349426        36.7197 
 233   0.0000       1.357190        36.9310 
 234   0.0000       1.386706        37.7342 
 235   0.0000       1.392678        37.8967 
 236   0.0000       1.407971        38.3128 
 237   0.0000       1.415316        38.5127 
 238   0.0000       1.432637        38.9840 
 239   0.0000       1.448187        39.4072 
 240   0.0000       1.459440        39.7134 
 241   0.0000       1.478146        40.2224 
 242   0.0000       1.491548        40.5871 
 243   0.0000       1.495379        40.6913 
 244   0.0000       1.503763        40.9195 
 245   0.0000       1.505178        40.9580 
 246   0.0000       1.515585        41.2412 
 247   0.0000       1.520155        41.3655 
 248   0.0000       1.534233        41.7486 
 249   0.0000       1.541832        41.9554 
 250   0.0000       1.551536        42.2194 
 251   0.0000       1.555750        42.3341 
 252   0.0000       1.563072        42.5334 
 253   0.0000       1.575628        42.8750 
 254   0.0000       1.586462        43.1698 
 255   0.0000       1.589656        43.2567 
 256   0.0000       1.593786        43.3691 
 257   0.0000       1.609092        43.7856 
 258   0.0000       1.615883        43.9704 
 259   0.0000       1.626325        44.2546 
 260   0.0000       1.632433        44.4207 
 261   0.0000       1.641021        44.6545 
 262   0.0000       1.645505        44.7765 
 263   0.0000       1.653048        44.9817 
 264   0.0000       1.657661        45.1072 
 265   0.0000       1.674107        45.5548 
 266   0.0000       1.674828        45.5744 
 267   0.0000       1.688857        45.9561 
 268   0.0000       1.697766        46.1986 
 269   0.0000       1.713384        46.6236 
 270   0.0000       1.727774        47.0151 
 271   0.0000       1.742899        47.4267 
 272   0.0000       1.755253        47.7629 
 273   0.0000       1.759804        47.8867 
 274   0.0000       1.770383        48.1746 
 275   0.0000       1.781901        48.4880 
 276   0.0000       1.785872        48.5961 
 277   0.0000       1.791948        48.7614 
 278   0.0000       1.810114        49.2557 
 279   0.0000       1.816825        49.4383 
 280   0.0000       1.839074        50.0438 
 281   0.0000       1.843836        50.1733 
 282   0.0000       1.845418        50.2164 
 283   0.0000       1.849618        50.3307 
 284   0.0000       1.866907        50.8011 
 285   0.0000       1.874049        50.9955 
 286   0.0000       1.879607        51.1467 
 287   0.0000       1.894127        51.5418 
 288   0.0000       1.901736        51.7489 
 289   0.0000       1.911612        52.0176 
 290   0.0000       1.914203        52.0881 
 291   0.0000       1.924740        52.3748 
 292   0.0000       1.935602        52.6704 
 293   0.0000       1.949141        53.0388 
 294   0.0000       1.962416        53.4001 
 295   0.0000       1.968963        53.5782 
 296   0.0000       1.976339        53.7789 
 297   0.0000       1.989946        54.1492 
 298   0.0000       2.008919        54.6655 
 299   0.0000       2.012085        54.7516 
 300   0.0000       2.026530        55.1447 
 301   0.0000       2.043372        55.6030 
 302   0.0000       2.057896        55.9982 
 303   0.0000       2.067905        56.2706 
 304   0.0000       2.078984        56.5720 
 305   0.0000       2.083958        56.7074 
 306   0.0000       2.106829        57.3297 
 307   0.0000       2.112228        57.4767 
 308   0.0000       2.124185        57.8020 
 309   0.0000       2.138512        58.1919 
 310   0.0000       2.147175        58.4276 
 311   0.0000       2.159730        58.7692 
 312   0.0000       2.167280        58.9747 
 313   0.0000       2.183628        59.4195 
 314   0.0000       2.189067        59.5675 
 315   0.0000       2.198473        59.8235 
 316   0.0000       2.218382        60.3653 
 317   0.0000       2.232635        60.7531 
 318   0.0000       2.247503        61.1577 
 319   0.0000       2.261387        61.5355 
 320   0.0000       2.278907        62.0122 
 321   0.0000       2.286239        62.2117 
 322   0.0000       2.301546        62.6282 
 323   0.0000       2.308969        62.8302 
 324   0.0000       2.333441        63.4962 
 325   0.0000       2.339628        63.6645 
 326   0.0000       2.355869        64.1065 
 327   0.0000       2.366122        64.3855 
 328   0.0000       2.371427        64.5298 
 329   0.0000       2.394389        65.1546 
 330   0.0000       2.404992        65.4432 
 331   0.0000       2.406584        65.4865 
 332   0.0000       2.429507        66.1103 
 333   0.0000       2.445481        66.5449 
 334   0.0000       2.448119        66.6167 
 335   0.0000       2.456070        66.8331 
 336   0.0000       2.459719        66.9324 
 337   0.0000       2.468725        67.1774 
 338   0.0000       2.473551        67.3087 
 339   0.0000       2.487877        67.6986 
 340   0.0000       2.511665        68.3459 
 341   0.0000       2.521261        68.6070 
 342   0.0000       2.522127        68.6306 
 343   0.0000       2.526176        68.7407 
 344   0.0000       2.540773        69.1379 
 345   0.0000       2.555674        69.5434 
 346   0.0000       2.566472        69.8372 
 347   0.0000       2.573771        70.0359 
 348   0.0000       2.578229        70.1572 
 349   0.0000       2.582220        70.2658 
 350   0.0000       2.588311        70.4315 
 351   0.0000       2.593179        70.5640 
 352   0.0000       2.597655        70.6858 
 353   0.0000       2.609102        70.9973 
 354   0.0000       2.616760        71.2057 
 355   0.0000       2.618316        71.2480 
 356   0.0000       2.633034        71.6485 
 357   0.0000       2.641325        71.8741 
 358   0.0000       2.644959        71.9730 
 359   0.0000       2.647941        72.0541 
 360   0.0000       2.659103        72.3579 
 361   0.0000       2.663039        72.4650 
 362   0.0000       2.668775        72.6211 
 363   0.0000       2.682044        72.9821 
 364   0.0000       2.691117        73.2290 
 365   0.0000       2.697276        73.3966 
 366   0.0000       2.703908        73.5771 
 367   0.0000       2.716191        73.9113 
 368   0.0000       2.727844        74.2284 
 369   0.0000       2.740487        74.5724 
 370   0.0000       2.752285        74.8935 
 371   0.0000       2.756740        75.0147 
 372   0.0000       2.760865        75.1270 
 373   0.0000       2.770345        75.3849 
 374   0.0000       2.782031        75.7029 
 375   0.0000       2.784665        75.7746 
 376   0.0000       2.796060        76.0847 
 377   0.0000       2.803894        76.2978 
 378   0.0000       2.810061        76.4657 
 379   0.0000       2.817662        76.6725 
 380   0.0000       2.824537        76.8596 
 381   0.0000       2.835742        77.1645 
 382   0.0000       2.840734        77.3003 
 383   0.0000       2.853032        77.6349 
 384   0.0000       2.872072        78.1530 
 385   0.0000       2.880455        78.3812 
 386   0.0000       2.890415        78.6522 
 387   0.0000       2.909950        79.1838 
 388   0.0000       2.925831        79.6159 
 389   0.0000       2.931848        79.7796 
 390   0.0000       2.943533        80.0976 
 391   0.0000       2.958032        80.4922 
 392   0.0000       2.968897        80.7878 
 393   0.0000       2.971441        80.8570 
 394   0.0000       2.988029        81.3084 
 395   0.0000       3.002064        81.6903 
 396   0.0000       3.027352        82.3784 
 397   0.0000       3.041528        82.7642 
 398   0.0000       3.053189        83.0815 
 399   0.0000       3.060459        83.2793 
 400   0.0000       3.074499        83.6614 
 401   0.0000       3.082990        83.8924 
 402   0.0000       3.092985        84.1644 
 403   0.0000       3.101239        84.3890 
 404   0.0000       3.108991        84.5999 
 405   0.0000       3.116884        84.8147 
 406   0.0000       3.128626        85.1342 
 407   0.0000       3.143171        85.5300 
 408   0.0000       3.149518        85.7027 
 409   0.0000       3.160779        86.0092 
 410   0.0000       3.170765        86.2809 
 411   0.0000       3.175762        86.4169 
 412   0.0000       3.190406        86.8154 
 413   0.0000       3.198151        87.0261 
 414   0.0000       3.214253        87.4643 
 415   0.0000       3.226258        87.7910 
 416   0.0000       3.230081        87.8950 
 417   0.0000       3.240328        88.1738 
 418   0.0000       3.248793        88.4041 
 419   0.0000       3.254463        88.5584 
 420   0.0000       3.258471        88.6675 
 421   0.0000       3.274565        89.1054 
 422   0.0000       3.282804        89.3296 
 423   0.0000       3.290793        89.5470 
 424   0.0000       3.302112        89.8550 
 425   0.0000       3.306351        89.9704 
 426   0.0000       3.313374        90.1615 
 427   0.0000       3.326791        90.5266 
 428   0.0000       3.330818        90.6362 
 429   0.0000       3.336277        90.7847 
 430   0.0000       3.343510        90.9815 
 431   0.0000       3.355615        91.3109 
 432   0.0000       3.358747        91.3962 
 433   0.0000       3.369992        91.7022 
 434   0.0000       3.380191        91.9797 
 435   0.0000       3.392901        92.3255 
 436   0.0000       3.400523        92.5329 
 437   0.0000       3.405665        92.6728 
 438   0.0000       3.412439        92.8572 
 439   0.0000       3.420259        93.0700 
 440   0.0000       3.434518        93.4580 
 441   0.0000       3.456155        94.0468 
 442   0.0000       3.462379        94.2161 
 443   0.0000       3.466978        94.3413 
 444   0.0000       3.472314        94.4865 
 445   0.0000       3.483248        94.7840 
 446   0.0000       3.499087        95.2150 
 447   0.0000       3.503165        95.3260 
 448   0.0000       3.508260        95.4646 
 449   0.0000       3.516389        95.6858 
 450   0.0000       3.523026        95.8664 
 451   0.0000       3.532848        96.1337 
 452   0.0000       3.541666        96.3736 
 453   0.0000       3.558218        96.8240 
 454   0.0000       3.571798        97.1936 
 455   0.0000       3.578626        97.3794 
 456   0.0000       3.587928        97.6325 
 457   0.0000       3.598314        97.9151 
 458   0.0000       3.603113        98.0457 
 459   0.0000       3.612088        98.2899 
 460   0.0000       3.622714        98.5790 
 461   0.0000       3.631035        98.8055 
 462   0.0000       3.651033        99.3496 
 463   0.0000       3.671169        99.8976 
 464   0.0000       3.678022       100.0841 
 465   0.0000       3.680737       100.1579 
 466   0.0000       3.693680       100.5101 
 467   0.0000       3.715979       101.1169 
 468   0.0000       3.719021       101.1997 
 469   0.0000       3.736349       101.6712 
 470   0.0000       3.765357       102.4606 
 471   0.0000       3.771304       102.6224 
 472   0.0000       3.789105       103.1068 
 473   0.0000       3.808887       103.6451 
 474   0.0000       3.826152       104.1149 
 475   0.0000       3.858484       104.9947 
 476   0.0000       3.859793       105.0303 
 477   0.0000       3.881932       105.6327 
 478   0.0000       3.900132       106.1280 
 479   0.0000       3.902469       106.1916 
 480   0.0000       3.913814       106.5003 
 481   0.0000       3.928323       106.8951 
 482   0.0000       3.941938       107.2656 
 483   0.0000       3.960378       107.7674 
 484   0.0000       3.972912       108.1084 
 485   0.0000       3.991775       108.6217 
 486   0.0000       4.011922       109.1700 
 487   0.0000       4.017777       109.3293 
 488   0.0000       4.040071       109.9359 
 489   0.0000       4.053884       110.3118 
 490   0.0000       4.058927       110.4490 
 491   0.0000       4.079726       111.0150 
 492   0.0000       4.086035       111.1867 
 493   0.0000       4.099048       111.5408 
 494   0.0000       4.124805       112.2416 
 495   0.0000       4.130645       112.4006 
 496   0.0000       4.162700       113.2728 
 497   0.0000       4.182593       113.8141 
 498   0.0000       4.197994       114.2332 
 499   0.0000       4.255974       115.8109 
 500   0.0000       4.264648       116.0470 
 501   0.0000       4.273276       116.2818 
 502   0.0000       4.298064       116.9563 
 503   0.0000       4.305004       117.1451 
 504   0.0000       4.336163       117.9930 
 505   0.0000       4.387699       119.3954 
 506   0.0000       4.400459       119.7426 
 507   0.0000       4.416412       120.1767 
 508   0.0000       4.428846       120.5150 
 509   0.0000       4.446208       120.9875 
 510   0.0000       4.464503       121.4853 
 511   0.0000       4.476662       121.8162 
 512   0.0000       4.519334       122.9773 
 513   0.0000       4.525773       123.1525 
 514   0.0000       4.558243       124.0361 
 515   0.0000       4.578027       124.5744 
 516   0.0000       4.628208       125.9399 
 517   0.0000       4.634055       126.0990 
 518   0.0000       4.639447       126.2458 
 519   0.0000       4.649936       126.5312 
 520   0.0000       4.665695       126.9600 
 521   0.0000       4.680352       127.3589 
 522   0.0000       4.697674       127.8302 
 523   0.0000       4.707259       128.0910 
 524   0.0000       4.718688       128.4020 
 525   0.0000       4.735871       128.8696 
 526   0.0000       4.746964       129.1715 
 527   0.0000       4.771594       129.8417 
 528   0.0000       4.779726       130.0630 
 529   0.0000       4.785018       130.2069 
 530   0.0000       4.808681       130.8509 
 531   0.0000       4.834651       131.5575 
 532   0.0000       4.840106       131.7060 
 533   0.0000       4.849513       131.9620 
 534   0.0000       4.868333       132.4741 
 535   0.0000       4.875924       132.6806 
 536   0.0000       4.891576       133.1065 
 537   0.0000       4.901810       133.3850 
 538   0.0000       4.905841       133.4947 
 539   0.0000       4.925493       134.0295 
 540   0.0000       5.012735       136.4035 
 541   0.0000       5.017939       136.5451 
 542   0.0000       5.052390       137.4825 
 543   0.0000       5.061146       137.7208 
 544   0.0000       5.101382       138.8157 
 545   0.0000       5.119649       139.3127 
 546   0.0000       5.146436       140.0416 
 547   0.0000       5.152572       140.2086 
 548   0.0000       5.216917       141.9595 
 549   0.0000       5.225278       142.1870 
 550   0.0000       5.252042       142.9153 
 551   0.0000       5.256363       143.0329 
 552   0.0000       5.280517       143.6902 
 553   0.0000       5.306755       144.4041 
 554   0.0000       5.329301       145.0177 
 555   0.0000       5.414316       147.3310 
 556   0.0000       5.436863       147.9446 
 557   0.0000       5.442308       148.0927 
 558   0.0000       5.489993       149.3903 
 559   0.0000       5.565423       151.4428 
 560   0.0000       5.608551       152.6164 
 561   0.0000       5.628379       153.1560 
 562   0.0000       5.683302       154.6505 
 563   0.0000       5.844803       159.0452 
 564   0.0000       5.885465       160.1516 
 565   0.0000       6.071188       165.2054 
 566   0.0000       6.109833       166.2570 
 567   0.0000       6.122388       166.5986 
 568   0.0000       6.166406       167.7965 
 569   0.0000       6.190273       168.4459 
 570   0.0000       6.417660       174.6334 
 571   0.0000       6.428937       174.9403 
 572   0.0000       6.510812       177.1682 
 573   0.0000       6.559104       178.4823 
 574   0.0000       6.690970       182.0706 
 575   0.0000       6.798408       184.9941 
 576   0.0000       6.846856       186.3124 
 577   0.0000       6.951594       189.1625 
 578   0.0000       7.009870       190.7483 
 579   0.0000       7.171091       195.1353 
 580   0.0000       7.245350       197.1560 
 581   0.0000       7.308379       198.8711 
 582   0.0000      22.361488       608.4870 
 583   0.0000      22.422430       610.1453 
 584   0.0000      22.450893       610.9198 
 585   0.0000      22.455882       611.0556 
 586   0.0000      22.471650       611.4847 
 587   0.0000      22.501702       612.3024 
 588   0.0000      22.506394       612.4301 
 589   0.0000      22.561379       613.9263 
 590   0.0000      22.579008       614.4061 
 591   0.0000      23.166355       630.3886 
 592   0.0000      23.490357       639.2051 
 593   0.0000      31.936268       869.0300 
 594   0.0000      32.173155       875.4761 
 595   0.0000      43.861836      1193.5412 
 596   0.0000      44.046356      1198.5623 

                    ********************************
                    * MULLIKEN POPULATION ANALYSIS *
                    ********************************

-----------------------
MULLIKEN ATOMIC CHARGES
-----------------------
   0 C :   -0.141700
   1 C :   -0.110427
   2 C :   -0.132818
   3 H :    0.089189
   4 H :    0.085815
   5 C :    0.284406
   6 C :    0.137628
   7 N :   -0.281585
   8 N :   -0.281545
   9 H :    0.264985
  10 H :    0.240849
  11 H :    0.241919
  12 H :    0.265963
  13 O :   -0.521778
  14 O :   -0.507546
  15 C :   -0.203909
  16 C :   -0.270356
  17 C :   -0.202444
  18 H :    0.070535
  19 H :    0.098519
  20 H :    0.071283
  21 H :    0.080795
  22 C :   -0.270304
  23 H :    0.104951
  24 H :    0.105346
  25 C :   -0.158582
  26 H :    0.167489
  27 H :    0.074272
  28 C :   -0.088538
  29 H :    0.096264
  30 H :    0.081918
  31 H :    0.136560
  32 H :    0.080187
  33 H :    0.084508
  34 H :    0.073159
  35 H :    0.101603
  36 H :    0.133387
Sum of atomic charges:   -0.0000000

--------------------------------
MULLIKEN REDUCED ORBITAL CHARGES
--------------------------------
  0 C s       :     3.128959  s :     3.128959
      pz      :     0.940887  p :     2.918220
      px      :     0.966786
      py      :     1.010548
      dz2     :     0.022384  d :     0.088297
      dxz     :     0.014690
      dyz     :     0.022685
      dx2y2   :     0.014492
      dxy     :     0.014045
      f0      :     0.001061  f :     0.006224
      f+1     :     0.000956
      f-1     :     0.000671
      f+2     :     0.001235
      f-2     :     0.001115
      f+3     :     0.000329
      f-3     :     0.000857
  1 C s       :     3.120684  s :     3.120684
      pz      :     0.956162  p :     2.881615
      px      :     0.990003
      py      :     0.935451
      dz2     :     0.018553  d :     0.101555
      dxz     :     0.019242
      dyz     :     0.026375
      dx2y2   :     0.013373
      dxy     :     0.024012
      f0      :     0.000649  f :     0.006572
      f+1     :     0.000777
      f-1     :     0.000873
      f+2     :     0.001118
      f-2     :     0.001872
      f+3     :     0.000692
      f-3     :     0.000590
  2 C s       :     3.124512  s :     3.124512
      pz      :     0.964003  p :     2.912605
      px      :     0.953901
      py      :     0.994701
      dz2     :     0.013079  d :     0.089225
      dxz     :     0.022581
      dyz     :     0.017374
      dx2y2   :     0.017644
      dxy     :     0.018547
      f0      :     0.000428  f :     0.006476
      f+1     :     0.000948
      f-1     :     0.000669
      f+2     :     0.001090
      f-2     :     0.001548
      f+3     :     0.001028
      f-3     :     0.000766
  3 H s       :     0.890642  s :     0.890642
      pz      :     0.005884  p :     0.020170
      px      :     0.005444
      py      :     0.008842
  4 H s       :     0.893812  s :     0.893812
      pz      :     0.007799  p :     0.020373
      px      :     0.006693
      py      :     0.005881
  5 C s       :     3.042211  s :     3.042211
      pz      :     0.818633  p :     2.370675
      px      :     0.793873
      py      :     0.758169
      dz2     :     0.027810  d :     0.277339
      dxz     :     0.058235
      dyz     :     0.036450
      dx2y2   :     0.059603
      dxy     :     0.095241
      f0      :     0.001881  f :     0.025369
      f+1     :     0.001442
      f-1     :     0.003241
      f+2     :     0.003454
      f-2     :     0.003641
      f+3     :     0.007276
      f-3     :     0.004435
  6 C s       :     3.142319  s :     3.142319
      pz      :     0.832726  p :     2.491263
      px      :     0.820752
      py      :     0.837785
      dz2     :     0.030266  d :     0.210700
      dxz     :     0.036811
      dyz     :     0.050267
      dx2y2   :     0.048442
      dxy     :     0.044915
      f0      :     0.001594  f :     0.018090
      f+1     :     0.002690
      f-1     :     0.002066
      f+2     :     0.003036
      f-2     :     0.002033
      f+3     :     0.003627
      f-3     :     0.003043
  7 N s       :     3.435017  s :     3.435017
      pz      :     1.442699  p :     3.805337
      px      :     1.183626
      py      :     1.179012
      dz2     :     0.006073  d :     0.037610
      dxz     :     0.007191
      dyz     :     0.004654
      dx2y2   :     0.008148
      dxy     :     0.011543
      f0      :     0.000523  f :     0.003621
      f+1     :     0.000734
      f-1     :     0.000196
      f+2     :     0.000451
      f-2     :     0.000661
      f+3     :     0.000613
      f-3     :     0.000443
  8 N s       :     3.437872  s :     3.437872
      pz      :     1.433954  p :     3.801616
      px      :     1.245025
      py      :     1.122637
      dz2     :     0.003570  d :     0.038512
      dxz     :     0.005240
      dyz     :     0.008799
      dx2y2   :     0.007317
      dxy     :     0.013585
      f0      :     0.000629  f :     0.003546
      f+1     :     0.000210
      f-1     :     0.000426
      f+2     :     0.000528
      f-2     :     0.000602
      f+3     :     0.000489
      f-3     :     0.000662
  9 H s       :     0.683054  s :     0.683054
      pz      :     0.009968  p :     0.051961
      px      :     0.023716
      py      :     0.018277
 10 H s       :     0.724994  s :     0.724994
      pz      :     0.012122  p :     0.034157
      px      :     0.014531
      py      :     0.007504
 11 H s       :     0.723997  s :     0.723997
      pz      :     0.010339  p :     0.034084
      px      :     0.007775
      py      :     0.015969
 12 H s       :     0.681499  s :     0.681499
      pz      :     0.011381  p :     0.052538
      px      :     0.022529
      py      :     0.018628
 13 O s       :     3.844744  s :     3.844744
      pz      :     1.616560  p :     4.650288
      px      :     1.351382
      py      :     1.682346
      dz2     :     0.002541  d :     0.025098
      dxz     :     0.005634
      dyz     :     0.002054
      dx2y2   :     0.006610
      dxy     :     0.008260
      f0      :     0.000210  f :     0.001647
      f+1     :     0.000204
      f-1     :     0.000070
      f+2     :     0.000157
      f-2     :     0.000178
      f+3     :     0.000434
      f-3     :     0.000394
 14 O s       :     3.842607  s :     3.842607
      pz      :     1.520439  p :     4.637868
      px      :     1.758719
      py      :     1.358711
      dz2     :     0.004408  d :     0.025447
      dxz     :     0.002415
      dyz     :     0.006507
      dx2y2   :     0.005638
      dxy     :     0.006479
      f0      :     0.000109  f :     0.001624
      f+1     :     0.000046
      f-1     :     0.000390
      f+2     :     0.000278
      f-2     :     0.000215
      f+3     :     0.000275
      f-3     :     0.000311
 15 C s       :     3.179375  s :     3.179375
      pz      :     0.957398  p :     2.919371
      px      :     0.994841
      py      :     0.967132
      dz2     :     0.015858  d :     0.098687
      dxz     :     0.018873
      dyz     :     0.025011
      dx2y2   :     0.011615
      dxy     :     0.027331
      f0      :     0.000819  f :     0.006476
      f+1     :     0.000960
      f-1     :     0.001011
      f+2     :     0.000746
      f-2     :     0.001349
      f+3     :     0.000562
      f-3     :     0.001029
 16 C s       :     3.217150  s :     3.217150
      pz      :     0.963845  p :     2.947365
      px      :     1.008840
      py      :     0.974680
      dz2     :     0.019491  d :     0.099379
      dxz     :     0.024667
      dyz     :     0.021782
      dx2y2   :     0.013408
      dxy     :     0.020031
      f0      :     0.000790  f :     0.006462
      f+1     :     0.000793
      f-1     :     0.000875
      f+2     :     0.001178
      f-2     :     0.001653
      f+3     :     0.000641
      f-3     :     0.000532
 17 C s       :     3.175593  s :     3.175593
      pz      :     0.975897  p :     2.920462
      px      :     0.965783
      py      :     0.978782
      dz2     :     0.018141  d :     0.099925
      dxz     :     0.023720
      dyz     :     0.021502
      dx2y2   :     0.013075
      dxy     :     0.023487
      f0      :     0.000626  f :     0.006465
      f+1     :     0.000855
      f-1     :     0.000798
      f+2     :     0.001122
      f-2     :     0.001837
      f+3     :     0.000562
      f-3     :     0.000666
 18 H s       :     0.909692  s :     0.909692
      pz      :     0.006204  p :     0.019773
      px      :     0.006913
      py      :     0.006656
 19 H s       :     0.880826  s :     0.880826
      pz      :     0.006476  p :     0.020655
      px      :     0.006308
      py      :     0.007871
 20 H s       :     0.908976  s :     0.908976
      pz      :     0.005623  p :     0.019741
      px      :     0.007860
      py      :     0.006257
 21 H s       :     0.898971  s :     0.898971
      pz      :     0.006907  p :     0.020234
      px      :     0.006375
      py      :     0.006952
 22 C s       :     3.218178  s :     3.218178
      pz      :     1.010559  p :     2.949828
      px      :     1.006588
      py      :     0.932682
      dz2     :     0.019262  d :     0.095790
      dxz     :     0.012183
      dyz     :     0.024514
      dx2y2   :     0.013126
      dxy     :     0.026706
      f0      :     0.000657  f :     0.006509
      f+1     :     0.000927
      f-1     :     0.000809
      f+2     :     0.000841
      f-2     :     0.001519
      f+3     :     0.000677
      f-3     :     0.001079
 23 H s       :     0.874784  s :     0.874784
      pz      :     0.004553  p :     0.020265
      px      :     0.008423
      py      :     0.007289
 24 H s       :     0.874535  s :     0.874535
      pz      :     0.007826  p :     0.020119
      px      :     0.006031
      py      :     0.006261
 25 C s       :     3.156604  s :     3.156604
      pz      :     0.954572  p :     2.894435
      px      :     0.956082
      py      :     0.983781
      dz2     :     0.017247  d :     0.100962
      dxz     :     0.018690
      dyz     :     0.024319
      dx2y2   :     0.016574
      dxy     :     0.024131
      f0      :     0.000689  f :     0.006582
      f+1     :     0.001094
      f-1     :     0.000719
      f+2     :     0.000712
      f-2     :     0.001493
      f+3     :     0.000774
      f-3     :     0.001102
 26 H s       :     0.810419  s :     0.810419
      pz      :     0.008880  p :     0.022092
      px      :     0.005783
      py      :     0.007429
 27 H s       :     0.905840  s :     0.905840
      pz      :     0.005362  p :     0.019888
      px      :     0.007819
      py      :     0.006707
 28 C s       :     3.108885  s :     3.108885
      pz      :     0.978878  p :     2.872219
      px      :     0.978584
      py      :     0.914757
      dz2     :     0.013720  d :     0.100969
      dxz     :     0.022906
      dyz     :     0.023140
      dx2y2   :     0.015932
      dxy     :     0.025271
      f0      :     0.000869  f :     0.006465
      f+1     :     0.000687
      f-1     :     0.000809
      f+2     :     0.001022
      f-2     :     0.001473
      f+3     :     0.000642
      f-3     :     0.000963
 29 H s       :     0.883620  s :     0.883620
      pz      :     0.005095  p :     0.020116
      px      :     0.007557
      py      :     0.007465
 30 H s       :     0.898157  s :     0.898157
      pz      :     0.008749  p :     0.019925
      px      :     0.005119
      py      :     0.006057
 31 H s       :     0.843017  s :     0.843017
      pz      :     0.006742  p :     0.020423
      px      :     0.007642
      py      :     0.006038
 32 H s       :     0.899818  s :     0.899818
      pz      :     0.005229  p :     0.019995
      px      :     0.006054
      py      :     0.008712
 33 H s       :     0.895631  s :     0.895631
      pz      :     0.007610  p :     0.019861
      px      :     0.007599
      py      :     0.004652
 34 H s       :     0.906954  s :     0.906954
      pz      :     0.006522  p :     0.019887
      px      :     0.006706
      py      :     0.006658
 35 H s       :     0.878030  s :     0.878030
      pz      :     0.004794  p :     0.020367
      px      :     0.010465
      py      :     0.005108
 36 H s       :     0.846454  s :     0.846454
      pz      :     0.005521  p :     0.020158
      px      :     0.004779
      py      :     0.009858


                     *******************************
                     * LOEWDIN POPULATION ANALYSIS *
                     *******************************

----------------------
LOEWDIN ATOMIC CHARGES
----------------------
   0 C :   -0.209593
   1 C :   -0.260993
   2 C :   -0.238216
   3 H :    0.134534
   4 H :    0.141645
   5 C :   -0.647674
   6 C :   -0.349402
   7 N :    0.114113
   8 N :    0.108895
   9 H :    0.152081
  10 H :    0.183164
  11 H :    0.184617
  12 H :    0.152832
  13 O :   -0.042028
  14 O :   -0.036137
  15 C :   -0.246003
  16 C :   -0.266729
  17 C :   -0.268246
  18 H :    0.130521
  19 H :    0.132047
  20 H :    0.129101
  21 H :    0.136757
  22 C :   -0.259980
  23 H :    0.135417
  24 H :    0.138570
  25 C :   -0.263843
  26 H :    0.146222
  27 H :    0.133089
  28 C :   -0.261474
  29 H :    0.135175
  30 H :    0.131273
  31 H :    0.137592
  32 H :    0.134309
  33 H :    0.133806
  34 H :    0.131478
  35 H :    0.143968
  36 H :    0.149114

-------------------------------
LOEWDIN REDUCED ORBITAL CHARGES
-------------------------------
  0 C s       :     2.774491  s :     2.774491
      pz      :     0.998802  p :     3.024241
      px      :     1.010354
      py      :     1.015085
[...]
      f+3     :     0.002597
      f-3     :     0.004794
  1 C s       :     2.778871  s :     2.778871
      pz      :     1.010078  p :     3.039311
      px      :     1.007550
      py      :     1.021683
      dz2     :     0.060261  d :     0.403817
      dxz     :     0.093213
      dyz     :     0.101275
      dx2y2   :     0.047647
      dxy     :     0.101420
      f0      :     0.006576  f :     0.038995
      f+1     :     0.004828
      f-1     :     0.005581
      f+2     :     0.006137
      f-2     :     0.005902
      f+3     :     0.004950
      f-3     :     0.005020
  2 C s       :     2.784848  s :     2.784848
      pz      :     1.008700  p :     3.048138
      px      :     1.022476
      py      :     1.016961
      dz2     :     0.044953  d :     0.367709
      dxz     :     0.091368
      dyz     :     0.083889
      dx2y2   :     0.063944
      dxy     :     0.083555
      f0      :     0.004466  f :     0.037521
      f+1     :     0.006397
      f-1     :     0.004023
      f+2     :     0.005126
      f-2     :     0.005456
      f+3     :     0.006488
      f-3     :     0.005565
  3 H s       :     0.806590  s :     0.806590
      pz      :     0.018052  p :     0.058876
      px      :     0.016059
      py      :     0.024765
  4 H s       :     0.799465  s :     0.799465
      pz      :     0.023354  p :     0.058890
      px      :     0.020048
      py      :     0.015488
  5 C s       :     2.765740  s :     2.765740
      pz      :     0.812395  p :     2.710968
      px      :     0.971336
      py      :     0.927236
      dz2     :     0.109804  d :     1.010097
      dxz     :     0.182722
      dyz     :     0.148231
      dx2y2   :     0.264144
      dxy     :     0.305197
      f0      :     0.012409  f :     0.160869
      f+1     :     0.011016
      f-1     :     0.016672
      f+2     :     0.024297
      f-2     :     0.020472
      f+3     :     0.047123
      f-3     :     0.028879
  6 C s       :     2.731598  s :     2.731598
      pz      :     0.850091  p :     2.730872
      px      :     0.919298
      py      :     0.961483
      dz2     :     0.104988  d :     0.779686
      dxz     :     0.129966
      dyz     :     0.171660
      dx2y2   :     0.195450
      dxy     :     0.177623
      f0      :     0.009830  f :     0.107246
      f+1     :     0.014006
      f-1     :     0.012572
      f+2     :     0.019225
      f-2     :     0.008952
      f+3     :     0.023138
      f-3     :     0.019522
  7 N s       :     2.982927  s :     2.982927
      pz      :     1.357351  p :     3.745800
      px      :     1.223923
      py      :     1.164526
      dz2     :     0.014569  d :     0.145295
      dxz     :     0.029589
      dyz     :     0.014602
      dx2y2   :     0.037595
      dxy     :     0.048940
      f0      :     0.001571  f :     0.011866
      f+1     :     0.001640
      f-1     :     0.000585
      f+2     :     0.002371
      f-2     :     0.001692
      f+3     :     0.002218
      f-3     :     0.001789
  8 N s       :     2.989129  s :     2.989129
      pz      :     1.341720  p :     3.743593
      px      :     1.203911
      py      :     1.197962
      dz2     :     0.010182  d :     0.146347
      dxz     :     0.014543
      dyz     :     0.031657
      dx2y2   :     0.035568
      dxy     :     0.054397
      f0      :     0.001574  f :     0.012035
      f+1     :     0.000379
      f-1     :     0.001601
      f+2     :     0.002280
      f-2     :     0.001273
      f+3     :     0.002291
      f-3     :     0.002637
  9 H s       :     0.682121  s :     0.682121
      pz      :     0.030576  p :     0.165799
      px      :     0.078366
      py      :     0.056857
 10 H s       :     0.712906  s :     0.712906
      pz      :     0.038612  p :     0.103930
      px      :     0.045120
      py      :     0.020198
 11 H s       :     0.711321  s :     0.711321
      pz      :     0.030796  p :     0.104062
      px      :     0.021662
      py      :     0.051604
 12 H s       :     0.681171  s :     0.681171
      pz      :     0.034943  p :     0.165998
      px      :     0.068684
      py      :     0.062371
 13 O s       :     3.418288  s :     3.418288
      pz      :     1.514900  p :     4.555200
      px      :     1.462320
      py      :     1.577981
      dz2     :     0.008177  d :     0.063138
      dxz     :     0.011331
      dyz     :     0.003263
      dx2y2   :     0.019129
      dxy     :     0.021239
      f0      :     0.000489  f :     0.005401
      f+1     :     0.000749
      f-1     :     0.000254
      f+2     :     0.000314
      f-2     :     0.000528
      f+3     :     0.001534
      f-3     :     0.001534
 14 O s       :     3.416996  s :     3.416996
      pz      :     1.472580  p :     4.549873
      px      :     1.623323
      py      :     1.453971
      dz2     :     0.008048  d :     0.063861
      dxz     :     0.005088
      dyz     :     0.017667
      dx2y2   :     0.015296
      dxy     :     0.017762
      f0      :     0.000451  f :     0.005407
      f+1     :     0.000118
      f-1     :     0.000827
      f+2     :     0.001071
      f-2     :     0.000803
      f+3     :     0.001062
      f-3     :     0.001075
 15 C s       :     2.779395  s :     2.779395
      pz      :     0.987441  p :     3.026148
      px      :     1.014011
      py      :     1.024695
      dz2     :     0.072600  d :     0.401666
      dxz     :     0.083952
      dyz     :     0.092205
      dx2y2   :     0.048900
      dxy     :     0.104008
      f0      :     0.005709  f :     0.038794
      f+1     :     0.004579
      f-1     :     0.007263
      f+2     :     0.005110
      f-2     :     0.005843
      f+3     :     0.003782
      f-3     :     0.006508
 16 C s       :     2.776321  s :     2.776321
      pz      :     1.012810  p :     3.049760
      px      :     1.019777
      py      :     1.017173
      dz2     :     0.069611  d :     0.401602
      dxz     :     0.100291
      dyz     :     0.092240
      dx2y2   :     0.049728
      dxy     :     0.089731
      f0      :     0.007251  f :     0.039046
      f+1     :     0.004675
      f-1     :     0.005819
      f+2     :     0.006905
      f-2     :     0.005476
      f+3     :     0.004795
      f-3     :     0.004126
 17 C s       :     2.776010  s :     2.776010
      pz      :     1.009645  p :     3.046759
      px      :     1.016149
      py      :     1.020965
      dz2     :     0.059885  d :     0.406100
      dxz     :     0.099211
      dyz     :     0.097474
      dx2y2   :     0.048692
      dxy     :     0.100838
      f0      :     0.006734  f :     0.039377
      f+1     :     0.005435
      f-1     :     0.005087
      f+2     :     0.006274
      f-2     :     0.005891
      f+3     :     0.005033
      f-3     :     0.004923
 18 H s       :     0.811937  s :     0.811937
      pz      :     0.018799  p :     0.057542
      px      :     0.020889
      py      :     0.017854
 19 H s       :     0.808609  s :     0.808609
      pz      :     0.018678  p :     0.059344
      px      :     0.019244
      py      :     0.021423
 20 H s       :     0.813246  s :     0.813246
      pz      :     0.017095  p :     0.057652
      px      :     0.021001
      py      :     0.019557
 21 H s       :     0.804401  s :     0.804401
      pz      :     0.020113  p :     0.058842
      px      :     0.017243
      py      :     0.021486
 22 C s       :     2.773104  s :     2.773104
      pz      :     1.019863  p :     3.044341
      px      :     1.015568
      py      :     1.008910
      dz2     :     0.065557  d :     0.402561
      dxz     :     0.075963
      dyz     :     0.096980
      dx2y2   :     0.060655
      dxy     :     0.103406
      f0      :     0.005240  f :     0.039974
      f+1     :     0.005216
      f-1     :     0.006006
      f+2     :     0.004612
      f-2     :     0.006620
      f+3     :     0.004894
      f-3     :     0.007385
 23 H s       :     0.806101  s :     0.806101
      pz      :     0.013306  p :     0.058482
      px      :     0.025378
      py      :     0.019798
 24 H s       :     0.802615  s :     0.802615
      pz      :     0.022661  p :     0.058814
      px      :     0.018701
      py      :     0.017453
 25 C s       :     2.776846  s :     2.776846
      pz      :     1.012708  p :     3.040614
      px      :     1.007692
      py      :     1.020215
      dz2     :     0.069445  d :     0.407012
      dxz     :     0.082722
      dyz     :     0.088285
      dx2y2   :     0.062227
      dxy     :     0.104333
      f0      :     0.004730  f :     0.039371
      f+1     :     0.005885
      f-1     :     0.005459
      f+2     :     0.004449
      f-2     :     0.006784
      f+3     :     0.004866
      f-3     :     0.007198
 26 H s       :     0.791918  s :     0.791918
      pz      :     0.025496  p :     0.061861
      px      :     0.017022
      py      :     0.019342
 27 H s       :     0.808734  s :     0.808734
      pz      :     0.016343  p :     0.058176
      px      :     0.023274
      py      :     0.018559
 28 C s       :     2.780136  s :     2.780136
      pz      :     1.012645  p :     3.040105
      px      :     1.012473
      py      :     1.014987
      dz2     :     0.054515  d :     0.402749
      dxz     :     0.101849
      dyz     :     0.091607
      dx2y2   :     0.061789
      dxy     :     0.092990
      f0      :     0.006340  f :     0.038484
      f+1     :     0.003595
      f-1     :     0.005631
      f+2     :     0.005894
      f-2     :     0.005637
      f+3     :     0.004178
      f-3     :     0.007209
 29 H s       :     0.806430  s :     0.806430
      pz      :     0.015660  p :     0.058395
      px      :     0.022067
      py      :     0.020668
 30 H s       :     0.810762  s :     0.810762
      pz      :     0.025890  p :     0.057965
      px      :     0.015664
      py      :     0.016411
 31 H s       :     0.802379  s :     0.802379
      pz      :     0.019772  p :     0.060029
      px      :     0.023690
      py      :     0.016567
 32 H s       :     0.807807  s :     0.807807
      pz      :     0.015582  p :     0.057885
      px      :     0.018605
      py      :     0.023698
 33 H s       :     0.808399  s :     0.808399
      pz      :     0.020766  p :     0.057795
      px      :     0.023070
      py      :     0.013959
 34 H s       :     0.810710  s :     0.810710
      pz      :     0.017256  p :     0.057813
      px      :     0.020838
      py      :     0.019718
 35 H s       :     0.797691  s :     0.797691
      pz      :     0.013564  p :     0.058341
      px      :     0.028411
      py      :     0.016365
 36 H s       :     0.791733  s :     0.791733
      pz      :     0.015890  p :     0.059153
      px      :     0.013383
      py      :     0.029881


                      *****************************
                      * MAYER POPULATION ANALYSIS *
                      *****************************

  NA   - Mulliken gross atomic population
  ZA   - Total nuclear charge
  QA   - Mulliken gross atomic charge
  VA   - Mayer's total valence
  BVA  - Mayer's bonded valence
  FA   - Mayer's free valence

  ATOM       NA         ZA         QA         VA         BVA        FA
  0 C      6.1417     6.0000    -0.1417     3.8938     3.8938    -0.0000
  1 C      6.1104     6.0000    -0.1104     3.9808     3.9808     0.0000
  2 C      6.1328     6.0000    -0.1328     3.8355     3.8355     0.0000
  3 H      0.9108     1.0000     0.0892     0.9929     0.9929     0.0000
  4 H      0.9142     1.0000     0.0858     0.9750     0.9750     0.0000
  5 C      5.7156     6.0000     0.2844     4.3664     4.3664     0.0000
  6 C      5.8624     6.0000     0.1376     4.2427     4.2427    -0.0000
  7 N      7.2816     7.0000    -0.2816     3.2340     3.2340    -0.0000
  8 N      7.2815     7.0000    -0.2815     3.2339     3.2339     0.0000
  9 H      0.7350     1.0000     0.2650     1.0320     1.0320     0.0000
 10 H      0.7592     1.0000     0.2408     0.9496     0.9496     0.0000
 11 H      0.7581     1.0000     0.2419     0.9507     0.9507    -0.0000
 12 H      0.7340     1.0000     0.2660     1.0327     1.0327    -0.0000
 13 O      8.5218     8.0000    -0.5218     1.9368     1.9368    -0.0000
 14 O      8.5075     8.0000    -0.5075     1.9550     1.9550    -0.0000
 15 C      6.2039     6.0000    -0.2039     3.9368     3.9368    -0.0000
 16 C      6.2704     6.0000    -0.2704     4.0022     4.0022    -0.0000
 17 C      6.2024     6.0000    -0.2024     4.0014     4.0014    -0.0000
 18 H      0.9295     1.0000     0.0705     0.9669     0.9669    -0.0000
 19 H      0.9015     1.0000     0.0985     0.9938     0.9938     0.0000
 20 H      0.9287     1.0000     0.0713     0.9671     0.9671     0.0000
 21 H      0.9192     1.0000     0.0808     0.9904     0.9904     0.0000
 22 C      6.2703     6.0000    -0.2703     3.9771     3.9771    -0.0000
 23 H      0.8950     1.0000     0.1050     0.9805     0.9805    -0.0000
 24 H      0.8947     1.0000     0.1053     0.9797     0.9797    -0.0000
 25 C      6.1586     6.0000    -0.1586     4.0053     4.0053    -0.0000
 26 H      0.8325     1.0000     0.1675     0.9807     0.9807    -0.0000
 27 H      0.9257     1.0000     0.0743     0.9735     0.9735    -0.0000
 28 C      6.0885     6.0000    -0.0885     3.9456     3.9456     0.0000
 29 H      0.9037     1.0000     0.0963     0.9684     0.9684    -0.0000
 30 H      0.9181     1.0000     0.0819     0.9657     0.9657    -0.0000
 31 H      0.8634     1.0000     0.1366     0.9812     0.9812    -0.0000
 32 H      0.9198     1.0000     0.0802     0.9713     0.9713     0.0000
 33 H      0.9155     1.0000     0.0845     0.9697     0.9697     0.0000
 34 H      0.9268     1.0000     0.0732     0.9725     0.9725     0.0000
 35 H      0.8984     1.0000     0.1016     0.9868     0.9868    -0.0000
 36 H      0.8666     1.0000     0.1334     0.9746     0.9746     0.0000

  Mayer bond orders larger than 0.100000
B(  0-C ,  6-C ) :   1.0270 B(  0-C , 15-C ) :   0.9784 B(  0-C , 35-H ) :   0.9442 
B(  0-C , 36-H ) :   0.9436 B(  1-C ,  2-C ) :   1.0062 B(  1-C , 17-C ) :   1.0409 
B(  1-C , 20-H ) :   0.9410 B(  1-C , 21-H ) :   0.9340 B(  2-C ,  3-H ) :   0.9521 
B(  2-C ,  4-H ) :   0.9212 B(  2-C ,  5-C ) :   0.9946 B(  5-C , 13-O ) :   1.6404 
B(  5-C , 14-O ) :   1.6629 B(  6-C ,  7-N ) :   1.4960 B(  6-C ,  8-N ) :   1.4985 
B(  7-N , 11-H ) :   0.9080 B(  7-N , 12-H ) :   0.7475 B(  8-N ,  9-H ) :   0.7540 
B(  8-N , 10-H ) :   0.9043 B(  9-H , 13-O ) :   0.2119 B( 12-H , 14-O ) :   0.2181 
B( 15-C , 22-C ) :   0.9825 B( 15-C , 23-H ) :   0.9641 B( 15-C , 24-H ) :   0.9409 
B( 16-C , 17-C ) :   1.0139 B( 16-C , 28-C ) :   1.0211 B( 16-C , 31-H ) :   0.9553 
B( 16-C , 32-H ) :   0.9407 B( 17-C , 18-H ) :   0.9413 B( 17-C , 19-H ) :   0.9491 
B( 22-C , 25-C ) :   1.0394 B( 22-C , 26-H ) :   0.9424 B( 22-C , 27-H ) :   0.9398 
B( 25-C , 28-C ) :   1.0197 B( 25-C , 29-H ) :   0.9464 B( 25-C , 30-H ) :   0.9429 
B( 28-C , 33-H ) :   0.9444 B( 28-C , 34-H ) :   0.9469 

-------
TIMINGS
-------

Total SCF time: 0 days 0 hours 0 min 29 sec 

Total time                  ....      29.774 sec
Sum of individual times     ....      28.303 sec  ( 95.1%)

Fock matrix formation       ....      22.827 sec  ( 76.7%)
  Split-RI-J                ....       7.226 sec  ( 31.7% of F)
  XC integration            ....      15.163 sec  ( 66.4% of F)
    Basis function eval.    ....       2.088 sec  ( 13.8% of XC)
    Density eval.           ....       5.885 sec  ( 38.8% of XC)
    XC-Functional eval.     ....       0.405 sec  (  2.7% of XC)
    XC-Potential eval.      ....       5.320 sec  ( 35.1% of XC)
Diagonalization             ....       1.096 sec  (  3.7%)
Density matrix formation    ....       0.090 sec  (  0.3%)
Population analysis         ....       0.112 sec  (  0.4%)
Initial guess               ....       0.800 sec  (  2.7%)
Orbital Transformation      ....       0.000 sec  (  0.0%)
Orbital Orthonormalization  ....       0.000 sec  (  0.0%)
DIIS solution               ....       0.582 sec  (  2.0%)
SOSCF solution              ....       1.135 sec  (  3.8%)
Grid generation             ....       1.661 sec  (  5.6%)

Maximum memory used throughout the entire SCF-calculation: 91.1 MB


-------------------------------------------------------------------------------
                          DFT DISPERSION CORRECTION                            
                                                                               
                              DFTD3 V3.1  Rev 1                                
                          USING Becke-Johnson damping                          
-------------------------------------------------------------------------------
The TPSS functional is recognized
Active option DFTDOPT                   ...         4   

molecular C6(AA) [au] = 10399.216016 


            DFT-D V3
 parameters
 s6 scaling factor         :     1.0000 
 a1 scaling factor         :     0.4535 
 s8 scaling factor         :     1.9435 
 a2 scaling factor         :     4.4752 
 ad hoc parameters k1-k3   :    16.0000     1.3333    -4.0000 

 Edisp/kcal,au: -33.723279504261  -0.053741460967 
 E6   /kcal   : -17.886999713 
 E8   /kcal   : -15.836279791 
 % E8         :  46.959489183 

-------------------------   ----------------
Dispersion correction           -0.053741461
-------------------------   ----------------


-------------------------   --------------------
FINAL SINGLE POINT ENERGY      -692.827434981638
-------------------------   --------------------


                            ***************************************
                            *     ORCA property calculations      *
                            ***************************************

                                    ---------------------
                                    Active property flags
                                    ---------------------
   (+) Dipole Moment


------------------------------------------------------------------------------
                       ORCA ELECTRIC PROPERTIES CALCULATION
------------------------------------------------------------------------------

Dipole Moment Calculation                       ... on
Quadrupole Moment Calculation                   ... off
Polarizability Calculation                      ... off
GBWName                                         ... TPSS_B_wt_wb97.gbw
Electron density file                           ... TPSS_B_wt_wb97.scfp
The origin for moment calculation is the CENTER OF MASS  = ( 3.750629, -0.950396  4.638174)

-------------
DIPOLE MOMENT
-------------
                                X             Y             Z
Electronic contribution:      3.41567       1.65733      13.08091
Nuclear contribution   :     -1.50655      -3.48027     -14.35034
                        -----------------------------------------
Total Dipole Moment    :      1.90912      -1.82295      -1.26943
                        -----------------------------------------
Magnitude (a.u.)       :      2.92905
Magnitude (Debye)      :      7.44505



--------------------
Rotational spectrum 
--------------------
 
Rotational constants in cm-1:     0.021781     0.017296     0.011403 
Rotational constants in MHz :   652.971749   518.510612   341.853154 

 Dipole components along the rotational axes: 
x,y,z [a.u.] :     2.650452    -1.235139     0.169863 
x,y,z [Debye]:     6.736913    -3.139474     0.431757 

 

Timings for individual modules:

Sum of individual times         ...       31.620 sec (=   0.527 min)
GTO integral calculation        ...        1.396 sec (=   0.023 min)   4.4 %
SCF iterations                  ...       30.224 sec (=   0.504 min)  95.6 %
                             ****ORCA TERMINATED NORMALLY****
TOTAL RUN TIME: 0 days 0 hours 0 minutes 32 seconds 374 msec
