
                                        *****************
                                        * O   R   C   A *
                                        *****************

                                            #,                                       
                                            ###                                      
                                            ####                                     
                                            #####                                    
                                            ######                                   
                                           ########,                                 
                                     ,,################,,,,,                         
                               ,,#################################,,                 
                          ,,##########################################,,             
                       ,#########################################, ''#####,          
                    ,#############################################,,   '####,        
                  ,##################################################,,,,####,       
                ,###########''''           ''''###############################       
              ,#####''   ,,,,##########,,,,          '''####'''          '####       
            ,##' ,,,,###########################,,,                        '##       
           ' ,,###''''                  '''############,,,                           
         ,,##''                                '''############,,,,        ,,,,,,###''
      ,#''                                            '''#######################'''  
     '                                                          ''''####''''         
             ,#######,   #######,   ,#######,      ##                                
            ,#'     '#,  ##    ##  ,#'     '#,    #''#        ######   ,####,        
            ##       ##  ##   ,#'  ##            #'  '#       #        #'  '#        
            ##       ##  #######   ##           ,######,      #####,   #    #        
            '#,     ,#'  ##    ##  '#,     ,#' ,#      #,         ##   #,  ,#        
             '#######'   ##     ##  '#######'  #'      '#     #####' # '####'        



                  #######################################################
                  #                        -***-                        #
                  #          Department of theory and spectroscopy      #
                  #    Directorship and core code : Frank Neese         #
                  #        Max Planck Institute fuer Kohlenforschung    #
                  #                Kaiser Wilhelm Platz 1               #
                  #                 D-45470 Muelheim/Ruhr               #
                  #                      Germany                        #
                  #                                                     #
                  #                  All rights reserved                #
                  #                        -***-                        #
                  #######################################################


                         Program Version 5.0.0 -  RELEASE  -
                                (SVN: $Rev: 19529$)
                ($Date: 2021-06-28 11:36:33 +0200 (Mo, 28 Jun 2021) $)


 With contributions from (in alphabetic order):
   Daniel Aravena         : Magnetic Suceptibility
   Michael Atanasov       : Ab Initio Ligand Field Theory (pilot matlab implementation)
   Alexander A. Auer      : GIAO ZORA, VPT2 properties, NMR spectrum
   Ute Becker             : Parallelization
   Giovanni Bistoni       : ED, misc. LED, open-shell LED, HFLD
   Martin Brehm           : Molecular dynamics
   Dmytro Bykov           : SCF Hessian
   Vijay G. Chilkuri      : MRCI spin determinant printing, contributions to CSF-ICE
   Dipayan Datta          : RHF DLPNO-CCSD density
   Achintya Kumar Dutta   : EOM-CC, STEOM-CC
   Dmitry Ganyushin       : Spin-Orbit,Spin-Spin,Magnetic field MRCI
   Miquel Garcia          : C-PCM Hessian, Gaussian charge scheme
   Yang Guo               : DLPNO-NEVPT2, F12-NEVPT2, CIM, IAO-localization
   Andreas Hansen         : Spin unrestricted coupled pair/coupled cluster methods
   Benjamin Helmich-Paris : MC-RPA, TRAH-SCF, COSX integrals
   Lee Huntington         : MR-EOM, pCC
   Robert Izsak           : Overlap fitted RIJCOSX, COSX-SCS-MP3, EOM
   Marcus Kettner         : VPT2
   Christian Kollmar      : KDIIS, OOCD, Brueckner-CCSD(T), CCSD density, CASPT2, CASPT2-K
   Simone Kossmann        : Meta GGA functionals, TD-DFT gradient, OOMP2, MP2 Hessian
   Martin Krupicka        : Initial AUTO-CI
   Lucas Lang             : DCDCAS
   Marvin Lechner         : AUTO-CI (C++ implementation), FIC-MRCC
   Dagmar Lenk            : GEPOL surface, SMD
   Dimitrios Liakos       : Extrapolation schemes; Compound Job, initial MDCI parallelization
   Dimitrios Manganas     : Further ROCIS development; embedding schemes
   Dimitrios Pantazis     : SARC Basis sets
   Anastasios Papadopoulos: AUTO-CI, single reference methods and gradients
   Taras Petrenko         : DFT Hessian,TD-DFT gradient, ASA, ECA, R-Raman, ABS, FL, XAS/XES, NRVS
   Peter Pinski           : DLPNO-MP2, DLPNO-MP2 Gradient
   Christoph Reimann      : Effective Core Potentials
   Marius Retegan         : Local ZFS, SOC
   Christoph Riplinger    : Optimizer, TS searches, QM/MM, DLPNO-CCSD(T), (RO)-DLPNO pert. Triples
   Tobias Risthaus        : Range-separated hybrids, TD-DFT gradient, RPA, STAB
   Michael Roemelt        : Original ROCIS implementation
   Masaaki Saitow         : Open-shell DLPNO-CCSD energy and density
   Barbara Sandhoefer     : DKH picture change effects
   Avijit Sen             : IP-ROCIS
   Kantharuban Sivalingam : CASSCF convergence, NEVPT2, FIC-MRCI
   Bernardo de Souza      : ESD, SOC TD-DFT
   Georgi Stoychev        : AutoAux, RI-MP2 NMR
   Willem Van den Heuvel  : Paramagnetic NMR
   Boris Wezisla          : Elementary symmetry handling
   Frank Wennmohs         : Technical directorship


 We gratefully acknowledge several colleagues who have allowed us to
 interface, adapt or use parts of their codes:
   Stefan Grimme, W. Hujo, H. Kruse, P. Pracht,  : VdW corrections, initial TS optimization,
                  C. Bannwarth, S. Ehlert          DFT functionals, gCP, sTDA/sTD-DF
   Ed Valeev, F. Pavosevic, A. Kumar             : LibInt (2-el integral package), F12 methods
   Garnet Chan, S. Sharma, J. Yang, R. Olivares  : DMRG
   Ulf Ekstrom                                   : XCFun DFT Library
   Mihaly Kallay                                 : mrcc  (arbitrary order and MRCC methods)
   Jiri Pittner, Ondrej Demel                    : Mk-CCSD
   Frank Weinhold                                : gennbo (NPA and NBO analysis)
   Christopher J. Cramer and Donald G. Truhlar   : smd solvation model
   Lars Goerigk                                  : TD-DFT with DH, B97 family of functionals
   V. Asgeirsson, H. Jonsson                     : NEB implementation
   FAccTs GmbH                                   : IRC, NEB, NEB-TS, DLPNO-Multilevel, CI-OPT
                                                   MM, QMMM, 2- and 3-layer-ONIOM, Crystal-QMMM,
                                                   LR-CPCM, SF, NACMEs, symmetry and pop. for TD-DFT,
                                                   nearIR, NL-DFT gradient (VV10), updates on ESD,
                                                   ML-optimized integration grids
   S Lehtola, MJT Oliveira, MAL Marques          : LibXC Library
   Liviu Ungur et al                             : ANISO software


 Your calculation uses the libint2 library for the computation of 2-el integrals
 For citations please refer to: http://libint.valeyev.net

 Your ORCA version has been built with support for libXC version: 5.1.0
 For citations please refer to: https://tddft.org/programs/libxc/

 This ORCA versions uses:
   CBLAS   interface :  Fast vector & matrix operations
   LAPACKE interface :  Fast linear algebra routines
   SCALAPACK package :  Parallel linear algebra routines
   Shared memory     :  Shared parallel matrices
   BLAS/LAPACK       :  OpenBLAS 0.3.15  USE64BITINT DYNAMIC_ARCH NO_AFFINITY Haswell SINGLE_THREADED
        Core in use  :  Haswell
   Copyright (c) 2011-2014, The OpenBLAS Project


Your calculation utilizes the atom-pairwise dispersion correction
with the Becke-Johnson damping scheme (D3BJ)
Cite in your paper:
S.Grimme, S.Ehrlich, L.Goerigk, J Comput Chem, (2011), 32, 1456–1465 
S.Grimme, J.Antony, S.Ehrlich and H.Krieg, J.Chem.Phys., 132, (2010), 154104 
   

================================================================================

----- Orbital basis set information -----
Your calculation utilizes the basis: def2-TZVPD
   F. Weigend and R. Ahlrichs, Phys. Chem. Chem. Phys. 7, 3297 (2005).
   D. Rappoport and F. Furche, J. Chem. Phys. 133 134105 (2010).

----- AuxJ basis set information -----
Your calculation utilizes the auxiliary basis: def2/J
   F. Weigend, Phys. Chem. Chem. Phys. 8, 1057 (2006).

================================================================================
                                        WARNINGS
                       Please study these warnings very carefully!
================================================================================



WARNING: Found flag for RIJCOSX approximation but no HF exchange needed!
  ===> : RIJCOSX  will be disabled and Split-RI-J is turned on

INFO   : the flag for use of the SHARK integral package has been found!

================================================================================
                                       INPUT FILE
================================================================================
NAME = TZVPD_TPSS_C1_wt_dlpno_neg.com
|  1> !TPSS D3BJ RIJCOSX def2-TZVPD def2/J TightSCF
|  2> *xyz 0 1 
|  3> C         -0.10608        1.76991       -4.08984
|  4> C         -0.25875        1.00432       -5.40983
|  5> C          0.39596       -0.37070       -5.33994
|  6> H          0.23915        1.56939       -6.20125
|  7> H         -1.30936        0.88869       -5.68245
|  8> F         -0.32633       -1.39040       -5.49128
|  9> O          1.61941       -0.40073       -5.03683
| 10> H         -0.57627        2.72718       -4.17630
| 11> H          0.93321        1.90140       -3.87192
| 12> H         -0.56868        1.21534       -3.30031
| 13> *
| 14> %MaxCore 64000
| 15> 
| 16> %pal nprocs 4
| 17> end  
| 18> 
| 19> %scf
| 20>   MaxIter 150
| 21> end
| 22> 
| 23> 
| 24>                          ****END OF INPUT****
================================================================================

                       ****************************
                       * Single Point Calculation *
                       ****************************

---------------------------------
CARTESIAN COORDINATES (ANGSTROEM)
---------------------------------
  C     -0.106080    1.769910   -4.089840
  C     -0.258750    1.004320   -5.409830
  C      0.395960   -0.370700   -5.339940
  H      0.239150    1.569390   -6.201250
  H     -1.309360    0.888690   -5.682450
  F     -0.326330   -1.390400   -5.491280
  O      1.619410   -0.400730   -5.036830
  H     -0.576270    2.727180   -4.176300
  H      0.933210    1.901400   -3.871920
  H     -0.568680    1.215340   -3.300310

----------------------------
CARTESIAN COORDINATES (A.U.)
----------------------------
  NO LB      ZA    FRAG     MASS         X           Y           Z
   0 C     6.0000    0    12.011   -0.200462    3.344645   -7.728678
   1 C     6.0000    0    12.011   -0.488967    1.897890  -10.223097
   2 C     6.0000    0    12.011    0.748256   -0.700521  -10.091024
   3 H     1.0000    0     1.008    0.451928    2.965717  -11.718664
   4 H     1.0000    0     1.008   -2.474332    1.679381  -10.738274
   5 F     9.0000    0    18.998   -0.616674   -2.627475  -10.377015
   6 O     8.0000    0    15.999    3.060241   -0.757270   -9.518229
   7 H     1.0000    0     1.008   -1.088992    5.153623   -7.892063
   8 H     1.0000    0     1.008    1.763511    3.593125   -7.316868
   9 H     1.0000    0     1.008   -1.074649    2.296660   -6.236682

--------------------------------
INTERNAL COORDINATES (ANGSTROEM)
--------------------------------
 C      0   0   0     0.000000000000     0.00000000     0.00000000
 C      1   0   0     1.533561142276     0.00000000     0.00000000
 C      2   1   0     1.524535928275   111.59549479     0.00000000
 H      2   1   3     1.092499030343   108.65959152   241.39604748
 H      2   1   3     1.091546303828   111.32615887   122.32181944
 F      3   2   1     1.258727424703   118.60144394   118.44579200
 O      3   2   1     1.260796325938   116.69439283   303.37508509
 H      1   2   3     1.070009261923   109.47089552   180.00008670
 H      1   2   3     1.070001145140   109.47186238    60.00011054
 H      1   2   3     1.070001993363   109.47130051   299.99920492

---------------------------
INTERNAL COORDINATES (A.U.)
---------------------------
 C      0   0   0     0.000000000000     0.00000000     0.00000000
 C      1   0   0     2.898010568526     0.00000000     0.00000000
 C      2   1   0     2.880955385762   111.59549479     0.00000000
 H      2   1   3     2.064523968922   108.65959152   241.39604748
 H      2   1   3     2.062723576728   111.32615887   122.32181944
 F      3   2   1     2.378650109945   118.60144394   118.44579200
 O      3   2   1     2.382559766678   116.69439283   303.37508509
 H      1   2   3     2.022024465793   109.47089552   180.00008670
 H      1   2   3     2.022009127296   109.47186238    60.00011054
 H      1   2   3     2.022010730205   109.47130051   299.99920492

---------------------
BASIS SET INFORMATION
---------------------
There are 4 groups of distinct atoms

 Group   1 Type C   : 12s6p3d1f contracted to 6s3p3d1f pattern {621111/411/111/1}
 Group   2 Type H   : 5s2p contracted to 3s2p pattern {311/11}
 Group   3 Type F   : 12s7p3d1f contracted to 6s4p3d1f pattern {621111/4111/111/1}
 Group   4 Type O   : 12s7p3d1f contracted to 6s4p3d1f pattern {621111/4111/111/1}

Atom   0C    basis set group =>   1
Atom   1C    basis set group =>   1
Atom   2C    basis set group =>   1
Atom   3H    basis set group =>   2
Atom   4H    basis set group =>   2
Atom   5F    basis set group =>   3
Atom   6O    basis set group =>   4
Atom   7H    basis set group =>   2
Atom   8H    basis set group =>   2
Atom   9H    basis set group =>   2
---------------------------------
AUXILIARY/J BASIS SET INFORMATION
---------------------------------
There are 4 groups of distinct atoms

 Group   1 Type C   : 12s5p4d2f1g contracted to 6s4p3d1f1g pattern {711111/2111/211/2/1}
 Group   2 Type H   : 5s2p1d contracted to 3s1p1d pattern {311/2/1}
 Group   3 Type F   : 12s5p4d2f1g contracted to 6s4p3d1f1g pattern {711111/2111/211/2/1}
 Group   4 Type O   : 12s5p4d2f1g contracted to 6s4p3d1f1g pattern {711111/2111/211/2/1}

Atom   0C    basis set group =>   1
Atom   1C    basis set group =>   1
Atom   2C    basis set group =>   1
Atom   3H    basis set group =>   2
Atom   4H    basis set group =>   2
Atom   5F    basis set group =>   3
Atom   6O    basis set group =>   4
Atom   7H    basis set group =>   2
Atom   8H    basis set group =>   2
Atom   9H    basis set group =>   2


           ************************************************************
           *        Program running with 4 parallel MPI-processes     *
           *              working on a common directory               *
           ************************************************************
------------------------------------------------------------------------------
                           ORCA GTO INTEGRAL CALCULATION
                           -- RI-GTO INTEGRALS CHOSEN --
------------------------------------------------------------------------------
------------------------------------------------------------------------------
                   ___                                                        
                  /   \      - P O W E R E D   B Y -                         
                 /     \                                                     
                 |  |  |   _    _      __       _____    __    __             
                 |  |  |  | |  | |    /  \     |  _  \  |  |  /  |          
                  \  \/   | |  | |   /    \    | | | |  |  | /  /          
                 / \  \   | |__| |  /  /\  \   | |_| |  |  |/  /          
                |  |  |   |  __  | /  /__\  \  |    /   |      \           
                |  |  |   | |  | | |   __   |  |    \   |  |\   \          
                \     /   | |  | | |  |  |  |  | |\  \  |  | \   \       
                 \___/    |_|  |_| |__|  |__|  |_| \__\ |__|  \__/        
                                                                              
                      - O R C A' S   B I G   F R I E N D -                    
                                      &                                       
                       - I N T E G R A L  F E E D E R -                       
                                                                              
 v1 FN, 2020, v2 2021                                                         
------------------------------------------------------------------------------


Reading SHARK input file TZVPD_TPSS_C1_wt_dlpno_neg.SHARKINP.tmp ... ok
----------------------
SHARK INTEGRAL PACKAGE
----------------------

Number of atoms                             ...     10
Number of basis functions                   ...    236
Number of shells                            ...     92
Maximum angular momentum                    ...      3
Integral batch strategy                     ... SHARK/LIBINT Hybrid
RI-J (if used) integral strategy            ... SPLIT-RIJ (Revised 2003 algorithm where possible)
Printlevel                                  ...      1
Contraction scheme used                     ... SEGMENTED contraction
Coulomb Range Separation                    ... NOT USED
Exchange Range Separation                   ... NOT USED
Finite Nucleus Model                        ... NOT USED
Auxiliary Coulomb fitting basis             ... AVAILABLE
   # of basis functions in Aux-J            ...    300
   # of shells in Aux-J                     ...    100
   Maximum angular momentum in Aux-J        ...      4
Auxiliary J/K fitting basis                 ... NOT available
Auxiliary Correlation fitting basis         ... NOT available
Auxiliary 'external' fitting basis          ... NOT available
Integral threshold                          ...     2.500000e-11
Primitive cut-off                           ...     2.500000e-12
Primitive pair pre-selection threshold      ...     2.500000e-12

Calculating pre-screening integrals         ... done (  0.1 sec) Dimension = 92
Organizing shell pair data                  ... done (  0.0 sec)
Shell pair information
Total number of shell pairs                 ...      4278
Shell pairs after pre-screening             ...      4158
Total number of primitive shell pairs       ...     11003
Primitive shell pairs kept                  ...      8932
          la=0 lb=0:    976 shell pairs
          la=1 lb=0:   1190 shell pairs
          la=1 lb=1:    376 shell pairs
          la=2 lb=0:    655 shell pairs
          la=2 lb=1:    402 shell pairs
          la=2 lb=2:    119 shell pairs
          la=3 lb=0:    216 shell pairs
          la=3 lb=1:    134 shell pairs
          la=3 lb=2:     75 shell pairs
          la=3 lb=3:     15 shell pairs

Calculating one electron integrals          ... done (  0.0 sec)
Calculating RI/J V-Matrix + Cholesky decomp.... done (  0.0 sec)
Calculating Nuclear repulsion               ... done (  0.0 sec) ENN=    176.650396352964 Eh

SHARK setup successfully completed in   0.2 seconds

Maximum memory used throughout the entire GTOINT-calculation: 13.9 MB


           ************************************************************
           *        Program running with 4 parallel MPI-processes     *
           *              working on a common directory               *
           ************************************************************
-------------------------------------------------------------------------------
                                 ORCA SCF
-------------------------------------------------------------------------------

------------
SCF SETTINGS
------------
Hamiltonian:
 Density Functional     Method          .... DFT(GTOs)
 Exchange Functional    Exchange        .... TPSS
 Correlation Functional Correlation     .... TPSS
 LDA part of GGA corr.  LDAOpt          .... PW91-LDA
 Gradients option       PostSCFGGA      .... off
   Density functional embedding theory  .... OFF
   NL short-range parameter             ....  5.000000
 RI-approximation to the Coulomb term is turned on
   Number of AuxJ basis functions       .... 300


General Settings:
 Integral files         IntName         .... TZVPD_TPSS_C1_wt_dlpno_neg
 Hartree-Fock type      HFTyp           .... RHF
 Total Charge           Charge          ....    0
 Multiplicity           Mult            ....    1
 Number of Electrons    NEL             ....   40
 Basis Dimension        Dim             ....  236
 Nuclear Repulsion      ENuc            ....    176.6503963530 Eh

Convergence Acceleration:
 DIIS                   CNVDIIS         .... on
   Start iteration      DIISMaxIt       ....    12
   Startup error        DIISStart       ....  0.200000
   # of expansion vecs  DIISMaxEq       ....     5
   Bias factor          DIISBfac        ....   1.050
   Max. coefficient     DIISMaxC        ....  10.000
 Trust-Rad. Augm. Hess. CNVTRAH         .... auto
   Auto Start mean grad. ratio tolernc. ....  1.125000
   Auto Start start iteration           ....    20
   Auto Start num. interpolation iter.  ....    10
   Max. Number of Micro iterations      ....    16
   Max. Number of Macro iterations      .... Maxiter - #DIIS iter
   Number of Davidson start vectors     ....     2
   Converg. threshold I  (grad. norm)   ....   1.000e-05
   Converg. threshold II (energy diff.) ....   1.000e-08
   Grad. Scal. Fac. for Micro threshold ....   0.100
   Minimum threshold for Micro iter.    ....   0.010
   NR start threshold (gradient norm)   ....   0.001
   Initial trust radius                 ....   0.400
   Minimum AH scaling param. (alpha)    ....   1.000
   Maximum AH scaling param. (alpha)    .... 1000.000
   Orbital update algorithm             .... Taylor
   White noise on init. David. guess    .... on
   Maximum white noise                  ....   0.010
   Quad. conv. algorithm                .... NR
 SOSCF                  CNVSOSCF        .... on
   Start iteration      SOSCFMaxIt      ....   150
   Startup grad/error   SOSCFStart      ....  0.003300
 Level Shifting         CNVShift        .... on
   Level shift para.    LevelShift      ....    0.2500
   Turn off err/grad.   ShiftErr        ....    0.0010
 Zerner damping         CNVZerner       .... off
 Static damping         CNVDamp         .... on
   Fraction old density DampFac         ....    0.7000
   Max. Damping (<1)    DampMax         ....    0.9800
   Min. Damping (>=0)   DampMin         ....    0.0000
   Turn off err/grad.   DampErr         ....    0.1000
 Fernandez-Rico         CNVRico         .... off

SCF Procedure:
 Maximum # iterations   MaxIter         ....   150
 SCF integral mode      SCFMode         .... Direct
   Integral package                     .... SHARK and LIBINT hybrid scheme
 Reset frequency        DirectResetFreq ....    20
 Integral Threshold     Thresh          ....  2.500e-11 Eh
 Primitive CutOff       TCut            ....  2.500e-12 Eh

Convergence Tolerance:
 Convergence Check Mode ConvCheckMode   .... Total+1el-Energy
 Convergence forced     ConvForced      .... 0
 Energy Change          TolE            ....  1.000e-08 Eh
 1-El. energy change                    ....  1.000e-05 Eh
 Orbital Gradient       TolG            ....  1.000e-05
 Orbital Rotation angle TolX            ....  1.000e-05
 DIIS Error             TolErr          ....  5.000e-07


Diagonalization of the overlap matrix:
Smallest eigenvalue                        ... 1.133e-05
Time for diagonalization                   ...    0.016 sec
Threshold for overlap eigenvalues          ... 1.000e-08
Number of eigenvalues below threshold      ... 0
Time for construction of square roots      ...    0.011 sec
Total time needed                          ...    0.028 sec

Time for model grid setup =    0.080 sec

------------------------------
INITIAL GUESS: MODEL POTENTIAL
------------------------------
Loading Hartree-Fock densities                     ... done
Calculating cut-offs                               ... done
Initializing the effective Hamiltonian             ... done
Setting up the integral package (SHARK)            ... done
Starting the Coulomb interaction                   ... done (   0.0 sec)
Reading the grid                                   ... done
Mapping shells                                     ... done
Starting the XC term evaluation                    ... done (   0.1 sec)
  promolecular density results
     # of electrons  =     39.998785270
     EX              =    -34.955913218
     EC              =     -1.330005908
     EX+EC           =    -36.285919125
Transforming the Hamiltonian                       ... done (   0.0 sec)
Diagonalizing the Hamiltonian                      ... done (   0.0 sec)
Back transforming the eigenvectors                 ... done (   0.0 sec)
Now organizing SCF variables                       ... done
                      ------------------
                      INITIAL GUESS DONE (   0.3 sec)
                      ------------------
-------------------
DFT GRID GENERATION
-------------------

General Integration Accuracy     IntAcc      ... 4.388
Radial Grid Type                 RadialGrid  ... OptM3 with GC (2021)
Angular Grid (max. ang.)         AngularGrid ... 4 (Lebedev-302)
Angular grid pruning method      GridPruning ... 4 (adaptive)
Weight generation scheme         WeightScheme... Becke
Basis function cutoff            BFCut       ... 1.0000e-11
Integration weight cutoff        WCut        ... 1.0000e-14
Angular grids for H and He will be reduced by one unit
Partially contracted basis set               ... off
Rotationally invariant grid construction     ... off

Total number of grid points                  ...    49028
Total number of batches                      ...      771
Average number of points per batch           ...       63
Average number of grid points per atom       ...     4903
Time for grid setup =    0.356 sec

--------------
SCF ITERATIONS
--------------
ITER       Energy         Delta-E        Max-DP      RMS-DP      [F,P]     Damp
               ***  Starting incremental Fock matrix formation  ***
  0   -292.3444603895   0.000000000000 0.07306532  0.00154831  0.2972587 0.7000
  1   -292.4526955994  -0.108235209972 0.04348191  0.00093780  0.0861089 0.7000
                               ***Turning on DIIS***
  2   -292.4779728694  -0.025277269942 0.11815693  0.00177330  0.0420755 0.0000
  3   -292.5411435102  -0.063170640789 0.03258333  0.00062798  0.0552696 0.0000
  4   -292.5483070593  -0.007163549176 0.01587066  0.00023881  0.0441111 0.0000
  5   -292.5512253764  -0.002918317040 0.00343898  0.00009268  0.0074270 0.0000
                      *** Initiating the SOSCF procedure ***
                           *** Shutting down DIIS ***
                      *** Re-Reading the Fockian *** 
                      *** Removing any level shift *** 
ITER      Energy       Delta-E        Grad      Rot      Max-DP    RMS-DP
  6   -292.55134459  -0.0001192147  0.000662  0.000662  0.001481  0.000039
               *** Restarting incremental Fock matrix formation ***
  7   -292.55135886  -0.0000142718  0.000185  0.000762  0.001510  0.000028
  8   -292.55135741   0.0000014485  0.000359  0.000479  0.000452  0.000009
  9   -292.55135983  -0.0000024168  0.000167  0.000414  0.000386  0.000008
 10   -292.55135906   0.0000007702  0.000313  0.000312  0.000262  0.000005
 11   -292.55136004  -0.0000009809  0.000031  0.000059  0.000136  0.000002
 12   -292.55136003   0.0000000158  0.000037  0.000033  0.000043  0.000001
                  ***Gradient check signals convergence***
              ***Rediagonalizing the Fockian in SOSCF/NRSCF***

               *****************************************************
               *                     SUCCESS                       *
               *           SCF CONVERGED AFTER  13 CYCLES          *
               *****************************************************


----------------
TOTAL SCF ENERGY
----------------

Total Energy       :         -292.55136006 Eh           -7960.72722 eV

Components:
Nuclear Repulsion  :          176.65039635 Eh            4806.90166 eV
Electronic Energy  :         -469.20175641 Eh          -12767.62889 eV
One Electron Energy:         -749.84183848 Eh          -20404.23376 eV
Two Electron Energy:          280.64008206 Eh            7636.60487 eV

Virial components:
Potential Energy   :         -584.02083879 Eh          -15892.01496 eV
Kinetic Energy     :          291.46947873 Eh            7931.28774 eV
Virial Ratio       :            2.00371182


DFT components:
N(Alpha)           :       19.999950390438 electrons
N(Beta)            :       19.999950390438 electrons
N(Total)           :       39.999900780875 electrons
E(X)               :      -35.933065213075 Eh       
E(C)               :       -1.337623067155 Eh       
E(XC)              :      -37.270688280230 Eh       
DFET-embed. en.    :        0.000000000000 Eh       

---------------
SCF CONVERGENCE
---------------

  Last Energy change         ...   -3.4634e-08  Tolerance :   1.0000e-08
  Last MAX-Density change    ...    4.4749e-05  Tolerance :   1.0000e-07
  Last RMS-Density change    ...    6.2962e-07  Tolerance :   5.0000e-09
  Last Orbital Gradient      ...    1.0577e-06  Tolerance :   1.0000e-05
  Last Orbital Rotation      ...    3.4467e-06  Tolerance :   1.0000e-05

             **** THE GBW FILE WAS UPDATED (TZVPD_TPSS_C1_wt_dlpno_neg.gbw) ****
             **** DENSITY TZVPD_TPSS_C1_wt_dlpno_neg.scfp WAS UPDATED ****
             **** ENERGY FILE WAS UPDATED (TZVPD_TPSS_C1_wt_dlpno_neg.en.tmp) ****
             **** THE GBW FILE WAS UPDATED (TZVPD_TPSS_C1_wt_dlpno_neg.gbw) ****
             **** DENSITY TZVPD_TPSS_C1_wt_dlpno_neg.scfp WAS UPDATED ****
----------------
ORBITAL ENERGIES
----------------

  NO   OCC          E(Eh)            E(eV) 
   0   2.0000     -24.477430      -666.0647 
   1   2.0000     -18.886414      -513.9254 
   2   2.0000     -10.151401      -276.2337 
   3   2.0000     -10.018083      -272.6059 
   4   2.0000      -9.991412      -271.8801 
   5   2.0000      -1.236652       -33.6510 
   6   2.0000      -0.960453       -26.1353 
   7   2.0000      -0.744302       -20.2535 
   8   2.0000      -0.635417       -17.2906 
   9   2.0000      -0.583826       -15.8867 
  10   2.0000      -0.492714       -13.4074 
  11   2.0000      -0.478858       -13.0304 
  12   2.0000      -0.457945       -12.4613 
  13   2.0000      -0.423651       -11.5281 
  14   2.0000      -0.390189       -10.6176 
  15   2.0000      -0.359121        -9.7722 
  16   2.0000      -0.340632        -9.2691 
  17   2.0000      -0.334845        -9.1116 
  18   2.0000      -0.307174        -8.3586 
  19   2.0000      -0.247547        -6.7361 
  20   0.0000      -0.064231        -1.7478 
  21   0.0000      -0.007596        -0.2067 
  22   0.0000       0.019801         0.5388 
  23   0.0000       0.029934         0.8145 
  24   0.0000       0.038655         1.0519 
  25   0.0000       0.065819         1.7910 
  26   0.0000       0.069920         1.9026 
  27   0.0000       0.072538         1.9739 
  28   0.0000       0.087028         2.3681 
  29   0.0000       0.089617         2.4386 
  30   0.0000       0.111763         3.0412 
  31   0.0000       0.115808         3.1513 
  32   0.0000       0.123871         3.3707 
  33   0.0000       0.130593         3.5536 
  34   0.0000       0.140945         3.8353 
  35   0.0000       0.148854         4.0505 
  36   0.0000       0.157035         4.2731 
  37   0.0000       0.173479         4.7206 
  38   0.0000       0.195338         5.3154 
  39   0.0000       0.199534         5.4296 
  40   0.0000       0.206338         5.6147 
  41   0.0000       0.219292         5.9672 
  42   0.0000       0.226587         6.1657 
  43   0.0000       0.239445         6.5156 
  44   0.0000       0.249121         6.7789 
  45   0.0000       0.255266         6.9461 
  46   0.0000       0.263291         7.1645 
  47   0.0000       0.268785         7.3140 
  48   0.0000       0.276860         7.5337 
  49   0.0000       0.283048         7.7021 
  50   0.0000       0.285568         7.7707 
  51   0.0000       0.294784         8.0215 
  52   0.0000       0.303290         8.2529 
  53   0.0000       0.308408         8.3922 
  54   0.0000       0.321988         8.7617 
  55   0.0000       0.333388         9.0719 
  56   0.0000       0.337556         9.1854 
  57   0.0000       0.347240         9.4489 
  58   0.0000       0.356601         9.7036 
  59   0.0000       0.370168        10.0728 
  60   0.0000       0.378089        10.2883 
  61   0.0000       0.386538        10.5182 
  62   0.0000       0.389657        10.6031 
  63   0.0000       0.399540        10.8720 
  64   0.0000       0.407250        11.0818 
  65   0.0000       0.425664        11.5829 
  66   0.0000       0.432100        11.7580 
  67   0.0000       0.434696        11.8287 
  68   0.0000       0.447349        12.1730 
  69   0.0000       0.457942        12.4612 
  70   0.0000       0.460084        12.5195 
  71   0.0000       0.475318        12.9341 
  72   0.0000       0.479449        13.0465 
  73   0.0000       0.518589        14.1115 
  74   0.0000       0.533672        14.5219 
  75   0.0000       0.542727        14.7684 
  76   0.0000       0.561346        15.2750 
  77   0.0000       0.568843        15.4790 
  78   0.0000       0.600032        16.3277 
  79   0.0000       0.609146        16.5757 
  80   0.0000       0.618543        16.8314 
  81   0.0000       0.624393        16.9906 
  82   0.0000       0.645142        17.5552 
  83   0.0000       0.654904        17.8209 
  84   0.0000       0.658966        17.9314 
  85   0.0000       0.666004        18.1229 
  86   0.0000       0.670102        18.2344 
  87   0.0000       0.678397        18.4601 
  88   0.0000       0.682901        18.5827 
  89   0.0000       0.683777        18.6065 
  90   0.0000       0.696843        18.9621 
  91   0.0000       0.720970        19.6186 
  92   0.0000       0.735659        20.0183 
  93   0.0000       0.757377        20.6093 
  94   0.0000       0.772431        21.0189 
  95   0.0000       0.796246        21.6670 
  96   0.0000       0.808359        21.9966 
  97   0.0000       0.815024        22.1779 
  98   0.0000       0.865148        23.5419 
  99   0.0000       0.879460        23.9313 
 100   0.0000       0.908306        24.7163 
 101   0.0000       0.932636        25.3783 
 102   0.0000       0.948279        25.8040 
 103   0.0000       0.953602        25.9488 
 104   0.0000       0.994528        27.0625 
 105   0.0000       1.047818        28.5126 
 106   0.0000       1.070127        29.1196 
 107   0.0000       1.077370        29.3167 
 108   0.0000       1.116171        30.3725 
 109   0.0000       1.134542        30.8724 
 110   0.0000       1.172923        31.9169 
 111   0.0000       1.176011        32.0009 
 112   0.0000       1.201334        32.6900 
 113   0.0000       1.224886        33.3308 
 114   0.0000       1.261812        34.3357 
 115   0.0000       1.276813        34.7438 
 116   0.0000       1.279546        34.8182 
 117   0.0000       1.326146        36.0863 
 118   0.0000       1.360681        37.0260 
 119   0.0000       1.443738        39.2861 
 120   0.0000       1.487032        40.4642 
 121   0.0000       1.623469        44.1768 
 122   0.0000       1.684730        45.8438 
 123   0.0000       1.701505        46.3003 
 124   0.0000       1.740724        47.3675 
 125   0.0000       1.754177        47.7336 
 126   0.0000       1.775930        48.3255 
 127   0.0000       1.785019        48.5728 
 128   0.0000       1.810856        49.2759 
 129   0.0000       1.816497        49.4294 
 130   0.0000       1.852974        50.4220 
 131   0.0000       1.860566        50.6286 
 132   0.0000       1.889170        51.4069 
 133   0.0000       1.922767        52.3212 
 134   0.0000       1.990667        54.1688 
 135   0.0000       1.993169        54.2369 
 136   0.0000       2.002947        54.5030 
 137   0.0000       2.074255        56.4434 
 138   0.0000       2.127017        57.8791 
 139   0.0000       2.130925        57.9854 
 140   0.0000       2.209079        60.1121 
 141   0.0000       2.220614        60.4260 
 142   0.0000       2.273737        61.8715 
 143   0.0000       2.335234        63.5449 
 144   0.0000       2.349987        63.9464 
 145   0.0000       2.392576        65.1053 
 146   0.0000       2.403316        65.3976 
 147   0.0000       2.416534        65.7572 
 148   0.0000       2.484767        67.6139 
 149   0.0000       2.494094        67.8677 
 150   0.0000       2.521975        68.6264 
 151   0.0000       2.529455        68.8300 
 152   0.0000       2.567219        69.8576 
 153   0.0000       2.617289        71.2201 
 154   0.0000       2.642722        71.9121 
 155   0.0000       2.667198        72.5782 
 156   0.0000       2.681724        72.9734 
 157   0.0000       2.711334        73.7792 
 158   0.0000       2.761587        75.1466 
 159   0.0000       2.782854        75.7253 
 160   0.0000       2.818151        76.6858 
 161   0.0000       2.875667        78.2509 
 162   0.0000       2.891812        78.6902 
 163   0.0000       2.924602        79.5825 
 164   0.0000       2.985853        81.2492 
 165   0.0000       3.044482        82.8446 
 166   0.0000       3.072036        83.5943 
 167   0.0000       3.114875        84.7601 
 168   0.0000       3.135284        85.3154 
 169   0.0000       3.162974        86.0689 
 170   0.0000       3.175328        86.4051 
 171   0.0000       3.213984        87.4569 
 172   0.0000       3.226251        87.7908 
 173   0.0000       3.279689        89.2449 
 174   0.0000       3.288489        89.4843 
 175   0.0000       3.332649        90.6860 
 176   0.0000       3.358006        91.3760 
 177   0.0000       3.384329        92.0923 
 178   0.0000       3.425155        93.2032 
 179   0.0000       3.432596        93.4057 
 180   0.0000       3.461432        94.1904 
 181   0.0000       3.477050        94.6153 
 182   0.0000       3.519109        95.7598 
 183   0.0000       3.527059        95.9761 
 184   0.0000       3.571417        97.1832 
 185   0.0000       3.589486        97.6749 
 186   0.0000       3.641796        99.0983 
 187   0.0000       3.713946       101.0616 
 188   0.0000       3.816509       103.8525 
 189   0.0000       3.875874       105.4679 
 190   0.0000       3.903553       106.2211 
 191   0.0000       3.959395       107.7406 
 192   0.0000       3.986079       108.4667 
 193   0.0000       4.030230       109.6681 
 194   0.0000       4.074653       110.8769 
 195   0.0000       4.144014       112.7644 
 196   0.0000       4.201959       114.3411 
 197   0.0000       4.327189       117.7488 
 198   0.0000       4.483799       122.0104 
 199   0.0000       4.569934       124.3542 
 200   0.0000       4.617605       125.6514 
 201   0.0000       4.634959       126.1237 
 202   0.0000       4.711984       128.2196 
 203   0.0000       4.759777       129.5201 
 204   0.0000       4.906648       133.5167 
 205   0.0000       4.968046       135.1874 
 206   0.0000       5.163818       140.5146 
 207   0.0000       5.198030       141.4456 
 208   0.0000       5.406814       147.1269 
 209   0.0000       5.494813       149.5215 
 210   0.0000       5.631211       153.2330 
 211   0.0000       5.951430       161.9466 
 212   0.0000       6.177039       168.0858 
 213   0.0000       6.234525       169.6500 
 214   0.0000       6.458859       175.7545 
 215   0.0000       6.525396       177.5651 
 216   0.0000       6.749282       183.6573 
 217   0.0000       6.810626       185.3266 
 218   0.0000       6.850062       186.3997 
 219   0.0000       6.866830       186.8559 
 220   0.0000       7.056990       192.0305 
 221   0.0000       7.095250       193.0716 
 222   0.0000       7.184297       195.4947 
 223   0.0000       7.371307       200.5835 
 224   0.0000       7.522118       204.6872 
 225   0.0000       7.804297       212.3657 
 226   0.0000       8.430653       229.4097 
 227   0.0000       8.487213       230.9488 
 228   0.0000       8.766130       238.5385 
 229   0.0000       8.965726       243.9698 
 230   0.0000       9.174664       249.6553 
 231   0.0000      22.512269       612.5900 
 232   0.0000      22.547510       613.5489 
 233   0.0000      23.311723       634.3442 
 234   0.0000      44.097629      1199.9575 
 235   0.0000      57.366268      1561.0155 

                    ********************************
                    * MULLIKEN POPULATION ANALYSIS *
                    ********************************

-----------------------
MULLIKEN ATOMIC CHARGES
-----------------------
   0 C :   -0.895962
   1 C :    0.007438
   2 C :    0.547288
   3 H :    0.150210
   4 H :    0.172565
   5 F :   -0.201636
   6 O :   -0.536234
   7 H :    0.204158
   8 H :    0.273521
   9 H :    0.278652
Sum of atomic charges:    0.0000000

--------------------------------
MULLIKEN REDUCED ORBITAL CHARGES
--------------------------------
  0 C s       :     3.290786  s :     3.290786
      pz      :     1.054756  p :     3.495201
      px      :     1.242232
      py      :     1.198212
      dz2     :     0.019653  d :     0.105548
      dxz     :     0.013091
      dyz     :     0.020938
      dx2y2   :     0.032152
      dxy     :     0.019714
      f0      :     0.000747  f :     0.004428
      f+1     :     0.000633
      f-1     :     0.000998
      f+2     :     0.000475
      f-2     :     0.000641
      f+3     :     0.000828
      f-3     :     0.000107
  1 C s       :     2.983600  s :     2.983600
      pz      :     0.983233  p :     2.951608
      px      :     1.009626
      py      :     0.958748
      dz2     :     0.006775  d :     0.051044
      dxz     :     0.005673
      dyz     :     0.023981
      dx2y2   :     0.022613
      dxy     :    -0.007997
      f0      :     0.001090  f :     0.006310
      f+1     :     0.000797
      f-1     :     0.001027
      f+2     :     0.000641
      f-2     :     0.000923
      f+3     :     0.000999
      f-3     :     0.000835
  2 C s       :     3.158168  s :     3.158168
      pz      :     0.706238  p :     1.963825
      px      :     0.613474
      py      :     0.644113
      dz2     :     0.012900  d :     0.303117
      dxz     :     0.045536
      dyz     :     0.046975
      dx2y2   :     0.085899
      dxy     :     0.111807
      f0      :     0.002446  f :     0.027602
      f+1     :     0.002078
      f-1     :     0.001316
      f+2     :     0.002846
      f-2     :     0.003672
      f+3     :     0.004521
      f-3     :     0.010723
  3 H s       :     0.806398  s :     0.806398
      pz      :     0.022037  p :     0.043392
      px      :     0.002473
      py      :     0.018882
  4 H s       :     0.786284  s :     0.786284
      pz      :    -0.000996  p :     0.041151
      px      :     0.031016
      py      :     0.011131
  5 F s       :     4.027138  s :     4.027138
      pz      :     1.804845  p :     5.153783
      px      :     1.745323
      py      :     1.603615
      dz2     :     0.001485  d :     0.019838
      dxz     :     0.002039
      dyz     :     0.005679
      dx2y2   :     0.006867
      dxy     :     0.003767
      f0      :     0.000077  f :     0.000877
      f+1     :     0.000056
      f-1     :     0.000096
      f+2     :     0.000025
      f-2     :     0.000142
      f+3     :     0.000266
      f-3     :     0.000216
  6 O s       :     4.047167  s :     4.047167
      pz      :     1.374973  p :     4.456730
      px      :     1.257633
      py      :     1.824124
      dz2     :     0.003605  d :     0.030638
      dxz     :     0.012272
      dyz     :     0.000781
      dx2y2   :     0.008207
      dxy     :     0.005773
      f0      :     0.000110  f :     0.001698
      f+1     :     0.000269
      f-1     :     0.000009
      f+2     :     0.000396
      f-2     :     0.000065
      f+3     :     0.000422
      f-3     :     0.000428
  7 H s       :     0.729816  s :     0.729816
      pz      :     0.012643  p :     0.066026
      px      :     0.013882
      py      :     0.039502
  8 H s       :     0.665244  s :     0.665244
      pz      :     0.006624  p :     0.061235
      px      :     0.040516
      py      :     0.014094
  9 H s       :     0.669734  s :     0.669734
      pz      :     0.023364  p :     0.051614
      px      :     0.012302
      py      :     0.015948


                     *******************************
                     * LOEWDIN POPULATION ANALYSIS *
                     *******************************

----------------------
LOEWDIN ATOMIC CHARGES
----------------------
   0 C :   -0.079395
   1 C :   -0.151816
   2 C :   -0.492907
   3 H :    0.117353
   4 H :    0.104289
   5 F :    0.212586
   6 O :    0.081909
   7 H :    0.066160
   8 H :    0.070116
   9 H :    0.071704

-------------------------------
LOEWDIN REDUCED ORBITAL CHARGES
-------------------------------
  0 C s       :     2.726950  s :     2.726950
      pz      :     0.936819  p :     2.870606
      px      :     0.982013
      py      :     0.951775
      dz2     :     0.128314  d :     0.453933
      dxz     :     0.093764
      dyz     :     0.095200
      dx2y2   :     0.072560
      dxy     :     0.064094
      f0      :     0.004624  f :     0.027905
      f+1     :     0.004874
      f-1     :     0.005520
      f+2     :     0.002976
      f-2     :     0.004787
      f+3     :     0.004221
      f-3     :     0.000903
  1 C s       :     2.682805  s :     2.682805
      pz      :     0.938713  p :     2.748950
      px      :     0.926569
      py      :     0.883668
      dz2     :     0.151944  d :     0.681134
      dxz     :     0.120253
      dyz     :     0.155209
      dx2y2   :     0.147464
      dxy     :     0.106264
      f0      :     0.006292  f :     0.038926
      f+1     :     0.005223
      f-1     :     0.006135
      f+2     :     0.003694
      f-2     :     0.006615
      f+3     :     0.006330
      f-3     :     0.004637
  2 C s       :     2.650391  s :     2.650391
      pz      :     0.646149  p :     2.340782
      px      :     0.869543
      py      :     0.825090
      dz2     :     0.122316  d :     1.324567
      dxz     :     0.210172
      dyz     :     0.176966
      dx2y2   :     0.378728
      dxy     :     0.436385
      f0      :     0.012088  f :     0.177166
      f+1     :     0.014001
      f-1     :     0.011285
      f+2     :     0.019699
      f-2     :     0.022527
      f+3     :     0.033926
      f-3     :     0.063642
  3 H s       :     0.680378  s :     0.680378
      pz      :     0.075172  p :     0.202269
      px      :     0.064553
      py      :     0.062544
  4 H s       :     0.691749  s :     0.691749
      pz      :     0.052400  p :     0.203962
      px      :     0.097817
      py      :     0.053744
  5 F s       :     3.519006  s :     3.519006
      pz      :     1.684705  p :     5.049145
      px      :     1.708223
      py      :     1.656217
      dz2     :     0.026076  d :     0.217093
      dxz     :     0.023928
      dyz     :     0.031104
      dx2y2   :     0.078539
      dxy     :     0.057445
      f0      :     0.000176  f :     0.002169
      f+1     :     0.000148
      f-1     :     0.000235
      f+2     :     0.000043
      f-2     :     0.000320
      f+3     :     0.000589
      f-3     :     0.000657
  6 O s       :     3.387659  s :     3.387659
      pz      :     1.267333  p :     4.314465
      px      :     1.437426
      py      :     1.609706
      dz2     :     0.025942  d :     0.210766
      dxz     :     0.045189
      dyz     :     0.010033
      dx2y2   :     0.059774
      dxy     :     0.069827
      f0      :     0.000399  f :     0.005200
      f+1     :     0.000759
      f-1     :     0.000058
      f+2     :     0.000943
      f-2     :     0.000223
      f+3     :     0.001521
      f-3     :     0.001297
  7 H s       :     0.712794  s :     0.712794
      pz      :     0.054529  p :     0.221046
      px      :     0.069156
      py      :     0.097360
  8 H s       :     0.700236  s :     0.700236
      pz      :     0.056158  p :     0.229648
      px      :     0.110241
      py      :     0.063249
  9 H s       :     0.709242  s :     0.709242
      pz      :     0.079855  p :     0.219053
      px      :     0.066716
      py      :     0.072482


                      *****************************
                      * MAYER POPULATION ANALYSIS *
                      *****************************

  NA   - Mulliken gross atomic population
  ZA   - Total nuclear charge
  QA   - Mulliken gross atomic charge
  VA   - Mayer's total valence
  BVA  - Mayer's bonded valence
  FA   - Mayer's free valence

  ATOM       NA         ZA         QA         VA         BVA        FA
  0 C      6.8960     6.0000    -0.8960     3.9973     3.9973    -0.0000
  1 C      5.9926     6.0000     0.0074     3.7136     3.7136     0.0000
  2 C      5.4527     6.0000     0.5473     3.8195     3.8195     0.0000
  3 H      0.8498     1.0000     0.1502     1.0331     1.0331     0.0000
  4 H      0.8274     1.0000     0.1726     1.0261     1.0261     0.0000
  5 F      9.2016     9.0000    -0.2016     1.1260     1.1260     0.0000
  6 O      8.5362     8.0000    -0.5362     1.8036     1.8036     0.0000
  7 H      0.7958     1.0000     0.2042     1.1027     1.1027    -0.0000
  8 H      0.7265     1.0000     0.2735     1.0395     1.0395    -0.0000
  9 H      0.7213     1.0000     0.2787     1.0016     1.0016    -0.0000

  Mayer bond orders larger than 0.100000
B(  0-C ,  1-C ) :   0.8656 B(  0-C ,  2-C ) :   0.1615 B(  0-C ,  7-H ) :   0.9672 
B(  0-C ,  8-H ) :   0.9615 B(  0-C ,  9-H ) :   0.9137 B(  1-C ,  2-C ) :   0.9748 
B(  1-C ,  3-H ) :   0.9101 B(  1-C ,  4-H ) :   0.9484 B(  2-C ,  5-F ) :   0.9869 
B(  2-C ,  6-O ) :   1.6065 

-------
TIMINGS
-------

Total SCF time: 0 days 0 hours 0 min 11 sec 

Total time                  ....      11.442 sec
Sum of individual times     ....      11.219 sec  ( 98.1%)

Fock matrix formation       ....      10.351 sec  ( 90.5%)
  Split-RI-J                ....       1.366 sec  ( 13.2% of F)
  XC integration            ....       8.935 sec  ( 86.3% of F)
    Basis function eval.    ....       1.138 sec  ( 12.7% of XC)
    Density eval.           ....       2.745 sec  ( 30.7% of XC)
    XC-Functional eval.     ....       0.400 sec  (  4.5% of XC)
    XC-Potential eval.      ....       4.238 sec  ( 47.4% of XC)
Diagonalization             ....       0.096 sec  (  0.8%)
Density matrix formation    ....       0.007 sec  (  0.1%)
Population analysis         ....       0.012 sec  (  0.1%)
Initial guess               ....       0.193 sec  (  1.7%)
Orbital Transformation      ....       0.000 sec  (  0.0%)
Orbital Orthonormalization  ....       0.000 sec  (  0.0%)
DIIS solution               ....       0.054 sec  (  0.5%)
SOSCF solution              ....       0.069 sec  (  0.6%)
Grid generation             ....       0.436 sec  (  3.8%)

Maximum memory used throughout the entire SCF-calculation: 23.4 MB


-------------------------------------------------------------------------------
                          DFT DISPERSION CORRECTION                            
                                                                               
                              DFTD3 V3.1  Rev 1                                
                          USING Becke-Johnson damping                          
-------------------------------------------------------------------------------
The TPSS functional is recognized
Active option DFTDOPT                   ...         4   

molecular C6(AA) [au] = 808.353372 


            DFT-D V3
 parameters
 s6 scaling factor         :     1.0000 
 a1 scaling factor         :     0.4535 
 s8 scaling factor         :     1.9435 
 a2 scaling factor         :     4.4752 
 ad hoc parameters k1-k3   :    16.0000     1.3333    -4.0000 

 Edisp/kcal,au: -4.806196116694  -0.007659160224 
 E6   /kcal   :  -2.494068756 
 E8   /kcal   :  -2.312127361 
 % E8         :  48.107220451 

-------------------------   ----------------
Dispersion correction           -0.007659160
-------------------------   ----------------


-------------------------   --------------------
FINAL SINGLE POINT ENERGY      -292.559019220897
-------------------------   --------------------


                            ***************************************
                            *     ORCA property calculations      *
                            ***************************************

                                    ---------------------
                                    Active property flags
                                    ---------------------
   (+) Dipole Moment


------------------------------------------------------------------------------
                       ORCA ELECTRIC PROPERTIES CALCULATION
------------------------------------------------------------------------------

Dipole Moment Calculation                       ... on
Quadrupole Moment Calculation                   ... off
Polarizability Calculation                      ... off
GBWName                                         ... TZVPD_TPSS_C1_wt_dlpno_neg.gbw
Electron density file                           ... TZVPD_TPSS_C1_wt_dlpno_neg.scfp
The origin for moment calculation is the CENTER OF MASS  = ( 0.466805,  0.109581 -9.603004)

-------------
DIPOLE MOMENT
-------------
                                X             Y             Z
Electronic contribution:      0.87676      -8.19873      -2.55626
Nuclear contribution   :     -1.80992       8.85192       2.42184
                        -----------------------------------------
Total Dipole Moment    :     -0.93316       0.65319      -0.13442
                        -----------------------------------------
Magnitude (a.u.)       :      1.14696
Magnitude (Debye)      :      2.91534



--------------------
Rotational spectrum 
--------------------
 
Rotational constants in cm-1:     0.298360     0.128849     0.102271 
Rotational constants in MHz :  8944.606599  3862.796179  3066.020510 

 Dipole components along the rotational axes: 
x,y,z [a.u.] :    -0.691110    -0.896577     0.184489 
x,y,z [Debye]:    -1.756662    -2.278918     0.468935 

 

Timings for individual modules:

Sum of individual times         ...       15.629 sec (=   0.260 min)
GTO integral calculation        ...        2.282 sec (=   0.038 min)  14.6 %
SCF iterations                  ...       13.347 sec (=   0.222 min)  85.4 %
                             ****ORCA TERMINATED NORMALLY****
TOTAL RUN TIME: 0 days 0 hours 0 minutes 16 seconds 170 msec
