
                                        *****************
                                        * O   R   C   A *
                                        *****************

                                            #,                                       
                                            ###                                      
                                            ####                                     
                                            #####                                    
                                            ######                                   
                                           ########,                                 
                                     ,,################,,,,,                         
                               ,,#################################,,                 
                          ,,##########################################,,             
                       ,#########################################, ''#####,          
                    ,#############################################,,   '####,        
                  ,##################################################,,,,####,       
                ,###########''''           ''''###############################       
              ,#####''   ,,,,##########,,,,          '''####'''          '####       
            ,##' ,,,,###########################,,,                        '##       
           ' ,,###''''                  '''############,,,                           
         ,,##''                                '''############,,,,        ,,,,,,###''
      ,#''                                            '''#######################'''  
     '                                                          ''''####''''         
             ,#######,   #######,   ,#######,      ##                                
            ,#'     '#,  ##    ##  ,#'     '#,    #''#        ######   ,####,        
            ##       ##  ##   ,#'  ##            #'  '#       #        #'  '#        
            ##       ##  #######   ##           ,######,      #####,   #    #        
            '#,     ,#'  ##    ##  '#,     ,#' ,#      #,         ##   #,  ,#        
             '#######'   ##     ##  '#######'  #'      '#     #####' # '####'        



                  #######################################################
                  #                        -***-                        #
                  #          Department of theory and spectroscopy      #
                  #    Directorship and core code : Frank Neese         #
                  #        Max Planck Institute fuer Kohlenforschung    #
                  #                Kaiser Wilhelm Platz 1               #
                  #                 D-45470 Muelheim/Ruhr               #
                  #                      Germany                        #
                  #                                                     #
                  #                  All rights reserved                #
                  #                        -***-                        #
                  #######################################################


                         Program Version 5.0.0 -  RELEASE  -
                                (SVN: $Rev: 19529$)
                ($Date: 2021-06-28 11:36:33 +0200 (Mo, 28 Jun 2021) $)


 With contributions from (in alphabetic order):
   Daniel Aravena         : Magnetic Suceptibility
   Michael Atanasov       : Ab Initio Ligand Field Theory (pilot matlab implementation)
   Alexander A. Auer      : GIAO ZORA, VPT2 properties, NMR spectrum
   Ute Becker             : Parallelization
   Giovanni Bistoni       : ED, misc. LED, open-shell LED, HFLD
   Martin Brehm           : Molecular dynamics
   Dmytro Bykov           : SCF Hessian
   Vijay G. Chilkuri      : MRCI spin determinant printing, contributions to CSF-ICE
   Dipayan Datta          : RHF DLPNO-CCSD density
   Achintya Kumar Dutta   : EOM-CC, STEOM-CC
   Dmitry Ganyushin       : Spin-Orbit,Spin-Spin,Magnetic field MRCI
   Miquel Garcia          : C-PCM Hessian, Gaussian charge scheme
   Yang Guo               : DLPNO-NEVPT2, F12-NEVPT2, CIM, IAO-localization
   Andreas Hansen         : Spin unrestricted coupled pair/coupled cluster methods
   Benjamin Helmich-Paris : MC-RPA, TRAH-SCF, COSX integrals
   Lee Huntington         : MR-EOM, pCC
   Robert Izsak           : Overlap fitted RIJCOSX, COSX-SCS-MP3, EOM
   Marcus Kettner         : VPT2
   Christian Kollmar      : KDIIS, OOCD, Brueckner-CCSD(T), CCSD density, CASPT2, CASPT2-K
   Simone Kossmann        : Meta GGA functionals, TD-DFT gradient, OOMP2, MP2 Hessian
   Martin Krupicka        : Initial AUTO-CI
   Lucas Lang             : DCDCAS
   Marvin Lechner         : AUTO-CI (C++ implementation), FIC-MRCC
   Dagmar Lenk            : GEPOL surface, SMD
   Dimitrios Liakos       : Extrapolation schemes; Compound Job, initial MDCI parallelization
   Dimitrios Manganas     : Further ROCIS development; embedding schemes
   Dimitrios Pantazis     : SARC Basis sets
   Anastasios Papadopoulos: AUTO-CI, single reference methods and gradients
   Taras Petrenko         : DFT Hessian,TD-DFT gradient, ASA, ECA, R-Raman, ABS, FL, XAS/XES, NRVS
   Peter Pinski           : DLPNO-MP2, DLPNO-MP2 Gradient
   Christoph Reimann      : Effective Core Potentials
   Marius Retegan         : Local ZFS, SOC
   Christoph Riplinger    : Optimizer, TS searches, QM/MM, DLPNO-CCSD(T), (RO)-DLPNO pert. Triples
   Tobias Risthaus        : Range-separated hybrids, TD-DFT gradient, RPA, STAB
   Michael Roemelt        : Original ROCIS implementation
   Masaaki Saitow         : Open-shell DLPNO-CCSD energy and density
   Barbara Sandhoefer     : DKH picture change effects
   Avijit Sen             : IP-ROCIS
   Kantharuban Sivalingam : CASSCF convergence, NEVPT2, FIC-MRCI
   Bernardo de Souza      : ESD, SOC TD-DFT
   Georgi Stoychev        : AutoAux, RI-MP2 NMR
   Willem Van den Heuvel  : Paramagnetic NMR
   Boris Wezisla          : Elementary symmetry handling
   Frank Wennmohs         : Technical directorship


 We gratefully acknowledge several colleagues who have allowed us to
 interface, adapt or use parts of their codes:
   Stefan Grimme, W. Hujo, H. Kruse, P. Pracht,  : VdW corrections, initial TS optimization,
                  C. Bannwarth, S. Ehlert          DFT functionals, gCP, sTDA/sTD-DF
   Ed Valeev, F. Pavosevic, A. Kumar             : LibInt (2-el integral package), F12 methods
   Garnet Chan, S. Sharma, J. Yang, R. Olivares  : DMRG
   Ulf Ekstrom                                   : XCFun DFT Library
   Mihaly Kallay                                 : mrcc  (arbitrary order and MRCC methods)
   Jiri Pittner, Ondrej Demel                    : Mk-CCSD
   Frank Weinhold                                : gennbo (NPA and NBO analysis)
   Christopher J. Cramer and Donald G. Truhlar   : smd solvation model
   Lars Goerigk                                  : TD-DFT with DH, B97 family of functionals
   V. Asgeirsson, H. Jonsson                     : NEB implementation
   FAccTs GmbH                                   : IRC, NEB, NEB-TS, DLPNO-Multilevel, CI-OPT
                                                   MM, QMMM, 2- and 3-layer-ONIOM, Crystal-QMMM,
                                                   LR-CPCM, SF, NACMEs, symmetry and pop. for TD-DFT,
                                                   nearIR, NL-DFT gradient (VV10), updates on ESD,
                                                   ML-optimized integration grids
   S Lehtola, MJT Oliveira, MAL Marques          : LibXC Library
   Liviu Ungur et al                             : ANISO software


 Your calculation uses the libint2 library for the computation of 2-el integrals
 For citations please refer to: http://libint.valeyev.net

 Your ORCA version has been built with support for libXC version: 5.1.0
 For citations please refer to: https://tddft.org/programs/libxc/

 This ORCA versions uses:
   CBLAS   interface :  Fast vector & matrix operations
   LAPACKE interface :  Fast linear algebra routines
   SCALAPACK package :  Parallel linear algebra routines
   Shared memory     :  Shared parallel matrices
   BLAS/LAPACK       :  OpenBLAS 0.3.15  USE64BITINT DYNAMIC_ARCH NO_AFFINITY Haswell SINGLE_THREADED
        Core in use  :  Haswell
   Copyright (c) 2011-2014, The OpenBLAS Project


Your calculation utilizes the atom-pairwise dispersion correction
with the zero-damping scheme (D30)
Cite in your paper:
S.Grimme, J.Antony, S.Ehrlich and H.Krieg, J.Chem.Phys., 132, (2010), 154104 
   

XCFun DFT library Copyright 2009-2010 Ulf Ekstrom and contributors.
See http://admol.org/xcfun for more information.
This is free software; see the source code for copying conditions.
There is ABSOLUTELY NO WARRANTY; not even for MERCHANTABILITY or FITNESS FOR A PARTICULAR PURPOSE.
For details see the documentation.
Scientific users of this library should cite U. Ekstrom, L. Visscher, R. Bast, A. J. Thorvaldsen and K. Ruud;
J.Chem.Theor.Comp. 2010, DOI: 10.1021/ct100117s
XCFun Version 0.99 

================================================================================

----- Orbital basis set information -----
Your calculation utilizes the basis: def2-SVP
   F. Weigend and R. Ahlrichs, Phys. Chem. Chem. Phys. 7, 3297 (2005).

----- AuxJ basis set information -----
Your calculation utilizes the auxiliary basis: def2/J
   F. Weigend, Phys. Chem. Chem. Phys. 8, 1057 (2006).

================================================================================
                                        WARNINGS
                       Please study these warnings very carefully!
================================================================================


INFO   : the flag for use of the SHARK integral package has been found!

================================================================================
                                       INPUT FILE
================================================================================
NAME = SVP_wB97XD3_A_wt_dlpno_pos.com
|  1> !wB97X-D3 RIJCOSX def2-SVP def2/J TightSCF
|  2> *xyz 1 1 
|  3> C          3.48828        1.60092       -1.52204
|  4> C          4.34297        1.31342       -2.75683
|  5> N          2.81029        0.42878       -1.01420
|  6> H          2.71455        2.33145       -1.76030
|  7> H          4.09099        2.06315       -0.73338
|  8> C          3.29098       -0.41802       -0.12908
|  9> N          2.51754       -1.43202        0.23936
| 10> N          4.53549       -0.28441        0.39580
| 11> H          5.04363        0.57189        0.22290
| 12> H          4.72335       -0.73327        1.28180
| 13> H          1.93479        0.10230       -1.40379
| 14> H          1.67464       -1.50562       -0.31610
| 15> H          2.92850       -2.21850        0.72549
| 16> H          3.73575        0.86277       -3.51385
| 17> H          5.13754        0.64699       -2.49333
| 18> H          4.75374        2.22930       -3.12740
| 19> *
| 20> %MaxCore 64000
| 21> 
| 22> %pal nprocs 4
| 23> end  
| 24> 
| 25> %scf
| 26>   MaxIter 150
| 27> end
| 28> 
| 29> 
| 30>                          ****END OF INPUT****
================================================================================

                       ****************************
                       * Single Point Calculation *
                       ****************************

---------------------------------
CARTESIAN COORDINATES (ANGSTROEM)
---------------------------------
  C      3.488280    1.600920   -1.522040
  C      4.342970    1.313420   -2.756830
  N      2.810290    0.428780   -1.014200
  H      2.714550    2.331450   -1.760300
  H      4.090990    2.063150   -0.733380
  C      3.290980   -0.418020   -0.129080
  N      2.517540   -1.432020    0.239360
  N      4.535490   -0.284410    0.395800
  H      5.043630    0.571890    0.222900
  H      4.723350   -0.733270    1.281800
  H      1.934790    0.102300   -1.403790
  H      1.674640   -1.505620   -0.316100
  H      2.928500   -2.218500    0.725490
  H      3.735750    0.862770   -3.513850
  H      5.137540    0.646990   -2.493330
  H      4.753740    2.229300   -3.127400

----------------------------
CARTESIAN COORDINATES (A.U.)
----------------------------
  NO LB      ZA    FRAG     MASS         X           Y           Z
   0 C     6.0000    0    12.011    6.591894    3.025300   -2.876239
   1 C     6.0000    0    12.011    8.207024    2.482004   -5.209654
   2 N     7.0000    0    14.007    5.310678    0.810277   -1.916560
   3 H     1.0000    0     1.008    5.129756    4.405802   -3.326485
   4 H     1.0000    0     1.008    7.730851    3.898788   -1.385887
   5 C     6.0000    0    12.011    6.219051   -0.789943   -0.243926
   6 N     7.0000    0    14.007    4.757461   -2.706126    0.452325
   7 N     7.0000    0    14.007    8.570834   -0.537457    0.747954
   8 H     1.0000    0     1.008    9.531079    1.080715    0.421220
   9 H     1.0000    0     1.008    8.925838   -1.385679    2.422251
  10 H     1.0000    0     1.008    3.656223    0.193319   -2.652779
  11 H     1.0000    0     1.008    3.164611   -2.845209   -0.597342
  12 H     1.0000    0     1.008    5.534063   -4.192357    1.370977
  13 H     1.0000    0     1.008    7.059544    1.630399   -6.640214
  14 H     1.0000    0     1.008    9.708544    1.222634   -4.711711
  15 H     1.0000    0     1.008    8.983267    4.212766   -5.909930

--------------------------------
INTERNAL COORDINATES (ANGSTROEM)
--------------------------------
 C      0   0   0     0.000000000000     0.00000000     0.00000000
 C      1   0   0     1.529005425170     0.00000000     0.00000000
 N      1   2   0     1.446196420027   113.15647526     0.00000000
 H      1   2   3     1.090458628926   110.25141732   240.62087931
 H      1   2   3     1.094943154963   110.69312197   124.42402746
 C      3   1   2     1.315891534474   125.91025238    89.02804164
 N      6   3   1     1.327461286516   117.73705795   178.95874270
 N      6   3   1     1.357260397492   122.12206254   358.50918587
 H      8   6   3     1.010618800340   118.57313099    10.64293628
 H      8   6   3     1.010822773388   117.75308784   158.14426892
 H      3   1   2     1.012358537525   122.11879420   277.16183776
 H      7   6   3     1.012142866200   112.85787808     8.15033951
 H      7   6   3     1.011810895820   119.37039034   164.55796622
 H      2   1   3     1.069991042626   109.47111053    55.57571307
 H      2   1   3     1.070001252242   109.47109385   295.57609862
 H      2   1   3     1.069995463635   109.47117180   175.57637373

---------------------------
INTERNAL COORDINATES (A.U.)
---------------------------
 C      0   0   0     0.000000000000     0.00000000     0.00000000
 C      1   0   0     2.889401510852     0.00000000     0.00000000
 N      1   2   0     2.732915169709   113.15647526     0.00000000
 H      1   2   3     2.060668169042   110.25141732   240.62087931
 H      1   2   3     2.069142695091   110.69312197   124.42402746
 C      3   1   2     2.486674622101   125.91025238    89.02804164
 N      6   3   1     2.508538284899   117.73705795   178.95874270
 N      6   3   1     2.564850443677   122.12206254   358.50918587
 H      8   6   3     1.909792758434   118.57313099    10.64293628
 H      8   6   3     1.910178211634   117.75308784   158.14426892
 H      3   1   2     1.913080385260   122.11879420   277.16183776
 H      7   6   3     1.912672825521   112.85787808     8.15033951
 H      7   6   3     1.912045492417   119.37039034   164.55796622
 H      2   1   3     2.021990036312   109.47111053    55.57571307
 H      2   1   3     2.022009329691   109.47109385   295.57609862
 H      2   1   3     2.021998390809   109.47117180   175.57637373

---------------------
BASIS SET INFORMATION
---------------------
There are 3 groups of distinct atoms

 Group   1 Type C   : 7s4p1d contracted to 3s2p1d pattern {511/31/1}
 Group   2 Type N   : 7s4p1d contracted to 3s2p1d pattern {511/31/1}
 Group   3 Type H   : 4s1p contracted to 2s1p pattern {31/1}

Atom   0C    basis set group =>   1
Atom   1C    basis set group =>   1
Atom   2N    basis set group =>   2
Atom   3H    basis set group =>   3
Atom   4H    basis set group =>   3
Atom   5C    basis set group =>   1
Atom   6N    basis set group =>   2
Atom   7N    basis set group =>   2
Atom   8H    basis set group =>   3
Atom   9H    basis set group =>   3
Atom  10H    basis set group =>   3
Atom  11H    basis set group =>   3
Atom  12H    basis set group =>   3
Atom  13H    basis set group =>   3
Atom  14H    basis set group =>   3
Atom  15H    basis set group =>   3
---------------------------------
AUXILIARY/J BASIS SET INFORMATION
---------------------------------
There are 3 groups of distinct atoms

 Group   1 Type C   : 12s5p4d2f1g contracted to 6s4p3d1f1g pattern {711111/2111/211/2/1}
 Group   2 Type N   : 12s5p4d2f1g contracted to 6s4p3d1f1g pattern {711111/2111/211/2/1}
 Group   3 Type H   : 5s2p1d contracted to 3s1p1d pattern {311/2/1}

Atom   0C    basis set group =>   1
Atom   1C    basis set group =>   1
Atom   2N    basis set group =>   2
Atom   3H    basis set group =>   3
Atom   4H    basis set group =>   3
Atom   5C    basis set group =>   1
Atom   6N    basis set group =>   2
Atom   7N    basis set group =>   2
Atom   8H    basis set group =>   3
Atom   9H    basis set group =>   3
Atom  10H    basis set group =>   3
Atom  11H    basis set group =>   3
Atom  12H    basis set group =>   3
Atom  13H    basis set group =>   3
Atom  14H    basis set group =>   3
Atom  15H    basis set group =>   3


           ************************************************************
           *        Program running with 4 parallel MPI-processes     *
           *              working on a common directory               *
           ************************************************************
------------------------------------------------------------------------------
                           ORCA GTO INTEGRAL CALCULATION
                           -- RI-GTO INTEGRALS CHOSEN --
------------------------------------------------------------------------------
------------------------------------------------------------------------------
                   ___                                                        
                  /   \      - P O W E R E D   B Y -                         
                 /     \                                                     
                 |  |  |   _    _      __       _____    __    __             
                 |  |  |  | |  | |    /  \     |  _  \  |  |  /  |          
                  \  \/   | |  | |   /    \    | | | |  |  | /  /          
                 / \  \   | |__| |  /  /\  \   | |_| |  |  |/  /          
                |  |  |   |  __  | /  /__\  \  |    /   |      \           
                |  |  |   | |  | | |   __   |  |    \   |  |\   \          
                \     /   | |  | | |  |  |  |  | |\  \  |  | \   \       
                 \___/    |_|  |_| |__|  |__|  |_| \__\ |__|  \__/        
                                                                              
                      - O R C A' S   B I G   F R I E N D -                    
                                      &                                       
                       - I N T E G R A L  F E E D E R -                       
                                                                              
 v1 FN, 2020, v2 2021                                                         
------------------------------------------------------------------------------


Reading SHARK input file SVP_wB97XD3_A_wt_dlpno_pos.SHARKINP.tmp ... ok
----------------------
SHARK INTEGRAL PACKAGE
----------------------

Number of atoms                             ...     16
Number of basis functions                   ...    134
Number of shells                            ...     66
Maximum angular momentum                    ...      2
Integral batch strategy                     ... SHARK/LIBINT Hybrid
RI-J (if used) integral strategy            ... SPLIT-RIJ (Revised 2003 algorithm where possible)
Printlevel                                  ...      1
Contraction scheme used                     ... SEGMENTED contraction
Coulomb Range Separation                    ... NOT USED
Exchange Range Separation                   ... Long Range
   Mu parameter                             ...  0.250000
   Scaling (regular/separated)              ...  0.195728  0.804272
Finite Nucleus Model                        ... NOT USED
Auxiliary Coulomb fitting basis             ... AVAILABLE
   # of basis functions in Aux-J            ...    404
   # of shells in Aux-J                     ...    140
   Maximum angular momentum in Aux-J        ...      4
Auxiliary J/K fitting basis                 ... NOT available
Auxiliary Correlation fitting basis         ... NOT available
Auxiliary 'external' fitting basis          ... NOT available
Integral threshold                          ...     2.500000e-11
Primitive cut-off                           ...     2.500000e-12
Primitive pair pre-selection threshold      ...     2.500000e-12

Calculating pre-screening integrals         ... done (  0.0 sec) Dimension = 66
Organizing shell pair data                  ... done (  0.0 sec)
Shell pair information
Total number of shell pairs                 ...      2211
Shell pairs after pre-screening             ...      2134
Total number of primitive shell pairs       ...      7611
Primitive shell pairs kept                  ...      5665
          la=0 lb=0:    717 shell pairs
          la=1 lb=0:    805 shell pairs
          la=1 lb=1:    241 shell pairs
          la=2 lb=0:    221 shell pairs
          la=2 lb=1:    129 shell pairs
          la=2 lb=2:     21 shell pairs

Calculating one electron integrals          ... done (  0.0 sec)
Calculating RI/J V-Matrix + Cholesky decomp.... done (  0.0 sec)
Calculating Nuclear repulsion               ... done (  0.0 sec) ENN=    259.312944387190 Eh

SHARK setup successfully completed in   0.2 seconds

Maximum memory used throughout the entire GTOINT-calculation: 8.9 MB


           ************************************************************
           *        Program running with 4 parallel MPI-processes     *
           *              working on a common directory               *
           ************************************************************
-------------------------------------------------------------------------------
                                 ORCA SCF
-------------------------------------------------------------------------------

------------
SCF SETTINGS
------------
Hamiltonian:
 Density Functional     Method          .... DFT(GTOs)
 Exchange Functional    Exchange        .... WB97X-D3
 Correlation Functional Correlation     .... WB97X-D3
 Gradients option       PostSCFGGA      .... off
 Hybrid DFT is turned on
   Fraction HF Exchange ScalHFX         ....  0.195728
   Scaling of DF-GGA-X  ScalDFX         ....  0.000000
   Scaling of DF-GGA-C  ScalDFC         ....  1.000000
   Scaling of DF-LDA-C  ScalLDAC        ....  1.000000
   Perturbative correction              ....  0.000000
   Density functional embedding theory  .... OFF
 Long-range corrected/Screened/Range-Separated Hybrid DFT is turned on
   Amount of maximum screened exact exchange              ....  0.804272
   Range separation parameter mu (erf(mu*r12)/r12)        ....  0.250000
 RI-approximation to the Coulomb term is turned on
   Number of AuxJ basis functions       .... 404
   RIJ-COSX (HFX calculated with COS-X)).... on


General Settings:
 Integral files         IntName         .... SVP_wB97XD3_A_wt_dlpno_pos
 Hartree-Fock type      HFTyp           .... RHF
 Total Charge           Charge          ....    1
 Multiplicity           Mult            ....    1
 Number of Electrons    NEL             ....   48
 Basis Dimension        Dim             ....  134
 Nuclear Repulsion      ENuc            ....    259.3129443872 Eh

Convergence Acceleration:
 DIIS                   CNVDIIS         .... on
   Start iteration      DIISMaxIt       ....    12
   Startup error        DIISStart       ....  0.200000
   # of expansion vecs  DIISMaxEq       ....     5
   Bias factor          DIISBfac        ....   1.050
   Max. coefficient     DIISMaxC        ....  10.000
 Trust-Rad. Augm. Hess. CNVTRAH         .... auto
   Auto Start mean grad. ratio tolernc. ....  1.125000
   Auto Start start iteration           ....    20
   Auto Start num. interpolation iter.  ....    10
   Max. Number of Micro iterations      ....    16
   Max. Number of Macro iterations      .... Maxiter - #DIIS iter
   Number of Davidson start vectors     ....     2
   Converg. threshold I  (grad. norm)   ....   1.000e-05
   Converg. threshold II (energy diff.) ....   1.000e-08
   Grad. Scal. Fac. for Micro threshold ....   0.100
   Minimum threshold for Micro iter.    ....   0.010
   NR start threshold (gradient norm)   ....   0.001
   Initial trust radius                 ....   0.400
   Minimum AH scaling param. (alpha)    ....   1.000
   Maximum AH scaling param. (alpha)    .... 1000.000
   Orbital update algorithm             .... Taylor
   White noise on init. David. guess    .... on
   Maximum white noise                  ....   0.010
   Quad. conv. algorithm                .... NR
 SOSCF                  CNVSOSCF        .... on
   Start iteration      SOSCFMaxIt      ....   150
   Startup grad/error   SOSCFStart      ....  0.003300
 Level Shifting         CNVShift        .... on
   Level shift para.    LevelShift      ....    0.2500
   Turn off err/grad.   ShiftErr        ....    0.0010
 Zerner damping         CNVZerner       .... off
 Static damping         CNVDamp         .... on
   Fraction old density DampFac         ....    0.7000
   Max. Damping (<1)    DampMax         ....    0.9800
   Min. Damping (>=0)   DampMin         ....    0.0000
   Turn off err/grad.   DampErr         ....    0.1000
 Fernandez-Rico         CNVRico         .... off

SCF Procedure:
 Maximum # iterations   MaxIter         ....   150
 SCF integral mode      SCFMode         .... Direct
   Integral package                     .... SHARK and LIBINT hybrid scheme
 Reset frequency        DirectResetFreq ....    20
 Integral Threshold     Thresh          ....  2.500e-11 Eh
 Primitive CutOff       TCut            ....  2.500e-12 Eh

Convergence Tolerance:
 Convergence Check Mode ConvCheckMode   .... Total+1el-Energy
 Convergence forced     ConvForced      .... 0
 Energy Change          TolE            ....  1.000e-08 Eh
 1-El. energy change                    ....  1.000e-05 Eh
 Orbital Gradient       TolG            ....  1.000e-05
 Orbital Rotation angle TolX            ....  1.000e-05
 DIIS Error             TolErr          ....  5.000e-07


Diagonalization of the overlap matrix:
Smallest eigenvalue                        ... 2.612e-03
Time for diagonalization                   ...    0.006 sec
Threshold for overlap eigenvalues          ... 1.000e-08
Number of eigenvalues below threshold      ... 0
Time for construction of square roots      ...    0.005 sec
Total time needed                          ...    0.011 sec

Time for model grid setup =    0.124 sec

------------------------------
INITIAL GUESS: MODEL POTENTIAL
------------------------------
Loading Hartree-Fock densities                     ... done
Calculating cut-offs                               ... done
Initializing the effective Hamiltonian             ... done
Setting up the integral package (SHARK)            ... done
Starting the Coulomb interaction                   ... done (   0.1 sec)
Reading the grid                                   ... done
Mapping shells                                     ... done
Starting the XC term evaluation                    ... done (   0.1 sec)
  promolecular density results
     # of electrons  =     48.992213782
     EX              =    -38.011151999
     EC              =     -1.619307318
     EX+EC           =    -39.630459317
Transforming the Hamiltonian                       ... done (   0.0 sec)
Diagonalizing the Hamiltonian                      ... done (   0.0 sec)
Back transforming the eigenvectors                 ... done (   0.0 sec)
Now organizing SCF variables                       ... done
                      ------------------
                      INITIAL GUESS DONE (   0.3 sec)
                      ------------------
-------------------
DFT GRID GENERATION
-------------------

General Integration Accuracy     IntAcc      ... 4.388
Radial Grid Type                 RadialGrid  ... OptM3 with GC (2021)
Angular Grid (max. ang.)         AngularGrid ... 4 (Lebedev-302)
Angular grid pruning method      GridPruning ... 4 (adaptive)
Weight generation scheme         WeightScheme... Becke
Basis function cutoff            BFCut       ... 1.0000e-11
Integration weight cutoff        WCut        ... 1.0000e-14
Angular grids for H and He will be reduced by one unit
Partially contracted basis set               ... off
Rotationally invariant grid construction     ... off

Total number of grid points                  ...    68479
Total number of batches                      ...     1078
Average number of points per batch           ...       63
Average number of grid points per atom       ...     4280
Time for grid setup =    0.555 sec

--------------------
COSX GRID GENERATION
--------------------

GRIDX 1
-------
General Integration Accuracy     IntAcc      ... 3.816
Radial Grid Type                 RadialGrid  ... OptM3 with GC (2021)
Angular Grid (max. ang.)         AngularGrid ... 1 (Lebedev-50)
Angular grid pruning method      GridPruning ... 4 (adaptive)
Weight generation scheme         WeightScheme... Becke
Basis function cutoff            BFCut       ... 1.0000e-11
Integration weight cutoff        WCut        ... 1.0000e-14
Angular grids for H and He will be reduced by one unit
Partially contracted basis set               ... on
Rotationally invariant grid construction     ... off

Total number of grid points                  ...     8810
Total number of batches                      ...      148
Average number of points per batch           ...       59
Average number of grid points per atom       ...      551
UseSFitting                                  ... on

GRIDX 2
-------
General Integration Accuracy     IntAcc      ... 4.020
Radial Grid Type                 RadialGrid  ... OptM3 with GC (2021)
Angular Grid (max. ang.)         AngularGrid ... 2 (Lebedev-110)
Angular grid pruning method      GridPruning ... 4 (adaptive)
Weight generation scheme         WeightScheme... Becke
Basis function cutoff            BFCut       ... 1.0000e-11
Integration weight cutoff        WCut        ... 1.0000e-14
Angular grids for H and He will be reduced by one unit
Partially contracted basis set               ... on
Rotationally invariant grid construction     ... off

Total number of grid points                  ...    18498
Total number of batches                      ...      299
Average number of points per batch           ...       61
Average number of grid points per atom       ...     1156
UseSFitting                                  ... on

GRIDX 3
-------
General Integration Accuracy     IntAcc      ... 4.338
Radial Grid Type                 RadialGrid  ... OptM3 with GC (2021)
Angular Grid (max. ang.)         AngularGrid ... 3 (Lebedev-194)
Angular grid pruning method      GridPruning ... 4 (adaptive)
Weight generation scheme         WeightScheme... Becke
Basis function cutoff            BFCut       ... 1.0000e-11
Integration weight cutoff        WCut        ... 1.0000e-14
Angular grids for H and He will be reduced by one unit
Partially contracted basis set               ... on
Rotationally invariant grid construction     ... off

Total number of grid points                  ...    40473
Total number of batches                      ...      642
Average number of points per batch           ...       63
Average number of grid points per atom       ...     2530
UseSFitting                                  ... on

Time for X-Grid setup             =    0.493 sec

--------------
SCF ITERATIONS
--------------
ITER       Energy         Delta-E        Max-DP      RMS-DP      [F,P]     Damp
               ***  Starting incremental Fock matrix formation  ***
  0   -283.9381467666   0.000000000000 0.06880340  0.00203374  0.1805384 0.7000
  1   -284.0106859886  -0.072539222028 0.04660365  0.00138750  0.0997990 0.7000
                               ***Turning on DIIS***
  2   -284.0464333260  -0.035747337411 0.08288462  0.00256855  0.0486228 0.0000
  3   -284.1028445413  -0.056411215268 0.03152931  0.00093466  0.0412009 0.0000
  4   -284.1119310651  -0.009086523766 0.00571056  0.00015458  0.0064712 0.0000
                      *** Initiating the SOSCF procedure ***
                           *** Shutting down DIIS ***
                      *** Re-Reading the Fockian *** 
                      *** Removing any level shift *** 
ITER      Energy       Delta-E        Grad      Rot      Max-DP    RMS-DP
  5   -284.11209656  -0.0001654944  0.000815  0.000815  0.001258  0.000060
               *** Restarting incremental Fock matrix formation ***
  6   -284.11203726   0.0000593000  0.000259  0.000446  0.000996  0.000039
  7   -284.11203937  -0.0000021060  0.000093  0.000267  0.000489  0.000020
  8   -284.11203970  -0.0000003334  0.000021  0.000037  0.000082  0.000004
  9   -284.11203973  -0.0000000328  0.000013  0.000020  0.000034  0.000001
 10   -284.11203974  -0.0000000043  0.000004  0.000006  0.000015  0.000001
                  ***Gradient check signals convergence***
              ***Rediagonalizing the Fockian in SOSCF/NRSCF***

               *****************************************************
               *                     SUCCESS                       *
               *           SCF CONVERGED AFTER  11 CYCLES          *
               *****************************************************

Old exchange energy                            =    -12.738414545 Eh
New exchange energy                            =    -12.738432870 Eh
Exchange energy change after final integration =     -0.000018325 Eh
Total energy after final integration           =   -284.112058062 Eh
Final COS-X integration done in                =     3.208 sec

----------------
TOTAL SCF ENERGY
----------------

Total Energy       :         -284.11205806 Eh           -7731.08214 eV

Components:
Nuclear Repulsion  :          259.31294439 Eh            7056.26395 eV
Electronic Energy  :         -543.42500245 Eh          -14787.34609 eV
One Electron Energy:         -886.87602170 Eh          -24133.12345 eV
Two Electron Energy:          343.45101925 Eh            9345.77736 eV
Max COSX asymmetry :            0.00000285 Eh               0.00008 eV

Virial components:
Potential Energy   :         -565.24192999 Eh          -15381.01487 eV
Kinetic Energy     :          281.12987193 Eh            7649.93273 eV
Virial Ratio       :            2.01060786


DFT components:
N(Alpha)           :       24.000042845495 electrons
N(Beta)            :       24.000042845495 electrons
N(Total)           :       48.000085690989 electrons
E(XC)              :      -27.747778837441 Eh       
DFET-embed. en.    :        0.000000000000 Eh       

---------------
SCF CONVERGENCE
---------------

  Last Energy change         ...   -5.7054e-10  Tolerance :   1.0000e-08
  Last MAX-Density change    ...    3.1086e-15  Tolerance :   1.0000e-07
  Last RMS-Density change    ...    5.5895e-17  Tolerance :   5.0000e-09
  Last Orbital Gradient      ...    1.2291e-06  Tolerance :   1.0000e-05
  Last Orbital Rotation      ...    3.1549e-06  Tolerance :   1.0000e-05

             **** THE GBW FILE WAS UPDATED (SVP_wB97XD3_A_wt_dlpno_pos.gbw) ****
             **** DENSITY SVP_wB97XD3_A_wt_dlpno_pos.scfp WAS UPDATED ****
             **** ENERGY FILE WAS UPDATED (SVP_wB97XD3_A_wt_dlpno_pos.en.tmp) ****
             **** THE GBW FILE WAS UPDATED (SVP_wB97XD3_A_wt_dlpno_pos.gbw) ****
             **** DENSITY SVP_wB97XD3_A_wt_dlpno_pos.scfp WAS UPDATED ****
----------------
ORBITAL ENERGIES
----------------

  NO   OCC          E(Eh)            E(eV) 
   0   2.0000     -14.664443      -399.0398 
   1   2.0000     -14.660459      -398.9314 
   2   2.0000     -14.657578      -398.8530 
   3   2.0000     -10.626458      -289.1606 
   4   2.0000     -10.499034      -285.6932 
   5   2.0000     -10.424633      -283.6687 
   6   2.0000      -1.331982       -36.2451 
   7   2.0000      -1.216240       -33.0956 
   8   2.0000      -1.201432       -32.6926 
   9   2.0000      -1.043120       -28.3847 
  10   2.0000      -0.943705       -25.6795 
  11   2.0000      -0.913731       -24.8639 
  12   2.0000      -0.885776       -24.1032 
  13   2.0000      -0.850768       -23.1506 
  14   2.0000      -0.793344       -21.5880 
  15   2.0000      -0.783223       -21.3126 
  16   2.0000      -0.755221       -20.5506 
  17   2.0000      -0.743490       -20.2314 
  18   2.0000      -0.702080       -19.1046 
  19   2.0000      -0.659675       -17.9507 
  20   2.0000      -0.627968       -17.0879 
  21   2.0000      -0.607334       -16.5264 
  22   2.0000      -0.572686       -15.5836 
  23   2.0000      -0.544006       -14.8032 
  24   0.0000      -0.078441        -2.1345 
  25   0.0000      -0.053617        -1.4590 
  26   0.0000      -0.021500        -0.5850 
  27   0.0000      -0.002933        -0.0798 
  28   0.0000       0.020844         0.5672 
  29   0.0000       0.041893         1.1400 
  30   0.0000       0.060131         1.6363 
  31   0.0000       0.078555         2.1376 
  32   0.0000       0.085955         2.3389 
  33   0.0000       0.098375         2.6769 
  34   0.0000       0.114113         3.1052 
  35   0.0000       0.127105         3.4587 
  36   0.0000       0.143351         3.9008 
  37   0.0000       0.177872         4.8402 
  38   0.0000       0.252478         6.8703 
  39   0.0000       0.263403         7.1675 
  40   0.0000       0.278629         7.5819 
  41   0.0000       0.362301         9.8587 
  42   0.0000       0.368600        10.0301 
  43   0.0000       0.377581        10.2745 
  44   0.0000       0.387686        10.5495 
  45   0.0000       0.408978        11.1288 
  46   0.0000       0.439534        11.9603 
  47   0.0000       0.446863        12.1598 
  48   0.0000       0.483162        13.1475 
  49   0.0000       0.490622        13.3505 
  50   0.0000       0.551379        15.0038 
  51   0.0000       0.580735        15.8026 
  52   0.0000       0.594770        16.1845 
  53   0.0000       0.621188        16.9034 
  54   0.0000       0.623942        16.9783 
  55   0.0000       0.627389        17.0721 
  56   0.0000       0.645084        17.5536 
  57   0.0000       0.650198        17.6928 
  58   0.0000       0.656120        17.8539 
  59   0.0000       0.674157        18.3447 
  60   0.0000       0.685676        18.6582 
  61   0.0000       0.706826        19.2337 
  62   0.0000       0.738576        20.0977 
  63   0.0000       0.758110        20.6292 
  64   0.0000       0.778922        21.1956 
  65   0.0000       0.817851        22.2549 
  66   0.0000       0.837230        22.7822 
  67   0.0000       0.901516        24.5315 
  68   0.0000       0.931242        25.3404 
  69   0.0000       0.966318        26.2948 
  70   0.0000       1.014924        27.6175 
  71   0.0000       1.042066        28.3560 
  72   0.0000       1.075609        29.2688 
  73   0.0000       1.112868        30.2827 
  74   0.0000       1.191490        32.4221 
  75   0.0000       1.212760        33.0009 
  76   0.0000       1.232126        33.5278 
  77   0.0000       1.258288        34.2398 
  78   0.0000       1.325581        36.0709 
  79   0.0000       1.366819        37.1930 
  80   0.0000       1.381670        37.5971 
  81   0.0000       1.456640        39.6372 
  82   0.0000       1.511347        41.1258 
  83   0.0000       1.536487        41.8099 
  84   0.0000       1.607904        43.7533 
  85   0.0000       1.639622        44.6164 
  86   0.0000       1.683885        45.8208 
  87   0.0000       1.692301        46.0499 
  88   0.0000       1.695919        46.1483 
  89   0.0000       1.731214        47.1087 
  90   0.0000       1.746232        47.5174 
  91   0.0000       1.759051        47.8662 
  92   0.0000       1.767818        48.1048 
  93   0.0000       1.778510        48.3957 
  94   0.0000       1.789826        48.7036 
  95   0.0000       1.806465        49.1564 
  96   0.0000       1.819799        49.5193 
  97   0.0000       1.848456        50.2991 
  98   0.0000       1.871528        50.9269 
  99   0.0000       1.894351        51.5479 
 100   0.0000       1.924704        52.3738 
 101   0.0000       1.942388        52.8551 
 102   0.0000       2.027430        55.1692 
 103   0.0000       2.044419        55.6315 
 104   0.0000       2.077220        56.5240 
 105   0.0000       2.132447        58.0268 
 106   0.0000       2.162930        58.8563 
 107   0.0000       2.233951        60.7889 
 108   0.0000       2.262172        61.5568 
 109   0.0000       2.273374        61.8617 
 110   0.0000       2.299300        62.5671 
 111   0.0000       2.362069        64.2752 
 112   0.0000       2.402208        65.3674 
 113   0.0000       2.467897        67.1549 
 114   0.0000       2.506516        68.2058 
 115   0.0000       2.524820        68.7038 
 116   0.0000       2.547719        69.3270 
 117   0.0000       2.581719        70.2521 
 118   0.0000       2.680128        72.9300 
 119   0.0000       2.694760        73.3281 
 120   0.0000       2.762359        75.1676 
 121   0.0000       2.818952        76.7076 
 122   0.0000       2.860675        77.8429 
 123   0.0000       2.883538        78.4651 
 124   0.0000       2.887666        78.5774 
 125   0.0000       2.911827        79.2348 
 126   0.0000       2.972859        80.8956 
 127   0.0000       3.004748        81.7634 
 128   0.0000       3.029572        82.4388 
 129   0.0000       3.082299        83.8736 
 130   0.0000       3.157685        85.9250 
 131   0.0000       3.201728        87.1235 
 132   0.0000       3.489551        94.9555 
 133   0.0000       3.541077        96.3576 

                    ********************************
                    * MULLIKEN POPULATION ANALYSIS *
                    ********************************

-----------------------
MULLIKEN ATOMIC CHARGES
-----------------------
   0 C :   -0.018366
   1 C :   -0.021437
   2 N :   -0.147176
   3 H :    0.092314
   4 H :    0.070638
   5 C :    0.089436
   6 N :   -0.058148
   7 N :   -0.095758
   8 H :    0.175096
   9 H :    0.184610
  10 H :    0.172645
  11 H :    0.176413
  12 H :    0.192049
  13 H :    0.060036
  14 H :    0.043930
  15 H :    0.083717
Sum of atomic charges:    1.0000000

--------------------------------
MULLIKEN REDUCED ORBITAL CHARGES
--------------------------------
  0 C s       :     3.065289  s :     3.065289
      pz      :     1.018022  p :     2.903540
      px      :     1.025098
      py      :     0.860419
      dz2     :     0.009016  d :     0.049537
      dxz     :     0.010722
      dyz     :     0.009702
      dx2y2   :     0.006779
      dxy     :     0.013318
  1 C s       :     3.004116  s :     3.004116
      pz      :     0.940836  p :     2.990085
      px      :     0.997027
      py      :     1.052222
      dz2     :     0.005168  d :     0.027235
      dxz     :     0.007619
      dyz     :     0.004430
      dx2y2   :     0.002641
      dxy     :     0.007377
  2 N s       :     3.324184  s :     3.324184
      pz      :     1.353439  p :     3.800599
      px      :     1.208512
      py      :     1.238647
      dz2     :     0.003972  d :     0.022393
      dxz     :     0.002841
      dyz     :     0.005579
      dx2y2   :     0.004220
      dxy     :     0.005780
  3 H s       :     0.885447  s :     0.885447
      pz      :     0.004615  p :     0.022239
      px      :     0.009047
      py      :     0.008578
  4 H s       :     0.906890  s :     0.906890
      pz      :     0.008728  p :     0.022472
      px      :     0.007475
      py      :     0.006269
  5 C s       :     3.015294  s :     3.015294
      pz      :     0.912140  p :     2.782651
      px      :     0.950614
      py      :     0.919896
      dz2     :     0.023908  d :     0.112619
      dxz     :     0.021646
      dyz     :     0.016459
      dx2y2   :     0.024865
      dxy     :     0.025742
  6 N s       :     3.289283  s :     3.289283
      pz      :     1.434371  p :     3.753561
      px      :     1.151236
      py      :     1.167954
      dz2     :     0.001493  d :     0.015303
      dxz     :     0.004253
      dyz     :     0.002178
      dx2y2   :     0.002784
      dxy     :     0.004595
  7 N s       :     3.309451  s :     3.309451
      pz      :     1.293855  p :     3.771636
      px      :     1.186041
      py      :     1.291739
      dz2     :     0.003771  d :     0.014670
      dxz     :     0.002549
      dyz     :     0.001237
      dx2y2   :     0.004601
      dxy     :     0.002513
  8 H s       :     0.778208  s :     0.778208
      pz      :     0.010094  p :     0.046697
      px      :     0.013902
      py      :     0.022701
  9 H s       :     0.769595  s :     0.769595
      pz      :     0.023099  p :     0.045795
      px      :     0.009154
      py      :     0.013542
 10 H s       :     0.782894  s :     0.782894
      pz      :     0.012573  p :     0.044461
      px      :     0.022741
      py      :     0.009147
 11 H s       :     0.777459  s :     0.777459
      pz      :     0.015141  p :     0.046128
      px      :     0.022657
      py      :     0.008331
 12 H s       :     0.762481  s :     0.762481
      pz      :     0.015357  p :     0.045470
      px      :     0.010179
      py      :     0.019934
 13 H s       :     0.914987  s :     0.914987
      pz      :     0.010119  p :     0.024978
      px      :     0.007933
      py      :     0.006925
 14 H s       :     0.930919  s :     0.930919
      pz      :     0.005132  p :     0.025151
      px      :     0.010832
      py      :     0.009188
 15 H s       :     0.891053  s :     0.891053
      pz      :     0.006039  p :     0.025230
      px      :     0.006498
      py      :     0.012693


                     *******************************
                     * LOEWDIN POPULATION ANALYSIS *
                     *******************************

----------------------
LOEWDIN ATOMIC CHARGES
----------------------
   0 C :    0.035156
   1 C :   -0.049160
   2 N :    0.032984
   3 H :    0.052527
   4 H :    0.035986
   5 C :    0.160266
   6 N :    0.041984
   7 N :    0.024506
   8 H :    0.105038
   9 H :    0.112570
  10 H :    0.106491
  11 H :    0.109324
  12 H :    0.116863
  13 H :    0.036834
  14 H :    0.028722
  15 H :    0.049909

-------------------------------
LOEWDIN REDUCED ORBITAL CHARGES
-------------------------------
  0 C s       :     2.827175  s :     2.827175
      pz      :     1.048960  p :     3.021124
      px      :     1.048822
      py      :     0.923342
      dz2     :     0.019773  d :     0.116545
      dxz     :     0.027941
      dyz     :     0.021850
      dx2y2   :     0.014696
      dxy     :     0.032285
  1 C s       :     2.821156  s :     2.821156
      pz      :     1.021290  p :     3.156090
      px      :     1.051613
      py      :     1.083186
      dz2     :     0.013119  d :     0.071914
      dxz     :     0.021587
      dyz     :     0.011480
      dx2y2   :     0.006558
      dxy     :     0.019169
  2 N s       :     3.026817  s :     3.026817
      pz      :     1.354912  p :     3.883913
      px      :     1.252912
      py      :     1.276089
      dz2     :     0.008065  d :     0.056286
      dxz     :     0.008446
      dyz     :     0.014019
      dx2y2   :     0.011868
      dxy     :     0.013888
  3 H s       :     0.880060  s :     0.880060
      pz      :     0.014872  p :     0.067413
      px      :     0.026987
      py      :     0.025554
  4 H s       :     0.897021  s :     0.897021
      pz      :     0.027177  p :     0.066993
      px      :     0.021903
      py      :     0.017913
  5 C s       :     2.797388  s :     2.797388
      pz      :     0.902415  p :     2.799809
      px      :     0.958314
      py      :     0.939080
      dz2     :     0.048012  d :     0.242536
      dxz     :     0.045579
      dyz     :     0.036922
      dx2y2   :     0.054816
      dxy     :     0.057207
  6 N s       :     3.016534  s :     3.016534
      pz      :     1.440653  p :     3.899428
      px      :     1.228240
      py      :     1.230535
      dz2     :     0.003023  d :     0.042054
      dxz     :     0.009597
      dyz     :     0.006332
      dx2y2   :     0.009386
      dxy     :     0.013716
  7 N s       :     3.029076  s :     3.029076
      pz      :     1.326017  p :     3.906652
      px      :     1.244017
      py      :     1.336618
      dz2     :     0.009839  d :     0.039766
      dxz     :     0.006848
      dyz     :     0.004016
      dx2y2   :     0.011737
      dxy     :     0.007327
  8 H s       :     0.768372  s :     0.768372
      pz      :     0.026590  p :     0.126590
      px      :     0.036639
      py      :     0.063362
  9 H s       :     0.763481  s :     0.763481
      pz      :     0.064254  p :     0.123949
      px      :     0.023803
      py      :     0.035892
 10 H s       :     0.769017  s :     0.769017
      pz      :     0.035630  p :     0.124493
      px      :     0.061488
      py      :     0.027374
 11 H s       :     0.767006  s :     0.767006
      pz      :     0.045073  p :     0.123669
      px      :     0.058717
      py      :     0.019879
 12 H s       :     0.758869  s :     0.758869
      pz      :     0.043925  p :     0.124268
      px      :     0.027503
      py      :     0.052840
 13 H s       :     0.892431  s :     0.892431
      pz      :     0.029321  p :     0.070735
      px      :     0.022303
      py      :     0.019110
 14 H s       :     0.900545  s :     0.900545
      pz      :     0.015316  p :     0.070733
      px      :     0.030288
      py      :     0.025129
 15 H s       :     0.879152  s :     0.879152
      pz      :     0.017574  p :     0.070939
      px      :     0.018303
      py      :     0.035061


                      *****************************
                      * MAYER POPULATION ANALYSIS *
                      *****************************

  NA   - Mulliken gross atomic population
  ZA   - Total nuclear charge
  QA   - Mulliken gross atomic charge
  VA   - Mayer's total valence
  BVA  - Mayer's bonded valence
  FA   - Mayer's free valence

  ATOM       NA         ZA         QA         VA         BVA        FA
  0 C      6.0184     6.0000    -0.0184     3.9785     3.9785     0.0000
  1 C      6.0214     6.0000    -0.0214     3.9757     3.9757    -0.0000
  2 N      7.1472     7.0000    -0.1472     3.2729     3.2729    -0.0000
  3 H      0.9077     1.0000     0.0923     0.9801     0.9801     0.0000
  4 H      0.9294     1.0000     0.0706     0.9863     0.9863     0.0000
  5 C      5.9106     6.0000     0.0894     4.4254     4.4254    -0.0000
  6 N      7.0581     7.0000    -0.0581     3.2980     3.2980    -0.0000
  7 N      7.0958     7.0000    -0.0958     3.3024     3.3024     0.0000
  8 H      0.8249     1.0000     0.1751     0.9997     0.9997     0.0000
  9 H      0.8154     1.0000     0.1846     0.9849     0.9849     0.0000
 10 H      0.8274     1.0000     0.1726     0.9828     0.9828    -0.0000
 11 H      0.8236     1.0000     0.1764     0.9915     0.9915     0.0000
 12 H      0.8080     1.0000     0.1920     0.9821     0.9821     0.0000
 13 H      0.9400     1.0000     0.0600     0.9968     0.9968    -0.0000
 14 H      0.9561     1.0000     0.0439     0.9998     0.9998    -0.0000
 15 H      0.9163     1.0000     0.0837     0.9931     0.9931    -0.0000

  Mayer bond orders larger than 0.100000
B(  0-C ,  1-C ) :   1.0776 B(  0-C ,  2-N ) :   0.9103 B(  0-C ,  3-H ) :   0.9501 
B(  0-C ,  4-H ) :   0.9572 B(  1-C , 13-H ) :   0.9710 B(  1-C , 14-H ) :   0.9709 
B(  1-C , 15-H ) :   0.9682 B(  2-N ,  5-C ) :   1.3955 B(  2-N , 10-H ) :   0.9069 
B(  5-C ,  6-N ) :   1.3943 B(  5-C ,  7-N ) :   1.3708 B(  6-N , 11-H ) :   0.9214 
B(  6-N , 12-H ) :   0.9235 B(  7-N ,  8-H ) :   0.9250 B(  7-N ,  9-H ) :   0.9265 


-------
TIMINGS
-------

Total SCF time: 0 days 0 hours 0 min 21 sec 

Total time                  ....      21.198 sec
Sum of individual times     ....      21.034 sec  ( 99.2%)

Fock matrix formation       ....      19.626 sec  ( 92.6%)
  Split-RI-J                ....       0.930 sec  (  4.7% of F)
  Chain of spheres X        ....      16.489 sec  ( 84.0% of F)
  XC integration            ....       2.181 sec  ( 11.1% of F)
    Basis function eval.    ....       0.868 sec  ( 39.8% of XC)
    Density eval.           ....       0.427 sec  ( 19.6% of XC)
    XC-Functional eval.     ....       0.343 sec  ( 15.7% of XC)
    XC-Potential eval.      ....       0.410 sec  ( 18.8% of XC)
Diagonalization             ....       0.031 sec  (  0.1%)
Density matrix formation    ....       0.003 sec  (  0.0%)
Population analysis         ....       0.005 sec  (  0.0%)
Initial guess               ....       0.158 sec  (  0.7%)
Orbital Transformation      ....       0.000 sec  (  0.0%)
Orbital Orthonormalization  ....       0.000 sec  (  0.0%)
DIIS solution               ....       0.019 sec  (  0.1%)
SOSCF solution              ....       0.021 sec  (  0.1%)
Grid generation             ....       1.172 sec  (  5.5%)

Maximum memory used throughout the entire SCF-calculation: 50.5 MB


-------------------------------------------------------------------------------
                          DFT DISPERSION CORRECTION                            
                                                                               
                              DFTD3 V3.1  Rev 1                                
                              USING zero damping                               
-------------------------------------------------------------------------------
The omegaB97X-D3 functional is recognized. Fit by Chai et al.
Active option DFTDOPT                   ...         3   

molecular C6(AA) [au] = 1840.974646 


            DFT-D V3
 parameters
 s6 scaling factor         :     1.0000 
 rs6 scaling factor        :     1.2810 
 s8 scaling factor         :     1.0000 
 rs8 scaling factor        :     1.0940 
 Damping factor alpha6     :    14.0000 
 Damping factor alpha8     :    16.0000 
 ad hoc parameters k1-k3   :    16.0000     1.3333    -4.0000 

 Edisp/kcal,au: -2.375508954701  -0.003785614082 
 E6   /kcal   :  -0.995367814 
 E8   /kcal   :  -1.380141141 
 % E8         :  58.098755561 

-------------------------   ----------------
Dispersion correction           -0.003785614
-------------------------   ----------------


-------------------------   --------------------
FINAL SINGLE POINT ENERGY      -284.115843676218
-------------------------   --------------------


                            ***************************************
                            *     ORCA property calculations      *
                            ***************************************

                                    ---------------------
                                    Active property flags
                                    ---------------------
   (+) Dipole Moment


------------------------------------------------------------------------------
                       ORCA ELECTRIC PROPERTIES CALCULATION
------------------------------------------------------------------------------

Dipole Moment Calculation                       ... on
Quadrupole Moment Calculation                   ... off
Polarizability Calculation                      ... off
GBWName                                         ... SVP_wB97XD3_A_wt_dlpno_pos.gbw
Electron density file                           ... SVP_wB97XD3_A_wt_dlpno_pos.scfp
The origin for moment calculation is the CENTER OF MASS  = ( 6.620624,  0.350192 -1.489327)

-------------
DIPOLE MOMENT
-------------
                                X             Y             Z
Electronic contribution:     -1.94925      -3.06355       3.79816
Nuclear contribution   :      1.59382       2.33278      -3.02574
                        -----------------------------------------
Total Dipole Moment    :     -0.35543      -0.73077       0.77242
                        -----------------------------------------
Magnitude (a.u.)       :      1.12116
Magnitude (Debye)      :      2.84976



--------------------
Rotational spectrum 
--------------------
 
Rotational constants in cm-1:     0.232230     0.073139     0.063030 
Rotational constants in MHz :  6962.079716  2192.649203  1889.578947 

 Dipole components along the rotational axes: 
x,y,z [a.u.] :     1.116502     0.092868    -0.042347 
x,y,z [Debye]:     2.837923     0.236051    -0.107637 

 

Timings for individual modules:

Sum of individual times         ...       25.739 sec (=   0.429 min)
GTO integral calculation        ...        2.512 sec (=   0.042 min)   9.8 %
SCF iterations                  ...       23.227 sec (=   0.387 min)  90.2 %
                             ****ORCA TERMINATED NORMALLY****
TOTAL RUN TIME: 0 days 0 hours 0 minutes 26 seconds 232 msec
