
                                        *****************
                                        * O   R   C   A *
                                        *****************

                                            #,                                       
                                            ###                                      
                                            ####                                     
                                            #####                                    
                                            ######                                   
                                           ########,                                 
                                     ,,################,,,,,                         
                               ,,#################################,,                 
                          ,,##########################################,,             
                       ,#########################################, ''#####,          
                    ,#############################################,,   '####,        
                  ,##################################################,,,,####,       
                ,###########''''           ''''###############################       
              ,#####''   ,,,,##########,,,,          '''####'''          '####       
            ,##' ,,,,###########################,,,                        '##       
           ' ,,###''''                  '''############,,,                           
         ,,##''                                '''############,,,,        ,,,,,,###''
      ,#''                                            '''#######################'''  
     '                                                          ''''####''''         
             ,#######,   #######,   ,#######,      ##                                
            ,#'     '#,  ##    ##  ,#'     '#,    #''#        ######   ,####,        
            ##       ##  ##   ,#'  ##            #'  '#       #        #'  '#        
            ##       ##  #######   ##           ,######,      #####,   #    #        
            '#,     ,#'  ##    ##  '#,     ,#' ,#      #,         ##   #,  ,#        
             '#######'   ##     ##  '#######'  #'      '#     #####' # '####'        



                  #######################################################
                  #                        -***-                        #
                  #          Department of theory and spectroscopy      #
                  #    Directorship and core code : Frank Neese         #
                  #        Max Planck Institute fuer Kohlenforschung    #
                  #                Kaiser Wilhelm Platz 1               #
                  #                 D-45470 Muelheim/Ruhr               #
                  #                      Germany                        #
                  #                                                     #
                  #                  All rights reserved                #
                  #                        -***-                        #
                  #######################################################


                         Program Version 5.0.0 -  RELEASE  -
                                (SVN: $Rev: 19529$)
                ($Date: 2021-06-28 11:36:33 +0200 (Mo, 28 Jun 2021) $)


 With contributions from (in alphabetic order):
   Daniel Aravena         : Magnetic Suceptibility
   Michael Atanasov       : Ab Initio Ligand Field Theory (pilot matlab implementation)
   Alexander A. Auer      : GIAO ZORA, VPT2 properties, NMR spectrum
   Ute Becker             : Parallelization
   Giovanni Bistoni       : ED, misc. LED, open-shell LED, HFLD
   Martin Brehm           : Molecular dynamics
   Dmytro Bykov           : SCF Hessian
   Vijay G. Chilkuri      : MRCI spin determinant printing, contributions to CSF-ICE
   Dipayan Datta          : RHF DLPNO-CCSD density
   Achintya Kumar Dutta   : EOM-CC, STEOM-CC
   Dmitry Ganyushin       : Spin-Orbit,Spin-Spin,Magnetic field MRCI
   Miquel Garcia          : C-PCM Hessian, Gaussian charge scheme
   Yang Guo               : DLPNO-NEVPT2, F12-NEVPT2, CIM, IAO-localization
   Andreas Hansen         : Spin unrestricted coupled pair/coupled cluster methods
   Benjamin Helmich-Paris : MC-RPA, TRAH-SCF, COSX integrals
   Lee Huntington         : MR-EOM, pCC
   Robert Izsak           : Overlap fitted RIJCOSX, COSX-SCS-MP3, EOM
   Marcus Kettner         : VPT2
   Christian Kollmar      : KDIIS, OOCD, Brueckner-CCSD(T), CCSD density, CASPT2, CASPT2-K
   Simone Kossmann        : Meta GGA functionals, TD-DFT gradient, OOMP2, MP2 Hessian
   Martin Krupicka        : Initial AUTO-CI
   Lucas Lang             : DCDCAS
   Marvin Lechner         : AUTO-CI (C++ implementation), FIC-MRCC
   Dagmar Lenk            : GEPOL surface, SMD
   Dimitrios Liakos       : Extrapolation schemes; Compound Job, initial MDCI parallelization
   Dimitrios Manganas     : Further ROCIS development; embedding schemes
   Dimitrios Pantazis     : SARC Basis sets
   Anastasios Papadopoulos: AUTO-CI, single reference methods and gradients
   Taras Petrenko         : DFT Hessian,TD-DFT gradient, ASA, ECA, R-Raman, ABS, FL, XAS/XES, NRVS
   Peter Pinski           : DLPNO-MP2, DLPNO-MP2 Gradient
   Christoph Reimann      : Effective Core Potentials
   Marius Retegan         : Local ZFS, SOC
   Christoph Riplinger    : Optimizer, TS searches, QM/MM, DLPNO-CCSD(T), (RO)-DLPNO pert. Triples
   Tobias Risthaus        : Range-separated hybrids, TD-DFT gradient, RPA, STAB
   Michael Roemelt        : Original ROCIS implementation
   Masaaki Saitow         : Open-shell DLPNO-CCSD energy and density
   Barbara Sandhoefer     : DKH picture change effects
   Avijit Sen             : IP-ROCIS
   Kantharuban Sivalingam : CASSCF convergence, NEVPT2, FIC-MRCI
   Bernardo de Souza      : ESD, SOC TD-DFT
   Georgi Stoychev        : AutoAux, RI-MP2 NMR
   Willem Van den Heuvel  : Paramagnetic NMR
   Boris Wezisla          : Elementary symmetry handling
   Frank Wennmohs         : Technical directorship


 We gratefully acknowledge several colleagues who have allowed us to
 interface, adapt or use parts of their codes:
   Stefan Grimme, W. Hujo, H. Kruse, P. Pracht,  : VdW corrections, initial TS optimization,
                  C. Bannwarth, S. Ehlert          DFT functionals, gCP, sTDA/sTD-DF
   Ed Valeev, F. Pavosevic, A. Kumar             : LibInt (2-el integral package), F12 methods
   Garnet Chan, S. Sharma, J. Yang, R. Olivares  : DMRG
   Ulf Ekstrom                                   : XCFun DFT Library
   Mihaly Kallay                                 : mrcc  (arbitrary order and MRCC methods)
   Jiri Pittner, Ondrej Demel                    : Mk-CCSD
   Frank Weinhold                                : gennbo (NPA and NBO analysis)
   Christopher J. Cramer and Donald G. Truhlar   : smd solvation model
   Lars Goerigk                                  : TD-DFT with DH, B97 family of functionals
   V. Asgeirsson, H. Jonsson                     : NEB implementation
   FAccTs GmbH                                   : IRC, NEB, NEB-TS, DLPNO-Multilevel, CI-OPT
                                                   MM, QMMM, 2- and 3-layer-ONIOM, Crystal-QMMM,
                                                   LR-CPCM, SF, NACMEs, symmetry and pop. for TD-DFT,
                                                   nearIR, NL-DFT gradient (VV10), updates on ESD,
                                                   ML-optimized integration grids
   S Lehtola, MJT Oliveira, MAL Marques          : LibXC Library
   Liviu Ungur et al                             : ANISO software


 Your calculation uses the libint2 library for the computation of 2-el integrals
 For citations please refer to: http://libint.valeyev.net

 Your ORCA version has been built with support for libXC version: 5.1.0
 For citations please refer to: https://tddft.org/programs/libxc/

 This ORCA versions uses:
   CBLAS   interface :  Fast vector & matrix operations
   LAPACKE interface :  Fast linear algebra routines
   SCALAPACK package :  Parallel linear algebra routines
   Shared memory     :  Shared parallel matrices
   BLAS/LAPACK       :  OpenBLAS 0.3.15  USE64BITINT DYNAMIC_ARCH NO_AFFINITY Haswell SINGLE_THREADED
        Core in use  :  Haswell
   Copyright (c) 2011-2014, The OpenBLAS Project




***************************************
The coordinates will be read from file: B.xyz
***************************************


================================================================================

----- Orbital basis set information -----
Your calculation utilizes the basis: def2-TZVPD
   F. Weigend and R. Ahlrichs, Phys. Chem. Chem. Phys. 7, 3297 (2005).
   D. Rappoport and F. Furche, J. Chem. Phys. 133 134105 (2010).

----- AuxJ basis set information -----
Your calculation utilizes the auxiliary basis: def2/J
   F. Weigend, Phys. Chem. Chem. Phys. 8, 1057 (2006).

================================================================================
                                        WARNINGS
                       Please study these warnings very carefully!
================================================================================


INFO   : the flag for use of the SHARK integral package has been found!

================================================================================
                                       INPUT FILE
================================================================================
NAME = 28Oct_TZVPD_LC_PBE_B_wt_wb97.com
|  1> !LC-PBE RIJCOSX def2-TZVPD def2/J TightSCF xyzfile                                                                                         
|  2> 
|  3> *xyzfile 0 1 B.xyz
|  4> 
|  5> %MaxCore 64000
|  6> 
|  7> %pal nprocs 4                                                                                                                                                  
|  8> end  
|  9> 
| 10> %scf
| 11>   MaxIter 150
| 12> end
| 13> 
| 14> 
| 15>                          ****END OF INPUT****
================================================================================

                       ****************************
                       * Single Point Calculation *
                       ****************************

---------------------------------
CARTESIAN COORDINATES (ANGSTROEM)
---------------------------------
  C      4.490588    1.155899   -2.469290
  N      4.305394    1.222762   -3.908317
  C      4.906458   -3.102816   -5.954844
  C      3.511771   -2.806215   -6.492283
  H      2.736044   -3.373445   -5.973736
  H      3.444904   -3.040831   -7.555281
  S      3.004618   -1.096206   -6.389259
  C      4.631918    2.246365   -4.670958
  N      4.541686    2.143990   -5.987139
  N      5.084086    3.393584   -4.118545
  H      4.920675    3.570501   -3.135870
  H      5.254652    4.197390   -4.706956
  H      3.824530    0.449113   -4.350926
  H      4.343373    1.249318   -6.416646
  H      4.676712    2.956624   -6.574113
  O      4.128856   -0.329647   -6.953717
  O      1.781285   -1.000779   -7.136399
  C      5.942129    0.939500   -2.036893
  H      3.864305    0.328532   -2.136611
  H      4.076233    2.049994   -1.989010
  C      6.462677   -3.117775   -3.944671
  C      5.024977   -3.025679   -4.437625
  H      4.423321   -3.818693   -3.977648
  H      4.579350   -2.087131   -4.108727
  H      5.201533   -4.100207   -6.296905
  H      5.605922   -2.397822   -6.413368
  C      6.559957   -0.356290   -2.559086
  H      5.967976    0.952567   -0.942444
  H      6.547184    1.788331   -2.368849
  C      6.006283   -1.615917   -1.899301
  H      7.642360   -0.318000   -2.402059
  H      6.414855   -0.403433   -3.642587
  C      6.608718   -2.917014   -2.435655
  H      6.190324   -1.561115   -0.820948
  H      4.919250   -1.651245   -2.016586
  H      7.066975   -2.374258   -4.475514
  H      6.887808   -4.089747   -4.215332
  H      6.135197   -3.755573   -1.915159
  H      7.671142   -2.955503   -2.172291
  O      2.851546   -0.783683   -4.956789

----------------------------
CARTESIAN COORDINATES (A.U.)
----------------------------
  NO LB      ZA    FRAG     MASS         X           Y           Z
   0 C     6.0000    0    12.011    8.485982    2.184332   -4.666282
   1 N     7.0000    0    14.007    8.136015    2.310685   -7.385649
   2 C     6.0000    0    12.011    9.271862   -5.863473  -11.253025
   3 C     6.0000    0    12.011    6.636285   -5.302977  -12.268638
   4 H     1.0000    0     1.008    5.170374   -6.374888  -11.288724
   5 H     1.0000    0     1.008    6.509926   -5.746338  -14.277412
   6 S    16.0000    0    32.060    5.677904   -2.071530  -12.073950
   7 C     6.0000    0    12.011    8.753057    4.245015   -8.826831
   8 N     7.0000    0    14.007    8.582543    4.051553  -11.314052
   9 N     7.0000    0    14.007    9.607530    6.412945   -7.782923
  10 H     1.0000    0     1.008    9.298728    6.747268   -5.925936
  11 H     1.0000    0     1.008    9.929852    7.931917   -8.894858
  12 H     1.0000    0     1.008    7.227314    0.848701   -8.222058
  13 H     1.0000    0     1.008    8.207786    2.360868  -12.125704
  14 H     1.0000    0     1.008    8.837705    5.587209  -12.423274
  15 O     8.0000    0    15.999    7.802408   -0.622942  -13.140621
  16 O     8.0000    0    15.999    3.366140   -1.891199  -13.485840
  17 C     6.0000    0    12.011   11.228997    1.775397   -3.849170
  18 H     1.0000    0     1.008    7.302479    0.620836   -4.037610
  19 H     1.0000    0     1.008    7.702964    3.873927   -3.758685
  20 C     6.0000    0    12.011   12.212689   -5.891741   -7.454347
  21 C     6.0000    0    12.011    9.495831   -5.717705   -8.385896
  22 H     1.0000    0     1.008    8.358866   -7.216284   -7.516666
  23 H     1.0000    0     1.008    8.653718   -3.944106   -7.764369
  24 H     1.0000    0     1.008    9.829473   -7.748269  -11.899427
  25 H     1.0000    0     1.008   10.593657   -4.531226  -12.119509
  26 C     6.0000    0    12.011   12.396522   -0.673291   -4.835971
  27 H     1.0000    0     1.008   11.277840    1.800090   -1.780961
  28 H     1.0000    0     1.008   12.372385    3.379455   -4.476477
  29 C     6.0000    0    12.011   11.350230   -3.053641   -3.589158
  30 H     1.0000    0     1.008   14.441966   -0.600934   -4.539234
  31 H     1.0000    0     1.008   12.122318   -0.762378   -6.883492
  32 C     6.0000    0    12.011   12.488666   -5.512358   -4.602721
  33 H     1.0000    0     1.008   11.698016   -2.950080   -1.551366
  34 H     1.0000    0     1.008    9.296035   -3.120400   -3.810796
  35 H     1.0000    0     1.008   13.354648   -4.486697   -8.457496
  36 H     1.0000    0     1.008   13.016070   -7.728501   -7.965822
  37 H     1.0000    0     1.008   11.593841   -7.097005   -3.619127
  38 H     1.0000    0     1.008   14.496357   -5.585092   -4.105035
  39 O     8.0000    0    15.999    5.388641   -1.480946   -9.366974

--------------------------------
INTERNAL COORDINATES (ANGSTROEM)
--------------------------------
 C      0   0   0     0.000000000000     0.00000000     0.00000000
 N      1   0   0     1.452434888732     0.00000000     0.00000000
 C      2   1   0     4.822880648060   111.29935464     0.00000000
 C      3   2   1     1.523799819616    82.01111056   124.72570022
 H      4   3   2     1.091968299252   112.43309611   255.51929182
 H      4   3   2     1.090632873150   110.97759244   134.54655122
 S      4   3   2     1.786602224664   115.19977359    16.50892478
 C      2   1   3     1.317574833962   125.28497018   214.05519914
 N      8   2   1     1.323236350905   119.91604121   173.18858040
 N      8   2   1     1.351194480527   120.39094198   354.48825376
 H     10   8   2     1.011757151303   119.43893893   342.13916756
 H     10   8   2     1.010654769343   119.58539038   185.29571941
 H      2   1   3     1.012750840265   117.28239304    38.84614007
 H      9   8   2     1.012048706728   120.25757225   351.78674532
 H      9   8   2     1.011506480060   120.39405507   172.23609159
 O      7   4   3     1.473139212620   105.02973514    49.07238667
 O      7   4   3     1.436617023222   105.98041552   170.73821441
 C      1   2   3     1.529956533456   114.04751046    71.27147181
 H      1   2   3     1.089697165343   105.31628314   309.84494500
 H      1   2   3     1.096250554262   110.38499465   196.36075284
 C      3   2   1     2.542211031985    75.28786529   328.63877310
 C     21   3   2     1.522650424266    33.45203408    62.46988994
 H     22  21   3     1.096558425421   109.78678321   123.00138599
 H     22  21   3     1.089784085482   109.90626334   238.94967961
 H      3   2   1     1.094926392967   169.46526939   316.66150389
 H      3   2   1     1.093851646948    71.30795148   237.06279558
 C     18   1   2     1.527569327213   114.02213033   299.75436756
 H     18   1   2     1.094832037269   107.65179087   177.40351951
 H     18   1   2     1.093983651653   109.22173402    62.36298160
 C     27  18   1     1.525952470352   113.93276277   288.90034571
 H     27  18   1     1.094403426518   108.74093275   167.10616769
 H     27  18   1     1.094190161747   108.74874272    52.17399198
 C     21   3   2     1.529300762752   146.92063230    53.80488115
 H     30  27  18     1.095317124906   108.86941482   300.75108730
 H     30  27  18     1.093912987644   109.92906200    56.35085961
 H     21   3   2     1.095348999413    87.16372703   291.04892433
 H     21   3   2     1.094861915024    92.71949470   185.57163885
 H     33  21   3     1.094677724411   109.10507473    72.09358689
 H     33  21   3     1.095256828209   108.98305469   187.60350442
 O      7   4   3     1.474133937430   106.76381078   292.33403201

---------------------------
INTERNAL COORDINATES (A.U.)
---------------------------
 C      0   0   0     0.000000000000     0.00000000     0.00000000
 N      1   0   0     2.744704167055     0.00000000     0.00000000
 C      2   1   0     9.113923601421   111.29935464     0.00000000
 C      3   2   1     2.879564341994    82.01111056   124.72570022
 H      4   3   2     2.063521032510   112.43309611   255.51929182
 H      4   3   2     2.060997442905   110.97759244   134.54655122
 S      4   3   2     3.376188914869   115.19977359    16.50892478
 C      2   1   3     2.489855597135   125.28497018   214.05519914
 N      8   2   1     2.500554313659   119.91604121   173.18858040
 N      8   2   1     2.553387521862   120.39094198   354.48825376
 H     10   8   2     1.911943930000   119.43893893   342.13916756
 H     10   8   2     1.909860730000   119.58539038   185.29571941
 H      2   1   3     1.913821729999   117.28239304    38.84614007
 H      9   8   2     1.912494889904   120.25757225   351.78674532
 H      9   8   2     1.911470230000   120.39405507   172.23609159
 O      7   4   3     2.783829668993   105.02973514    49.07238667
 O      7   4   3     2.714812733219   105.98041552   170.73821441
 C      1   2   3     2.891198845036   114.04751046    71.27147181
 H      1   2   3     2.059229211409   105.31628314   309.84494500
 H      1   2   3     2.071613321715   110.38499465   196.36075284
 C      3   2   1     4.804082625084    75.28786529   328.63877310
 C     21   3   2     2.877392299561    33.45203408    62.46988994
 H     22  21   3     2.072195113889   109.78678321   123.00138599
 H     22  21   3     2.059393466667   109.90626334   238.94967961
 H      3   2   1     2.069111019509   169.46526939   316.66150389
 H      3   2   1     2.067080043870    71.30795148   237.06279558
 C     18   1   2     2.886687679010   114.02213033   299.75436756
 H     18   1   2     2.068932713082   107.65179087   177.40351951
 H     18   1   2     2.067329496612   109.22173402    62.36298160
 C     27  18   1     2.883632262346   113.93276277   288.90034571
 H     27  18   1     2.068122756144   108.74093275   167.10616769
 H     27  18   1     2.067719744133   108.74874272    52.17399198
 C     21   3   2     2.889959617997   146.92063230    53.80488115
 H     30  27  18     2.069849395866   108.86941482   300.75108730
 H     30  27  18     2.067195960987   109.92906200    56.35085961
 H     21   3   2     2.069909629955    87.16372703   291.04892433
 H     21   3   2     2.068989173855    92.71949470   185.57163885
 H     33  21   3     2.068641104040   109.10507473    72.09358689
 H     33  21   3     2.069735451623   108.98305469   187.60350442
 O      7   4   3     2.785709426462   106.76381078   292.33403201

---------------------
BASIS SET INFORMATION
---------------------
There are 5 groups of distinct atoms

 Group   1 Type C   : 12s6p3d1f contracted to 6s3p3d1f pattern {621111/411/111/1}
 Group   2 Type N   : 12s6p3d1f contracted to 6s3p3d1f pattern {621111/411/111/1}
 Group   3 Type H   : 5s2p contracted to 3s2p pattern {311/11}
 Group   4 Type S   : 15s10p4d1f contracted to 6s6p3d1f pattern {732111/511111/211/1}
 Group   5 Type O   : 12s7p3d1f contracted to 6s4p3d1f pattern {621111/4111/111/1}

Atom   0C    basis set group =>   1
Atom   1N    basis set group =>   2
Atom   2C    basis set group =>   1
Atom   3C    basis set group =>   1
Atom   4H    basis set group =>   3
Atom   5H    basis set group =>   3
Atom   6S    basis set group =>   4
Atom   7C    basis set group =>   1
Atom   8N    basis set group =>   2
Atom   9N    basis set group =>   2
Atom  10H    basis set group =>   3
Atom  11H    basis set group =>   3
Atom  12H    basis set group =>   3
Atom  13H    basis set group =>   3
Atom  14H    basis set group =>   3
Atom  15O    basis set group =>   5
Atom  16O    basis set group =>   5
Atom  17C    basis set group =>   1
Atom  18H    basis set group =>   3
Atom  19H    basis set group =>   3
Atom  20C    basis set group =>   1
Atom  21C    basis set group =>   1
Atom  22H    basis set group =>   3
Atom  23H    basis set group =>   3
Atom  24H    basis set group =>   3
Atom  25H    basis set group =>   3
Atom  26C    basis set group =>   1
Atom  27H    basis set group =>   3
Atom  28H    basis set group =>   3
Atom  29C    basis set group =>   1
Atom  30H    basis set group =>   3
Atom  31H    basis set group =>   3
Atom  32C    basis set group =>   1
Atom  33H    basis set group =>   3
Atom  34H    basis set group =>   3
Atom  35H    basis set group =>   3
Atom  36H    basis set group =>   3
Atom  37H    basis set group =>   3
Atom  38H    basis set group =>   3
Atom  39O    basis set group =>   5
---------------------------------
AUXILIARY/J BASIS SET INFORMATION
---------------------------------
There are 5 groups of distinct atoms

 Group   1 Type C   : 12s5p4d2f1g contracted to 6s4p3d1f1g pattern {711111/2111/211/2/1}
 Group   2 Type N   : 12s5p4d2f1g contracted to 6s4p3d1f1g pattern {711111/2111/211/2/1}
 Group   3 Type H   : 5s2p1d contracted to 3s1p1d pattern {311/2/1}
 Group   4 Type S   : 14s5p5d2f1g contracted to 8s4p3d1f1g pattern {71111111/2111/311/2/1}
 Group   5 Type O   : 12s5p4d2f1g contracted to 6s4p3d1f1g pattern {711111/2111/211/2/1}

Atom   0C    basis set group =>   1
Atom   1N    basis set group =>   2
Atom   2C    basis set group =>   1
Atom   3C    basis set group =>   1
Atom   4H    basis set group =>   3
Atom   5H    basis set group =>   3
Atom   6S    basis set group =>   4
Atom   7C    basis set group =>   1
Atom   8N    basis set group =>   2
Atom   9N    basis set group =>   2
Atom  10H    basis set group =>   3
Atom  11H    basis set group =>   3
Atom  12H    basis set group =>   3
Atom  13H    basis set group =>   3
Atom  14H    basis set group =>   3
Atom  15O    basis set group =>   5
Atom  16O    basis set group =>   5
Atom  17C    basis set group =>   1
Atom  18H    basis set group =>   3
Atom  19H    basis set group =>   3
Atom  20C    basis set group =>   1
Atom  21C    basis set group =>   1
Atom  22H    basis set group =>   3
Atom  23H    basis set group =>   3
Atom  24H    basis set group =>   3
Atom  25H    basis set group =>   3
Atom  26C    basis set group =>   1
Atom  27H    basis set group =>   3
Atom  28H    basis set group =>   3
Atom  29C    basis set group =>   1
Atom  30H    basis set group =>   3
Atom  31H    basis set group =>   3
Atom  32C    basis set group =>   1
Atom  33H    basis set group =>   3
Atom  34H    basis set group =>   3
Atom  35H    basis set group =>   3
Atom  36H    basis set group =>   3
Atom  37H    basis set group =>   3
Atom  38H    basis set group =>   3
Atom  39O    basis set group =>   5


           ************************************************************
           *        Program running with 4 parallel MPI-processes     *
           *              working on a common directory               *
           ************************************************************
------------------------------------------------------------------------------
                           ORCA GTO INTEGRAL CALCULATION
                           -- RI-GTO INTEGRALS CHOSEN --
------------------------------------------------------------------------------
------------------------------------------------------------------------------
                   ___                                                        
                  /   \      - P O W E R E D   B Y -                         
                 /     \                                                     
                 |  |  |   _    _      __       _____    __    __             
                 |  |  |  | |  | |    /  \     |  _  \  |  |  /  |          
                  \  \/   | |  | |   /    \    | | | |  |  | /  /          
                 / \  \   | |__| |  /  /\  \   | |_| |  |  |/  /          
                |  |  |   |  __  | /  /__\  \  |    /   |      \           
                |  |  |   | |  | | |   __   |  |    \   |  |\   \          
                \     /   | |  | | |  |  |  |  | |\  \  |  | \   \       
                 \___/    |_|  |_| |__|  |__|  |_| \__\ |__|  \__/        
                                                                              
                      - O R C A' S   B I G   F R I E N D -                    
                                      &                                       
                       - I N T E G R A L  F E E D E R -                       
                                                                              
 v1 FN, 2020, v2 2021                                                         
------------------------------------------------------------------------------


Reading SHARK input file 28Oct_TZVPD_LC_PBE_B_wt_wb97.SHARKINP.tmp ... ok
----------------------
SHARK INTEGRAL PACKAGE
----------------------

Number of atoms                             ...     40
Number of basis functions                   ...    854
Number of shells                            ...    342
Maximum angular momentum                    ...      3
Integral batch strategy                     ... SHARK/LIBINT Hybrid
RI-J (if used) integral strategy            ... SPLIT-RIJ (Revised 2003 algorithm where possible)
Printlevel                                  ...      1
Contraction scheme used                     ... SEGMENTED contraction
Coulomb Range Separation                    ... NOT USED
Exchange Range Separation                   ... Long Range
   Mu parameter                             ...  0.470000
   Scaling (regular/separated)              ...  0.000000  1.000000
Finite Nucleus Model                        ... NOT USED
Auxiliary Coulomb fitting basis             ... AVAILABLE
   # of basis functions in Aux-J            ...   1088
   # of shells in Aux-J                     ...    372
   Maximum angular momentum in Aux-J        ...      4
Auxiliary J/K fitting basis                 ... NOT available
Auxiliary Correlation fitting basis         ... NOT available
Auxiliary 'external' fitting basis          ... NOT available
Integral threshold                          ...     2.500000e-11
Primitive cut-off                           ...     2.500000e-12
Primitive pair pre-selection threshold      ...     2.500000e-12

Calculating pre-screening integrals         ... done (  0.3 sec) Dimension = 342
Organizing shell pair data                  ... done (  0.4 sec)
Shell pair information
Total number of shell pairs                 ...     58653
Shell pairs after pre-screening             ...     49239
Total number of primitive shell pairs       ...    149788
Primitive shell pairs kept                  ...     92508
          la=0 lb=0:  11818 shell pairs
          la=1 lb=0:  14989 shell pairs
          la=1 lb=1:   4775 shell pairs
          la=2 lb=0:   7405 shell pairs
          la=2 lb=1:   4692 shell pairs
          la=2 lb=2:   1201 shell pairs
          la=3 lb=0:   2137 shell pairs
          la=3 lb=1:   1414 shell pairs
          la=3 lb=2:    706 shell pairs
          la=3 lb=3:    102 shell pairs

Calculating one electron integrals          ... done (  0.2 sec)
Calculating RI/J V-Matrix + Cholesky decomp.... done (  0.2 sec)
Calculating Nuclear repulsion               ... done (  0.0 sec) ENN=   1572.103580514152 Eh

SHARK setup successfully completed in   1.3 seconds

Maximum memory used throughout the entire GTOINT-calculation: 68.9 MB


           ************************************************************
           *        Program running with 4 parallel MPI-processes     *
           *              working on a common directory               *
           ************************************************************
-------------------------------------------------------------------------------
                                 ORCA SCF
-------------------------------------------------------------------------------

------------
SCF SETTINGS
------------
Hamiltonian:
 Density Functional     Method          .... DFT(GTOs)
 Exchange Functional    Exchange        .... LC-PBE
 Correlation Functional Correlation     .... PBE
   PBE beta parameter  CBetaPBE         ....  0.066725
 LDA part of GGA corr.  LDAOpt          .... PW91-LDA
 Gradients option       PostSCFGGA      .... off
   Density functional embedding theory  .... OFF
 Long-range corrected/Screened/Range-Separated Hybrid DFT is turned on
   Amount of maximum screened exact exchange              ....  1.000000
   Range separation parameter mu (erf(mu*r12)/r12)        ....  0.470000
   NL short-range parameter             ....  6.400000
 RI-approximation to the Coulomb term is turned on
   Number of AuxJ basis functions       .... 1088
   RIJ-COSX (HFX calculated with COS-X)).... on


General Settings:
 Integral files         IntName         .... 28Oct_TZVPD_LC_PBE_B_wt_wb97
 Hartree-Fock type      HFTyp           .... RHF
 Total Charge           Charge          ....    0
 Multiplicity           Mult            ....    1
 Number of Electrons    NEL             ....  144
 Basis Dimension        Dim             ....  854
 Nuclear Repulsion      ENuc            ....   1572.1035805142 Eh

Convergence Acceleration:
 DIIS                   CNVDIIS         .... on
   Start iteration      DIISMaxIt       ....    12
   Startup error        DIISStart       ....  0.200000
   # of expansion vecs  DIISMaxEq       ....     5
   Bias factor          DIISBfac        ....   1.050
   Max. coefficient     DIISMaxC        ....  10.000
 Trust-Rad. Augm. Hess. CNVTRAH         .... auto
   Auto Start mean grad. ratio tolernc. ....  1.125000
   Auto Start start iteration           ....    20
   Auto Start num. interpolation iter.  ....    10
   Max. Number of Micro iterations      ....    16
   Max. Number of Macro iterations      .... Maxiter - #DIIS iter
   Number of Davidson start vectors     ....     2
   Converg. threshold I  (grad. norm)   ....   1.000e-05
   Converg. threshold II (energy diff.) ....   1.000e-08
   Grad. Scal. Fac. for Micro threshold ....   0.100
   Minimum threshold for Micro iter.    ....   0.010
   NR start threshold (gradient norm)   ....   0.001
   Initial trust radius                 ....   0.400
   Minimum AH scaling param. (alpha)    ....   1.000
   Maximum AH scaling param. (alpha)    .... 1000.000
   Orbital update algorithm             .... Taylor
   White noise on init. David. guess    .... on
   Maximum white noise                  ....   0.010
   Quad. conv. algorithm                .... NR
 SOSCF                  CNVSOSCF        .... on
   Start iteration      SOSCFMaxIt      ....   150
   Startup grad/error   SOSCFStart      ....  0.003300
 Level Shifting         CNVShift        .... on
   Level shift para.    LevelShift      ....    0.2500
   Turn off err/grad.   ShiftErr        ....    0.0010
 Zerner damping         CNVZerner       .... off
 Static damping         CNVDamp         .... on
   Fraction old density DampFac         ....    0.7000
   Max. Damping (<1)    DampMax         ....    0.9800
   Min. Damping (>=0)   DampMin         ....    0.0000
   Turn off err/grad.   DampErr         ....    0.1000
 Fernandez-Rico         CNVRico         .... off

SCF Procedure:
 Maximum # iterations   MaxIter         ....   150
 SCF integral mode      SCFMode         .... Direct
   Integral package                     .... SHARK and LIBINT hybrid scheme
 Reset frequency        DirectResetFreq ....    20
 Integral Threshold     Thresh          ....  2.500e-11 Eh
 Primitive CutOff       TCut            ....  2.500e-12 Eh

Convergence Tolerance:
 Convergence Check Mode ConvCheckMode   .... Total+1el-Energy
 Convergence forced     ConvForced      .... 0
 Energy Change          TolE            ....  1.000e-08 Eh
 1-El. energy change                    ....  1.000e-05 Eh
 Orbital Gradient       TolG            ....  1.000e-05
 Orbital Rotation angle TolX            ....  1.000e-05
 DIIS Error             TolErr          ....  5.000e-07


Diagonalization of the overlap matrix:
Smallest eigenvalue                        ... 1.206e-06
Time for diagonalization                   ...    0.201 sec
Threshold for overlap eigenvalues          ... 1.000e-08
Number of eigenvalues below threshold      ... 0
Time for construction of square roots      ...    0.207 sec
Total time needed                          ...    0.415 sec

Time for model grid setup =    0.629 sec

------------------------------
INITIAL GUESS: MODEL POTENTIAL
------------------------------
Loading Hartree-Fock densities                     ... done
Calculating cut-offs                               ... done
Initializing the effective Hamiltonian             ... done
Setting up the integral package (SHARK)            ... done
Starting the Coulomb interaction                   ... done (   1.8 sec)
Reading the grid                                   ... done
Mapping shells                                     ... done
Starting the XC term evaluation                    ... done (   1.5 sec)
  promolecular density results
     # of electrons  =    143.983713447
     EX              =    -93.155882191
     EC              =     -4.948065175
     EX+EC           =    -98.103947366
Transforming the Hamiltonian                       ... done (   0.1 sec)
Diagonalizing the Hamiltonian                      ... done (   0.2 sec)
Back transforming the eigenvectors                 ... done (   0.0 sec)
Now organizing SCF variables                       ... done
                      ------------------
                      INITIAL GUESS DONE (   4.3 sec)
                      ------------------
-------------------
DFT GRID GENERATION
-------------------

General Integration Accuracy     IntAcc      ... 4.388
Radial Grid Type                 RadialGrid  ... OptM3 with GC (2021)
Angular Grid (max. ang.)         AngularGrid ... 4 (Lebedev-302)
Angular grid pruning method      GridPruning ... 4 (adaptive)
Weight generation scheme         WeightScheme... Becke
Basis function cutoff            BFCut       ... 1.0000e-11
Integration weight cutoff        WCut        ... 1.0000e-14
Angular grids for H and He will be reduced by one unit
Partially contracted basis set               ... off
Rotationally invariant grid construction     ... off

Total number of grid points                  ...   182687
Total number of batches                      ...     2876
Average number of points per batch           ...       63
Average number of grid points per atom       ...     4567
Time for grid setup =    2.222 sec

--------------------
COSX GRID GENERATION
--------------------

GRIDX 1
-------
General Integration Accuracy     IntAcc      ... 3.816
Radial Grid Type                 RadialGrid  ... OptM3 with GC (2021)
Angular Grid (max. ang.)         AngularGrid ... 1 (Lebedev-50)
Angular grid pruning method      GridPruning ... 4 (adaptive)
Weight generation scheme         WeightScheme... Becke
Basis function cutoff            BFCut       ... 1.0000e-11
Integration weight cutoff        WCut        ... 1.0000e-14
Angular grids for H and He will be reduced by one unit
Partially contracted basis set               ... on
Rotationally invariant grid construction     ... off

Total number of grid points                  ...    22733
Total number of batches                      ...      379
Average number of points per batch           ...       59
Average number of grid points per atom       ...      568
UseSFitting                                  ... on

GRIDX 2
-------
General Integration Accuracy     IntAcc      ... 4.020
Radial Grid Type                 RadialGrid  ... OptM3 with GC (2021)
Angular Grid (max. ang.)         AngularGrid ... 2 (Lebedev-110)
Angular grid pruning method      GridPruning ... 4 (adaptive)
Weight generation scheme         WeightScheme... Becke
Basis function cutoff            BFCut       ... 1.0000e-11
Integration weight cutoff        WCut        ... 1.0000e-14
Angular grids for H and He will be reduced by one unit
Partially contracted basis set               ... on
Rotationally invariant grid construction     ... off

Total number of grid points                  ...    52189
Total number of batches                      ...      835
Average number of points per batch           ...       62
Average number of grid points per atom       ...     1305
UseSFitting                                  ... on

GRIDX 3
-------
General Integration Accuracy     IntAcc      ... 4.338
Radial Grid Type                 RadialGrid  ... OptM3 with GC (2021)
Angular Grid (max. ang.)         AngularGrid ... 3 (Lebedev-194)
Angular grid pruning method      GridPruning ... 4 (adaptive)
Weight generation scheme         WeightScheme... Becke
Basis function cutoff            BFCut       ... 1.0000e-11
Integration weight cutoff        WCut        ... 1.0000e-14
Angular grids for H and He will be reduced by one unit
Partially contracted basis set               ... on
Rotationally invariant grid construction     ... off

Total number of grid points                  ...   116086
Total number of batches                      ...     1834
Average number of points per batch           ...       63
Average number of grid points per atom       ...     2902
UseSFitting                                  ... on

Time for X-Grid setup             =    4.343 sec

--------------
SCF ITERATIONS
--------------
ITER       Energy         Delta-E        Max-DP      RMS-DP      [F,P]     Damp
               ***  Starting incremental Fock matrix formation  ***
  0  -1180.3550572969   0.000000000000 0.11714740  0.00114244  0.1478715 0.7000
  1  -1180.4658515562  -0.110794259384 0.09682572  0.00094337  0.0665216 0.7000
                               ***Turning on DIIS***
  2  -1180.5206790263  -0.054827470049 0.23774562  0.00227355  0.0379506 0.0000
  3  -1180.6190328564  -0.098353830054 0.08251853  0.00058405  0.0385684 0.0000
  4  -1180.6322305160  -0.013197659638 0.05570962  0.00034397  0.0081487 0.0000
  5  -1180.6330172065  -0.000786690506 0.02876929  0.00016708  0.0063412 0.0000
                      *** Initiating the SOSCF procedure ***
                           *** Shutting down DIIS ***
                      *** Re-Reading the Fockian *** 
                      *** Removing any level shift *** 
ITER      Energy       Delta-E        Grad      Rot      Max-DP    RMS-DP
  6  -1180.63324863  -0.0002314266  0.000342  0.000342  0.013128  0.000078
               *** Restarting incremental Fock matrix formation ***
  7  -1180.63329033  -0.0000416948  0.000132  0.000243  0.074536  0.000464
  8  -1180.63329548  -0.0000051551  0.000056  0.000133  0.025484  0.000158
  9  -1180.63329630  -0.0000008138  0.000037  0.000027  0.018765  0.000113
 10  -1180.63329657  -0.0000002707  0.000008  0.000013  0.004062  0.000030
 11  -1180.63329659  -0.0000000204  0.000007  0.000006  0.003405  0.000015
                  ***Gradient check signals convergence***
              ***Rediagonalizing the Fockian in SOSCF/NRSCF***

               *****************************************************
               *                     SUCCESS                       *
               *           SCF CONVERGED AFTER  12 CYCLES          *
               *****************************************************


----------------
TOTAL SCF ENERGY
----------------

Total Energy       :        -1180.63329658 Eh          -32126.66529 eV

Components:
Nuclear Repulsion  :         1572.10358051 Eh           42779.11327 eV
Electronic Energy  :        -2752.73687709 Eh          -74905.77856 eV
One Electron Energy:        -4744.34558254 Eh         -129100.20663 eV
Two Electron Energy:         1991.60870545 Eh           54194.42807 eV
Max COSX asymmetry :            0.00000682 Eh               0.00019 eV

Virial components:
Potential Energy   :        -2356.54220283 Eh          -64124.77338 eV
Kinetic Energy     :         1175.90890625 Eh           31998.10809 eV
Virial Ratio       :            2.00401765


DFT components:
N(Alpha)           :       71.999778054378 electrons
N(Beta)            :       71.999778054378 electrons
N(Total)           :      143.999556108757 electrons
E(X)               :      -94.719855381562 Eh       
E(C)               :       -4.940491464216 Eh       
E(XC)              :      -99.660346845778 Eh       
DFET-embed. en.    :        0.000000000000 Eh       

---------------
SCF CONVERGENCE
---------------

  Last Energy change         ...    9.4315e-09  Tolerance :   1.0000e-08
  Last MAX-Density change    ...    3.3077e-03  Tolerance :   1.0000e-07
  Last RMS-Density change    ...    1.5592e-05  Tolerance :   5.0000e-09
  Last Orbital Gradient      ...    1.6356e-06  Tolerance :   1.0000e-05
  Last Orbital Rotation      ...    4.5282e-06  Tolerance :   1.0000e-05

             **** THE GBW FILE WAS UPDATED (28Oct_TZVPD_LC_PBE_B_wt_wb97.gbw) ****
             **** DENSITY 28Oct_TZVPD_LC_PBE_B_wt_wb97.scfp WAS UPDATED ****
             **** ENERGY FILE WAS UPDATED (28Oct_TZVPD_LC_PBE_B_wt_wb97.en.tmp) ****
             **** THE GBW FILE WAS UPDATED (28Oct_TZVPD_LC_PBE_B_wt_wb97.gbw) ****
             **** DENSITY 28Oct_TZVPD_LC_PBE_B_wt_wb97.scfp WAS UPDATED ****
----------------
ORBITAL ENERGIES
----------------

  NO   OCC          E(Eh)            E(eV) 
   0   2.0000     -88.427466     -2406.2337 
   1   2.0000     -18.919027      -514.8129 
   2   2.0000     -18.918513      -514.7989 
   3   2.0000     -18.904634      -514.4212 
   4   2.0000     -14.291188      -388.8830 
   5   2.0000     -14.261832      -388.0842 
   6   2.0000     -14.256531      -387.9399 
   7   2.0000     -10.295878      -280.1651 
   8   2.0000     -10.181803      -277.0609 
   9   2.0000     -10.135742      -275.8076 
  10   2.0000     -10.118547      -275.3397 
  11   2.0000     -10.111816      -275.1565 
  12   2.0000     -10.108851      -275.0758 
  13   2.0000     -10.106899      -275.0227 
  14   2.0000     -10.099848      -274.8308 
  15   2.0000     -10.098934      -274.8060 
  16   2.0000     -10.090448      -274.5751 
  17   2.0000      -8.039089      -218.7547 
  18   2.0000      -6.055627      -164.7820 
  19   2.0000      -6.055012      -164.7653 
  20   2.0000      -6.053813      -164.7326 
  21   2.0000      -1.260538       -34.3010 
  22   2.0000      -1.233540       -33.5663 
  23   2.0000      -1.119441       -30.4615 
  24   2.0000      -1.111696       -30.2508 
  25   2.0000      -1.105375       -30.0788 
  26   2.0000      -1.097399       -29.8617 
  27   2.0000      -1.006840       -27.3975 
  28   2.0000      -0.979366       -26.6499 
  29   2.0000      -0.950179       -25.8557 
  30   2.0000      -0.907906       -24.7054 
  31   2.0000      -0.869306       -23.6550 
  32   2.0000      -0.838916       -22.8281 
  33   2.0000      -0.809471       -22.0268 
  34   2.0000      -0.785240       -21.3675 
  35   2.0000      -0.772880       -21.0311 
  36   2.0000      -0.753822       -20.5126 
  37   2.0000      -0.729464       -19.8497 
  38   2.0000      -0.706386       -19.2217 
  39   2.0000      -0.696454       -18.9515 
  40   2.0000      -0.684502       -18.6262 
  41   2.0000      -0.664000       -18.0684 
  42   2.0000      -0.649811       -17.6823 
  43   2.0000      -0.632964       -17.2238 
  44   2.0000      -0.628251       -17.0956 
  45   2.0000      -0.614906       -16.7325 
  46   2.0000      -0.608988       -16.5714 
  47   2.0000      -0.597623       -16.2621 
  48   2.0000      -0.578129       -15.7317 
  49   2.0000      -0.575667       -15.6647 
  50   2.0000      -0.570833       -15.5332 
  51   2.0000      -0.555770       -15.1233 
  52   2.0000      -0.549628       -14.9561 
  53   2.0000      -0.536590       -14.6014 
  54   2.0000      -0.525109       -14.2889 
  55   2.0000      -0.516053       -14.0425 
  56   2.0000      -0.496698       -13.5158 
  57   2.0000      -0.489671       -13.3246 
  58   2.0000      -0.480106       -13.0643 
  59   2.0000      -0.463775       -12.6200 
  60   2.0000      -0.458181       -12.4677 
  61   2.0000      -0.455504       -12.3949 
  62   2.0000      -0.454073       -12.3560 
  63   2.0000      -0.446221       -12.1423 
  64   2.0000      -0.439993       -11.9728 
  65   2.0000      -0.433114       -11.7856 
  66   2.0000      -0.429185       -11.6787 
  67   2.0000      -0.413650       -11.2560 
  68   2.0000      -0.406868       -11.0714 
  69   2.0000      -0.397842       -10.8258 
  70   2.0000      -0.383925       -10.4471 
  71   2.0000      -0.362577        -9.8662 
  72   0.0000       0.031506         0.8573 
  73   0.0000       0.053870         1.4659 
  74   0.0000       0.062777         1.7082 
  75   0.0000       0.071340         1.9413 
  76   0.0000       0.077492         2.1087 
  77   0.0000       0.078618         2.1393 
  78   0.0000       0.080276         2.1844 
  79   0.0000       0.084747         2.3061 
  80   0.0000       0.087318         2.3760 
  81   0.0000       0.094223         2.5639 
  82   0.0000       0.103777         2.8239 
  83   0.0000       0.109302         2.9743 
  84   0.0000       0.112887         3.0718 
  85   0.0000       0.118224         3.2170 
  86   0.0000       0.124855         3.3975 
  87   0.0000       0.130701         3.5565 
  88   0.0000       0.133693         3.6380 
  89   0.0000       0.142517         3.8781 
  90   0.0000       0.143559         3.9064 
  91   0.0000       0.148652         4.0450 
  92   0.0000       0.156806         4.2669 
  93   0.0000       0.158491         4.3127 
  94   0.0000       0.169311         4.6072 
  95   0.0000       0.171304         4.6614 
  96   0.0000       0.178975         4.8702 
  97   0.0000       0.180805         4.9200 
  98   0.0000       0.185563         5.0494 
  99   0.0000       0.188844         5.1387 
 100   0.0000       0.196093         5.3360 
 101   0.0000       0.197173         5.3654 
 102   0.0000       0.201326         5.4784 
 103   0.0000       0.205077         5.5804 
 104   0.0000       0.209093         5.6897 
 105   0.0000       0.212519         5.7829 
 106   0.0000       0.213235         5.8024 
 107   0.0000       0.220508         6.0003 
 108   0.0000       0.226001         6.1498 
 109   0.0000       0.227543         6.1918 
 110   0.0000       0.234168         6.3720 
 111   0.0000       0.234648         6.3851 
 112   0.0000       0.235547         6.4096 
 113   0.0000       0.238463         6.4889 
 114   0.0000       0.240497         6.5443 
 115   0.0000       0.245395         6.6775 
 116   0.0000       0.248408         6.7595 
 117   0.0000       0.251226         6.8362 
 118   0.0000       0.253720         6.9041 
 119   0.0000       0.256351         6.9757 
 120   0.0000       0.258701         7.0396 
 121   0.0000       0.264323         7.1926 
 122   0.0000       0.266807         7.2602 
 123   0.0000       0.269946         7.3456 
 124   0.0000       0.272437         7.4134 
 125   0.0000       0.273081         7.4309 
 126   0.0000       0.276667         7.5285 
 127   0.0000       0.279905         7.6166 
 128   0.0000       0.282744         7.6939 
 129   0.0000       0.286725         7.8022 
 130   0.0000       0.290456         7.9037 
 131   0.0000       0.293807         7.9949 
 132   0.0000       0.294474         8.0130 
 133   0.0000       0.299422         8.1477 
 134   0.0000       0.301048         8.1919 
 135   0.0000       0.305576         8.3151 
 136   0.0000       0.308278         8.3887 
 137   0.0000       0.309086         8.4107 
 138   0.0000       0.313085         8.5195 
 139   0.0000       0.314291         8.5523 
 140   0.0000       0.318295         8.6613 
 141   0.0000       0.321450         8.7471 
 142   0.0000       0.323722         8.8089 
 143   0.0000       0.324779         8.8377 
 144   0.0000       0.329638         8.9699 
 145   0.0000       0.334821         9.1109 
 146   0.0000       0.337499         9.1838 
 147   0.0000       0.339658         9.2426 
 148   0.0000       0.344049         9.3621 
 149   0.0000       0.344479         9.3737 
 150   0.0000       0.348155         9.4738 
 151   0.0000       0.351698         9.5702 
 152   0.0000       0.356121         9.6905 
 153   0.0000       0.358878         9.7656 
 154   0.0000       0.360420         9.8075 
 155   0.0000       0.367029         9.9874 
 156   0.0000       0.368954        10.0397 
 157   0.0000       0.371280        10.1030 
 158   0.0000       0.377648        10.2763 
 159   0.0000       0.379232        10.3194 
 160   0.0000       0.379920        10.3381 
 161   0.0000       0.381205        10.3731 
 162   0.0000       0.386008        10.5038 
 163   0.0000       0.387869        10.5545 
 164   0.0000       0.391151        10.6438 
 165   0.0000       0.394825        10.7437 
 166   0.0000       0.398445        10.8422 
 167   0.0000       0.402739        10.9591 
 168   0.0000       0.404959        11.0195 
 169   0.0000       0.407170        11.0797 
 170   0.0000       0.409623        11.1464 
 171   0.0000       0.410603        11.1731 
 172   0.0000       0.414831        11.2881 
 173   0.0000       0.418004        11.3745 
 174   0.0000       0.421946        11.4817 
 175   0.0000       0.423911        11.5352 
 176   0.0000       0.425638        11.5822 
 177   0.0000       0.430548        11.7158 
 178   0.0000       0.432334        11.7644 
 179   0.0000       0.433015        11.7829 
 180   0.0000       0.435664        11.8550 
 181   0.0000       0.441215        12.0061 
 182   0.0000       0.444112        12.0849 
 183   0.0000       0.447693        12.1824 
 184   0.0000       0.451794        12.2940 
 185   0.0000       0.454592        12.3701 
 186   0.0000       0.457504        12.4493 
 187   0.0000       0.459866        12.5136 
 188   0.0000       0.462409        12.5828 
 189   0.0000       0.467702        12.7268 
 190   0.0000       0.469850        12.7853 
 191   0.0000       0.471441        12.8286 
 192   0.0000       0.473808        12.8930 
 193   0.0000       0.476406        12.9637 
 194   0.0000       0.481987        13.1155 
 195   0.0000       0.483086        13.1454 
 196   0.0000       0.485231        13.2038 
 197   0.0000       0.489167        13.3109 
 198   0.0000       0.490420        13.3450 
 199   0.0000       0.497581        13.5399 
 200   0.0000       0.497745        13.5443 
 201   0.0000       0.500414        13.6170 
 202   0.0000       0.506429        13.7806 
 203   0.0000       0.509525        13.8649 
 204   0.0000       0.509833        13.8733 
 205   0.0000       0.512944        13.9579 
 206   0.0000       0.515017        14.0143 
 207   0.0000       0.522331        14.2133 
 208   0.0000       0.522820        14.2266 
 209   0.0000       0.526840        14.3361 
 210   0.0000       0.529714        14.4143 
 211   0.0000       0.533437        14.5156 
 212   0.0000       0.537896        14.6369 
 213   0.0000       0.539993        14.6940 
 214   0.0000       0.541439        14.7333 
 215   0.0000       0.547026        14.8853 
 216   0.0000       0.551217        14.9994 
 217   0.0000       0.555180        15.1072 
 218   0.0000       0.557533        15.1712 
 219   0.0000       0.559064        15.2129 
 220   0.0000       0.562841        15.3157 
 221   0.0000       0.568234        15.4624 
 222   0.0000       0.571127        15.5412 
 223   0.0000       0.574055        15.6208 
 224   0.0000       0.576668        15.6919 
 225   0.0000       0.580466        15.7953 
 226   0.0000       0.583678        15.8827 
 227   0.0000       0.585197        15.9240 
 228   0.0000       0.591323        16.0907 
 229   0.0000       0.592605        16.1256 
 230   0.0000       0.595441        16.2028 
 231   0.0000       0.601626        16.3711 
 232   0.0000       0.602390        16.3919 
 233   0.0000       0.610873        16.6227 
 234   0.0000       0.611883        16.6502 
 235   0.0000       0.614945        16.7335 
 236   0.0000       0.616148        16.7663 
 237   0.0000       0.618704        16.8358 
 238   0.0000       0.620837        16.8938 
 239   0.0000       0.621471        16.9111 
 240   0.0000       0.626843        17.0573 
 241   0.0000       0.636128        17.3099 
 242   0.0000       0.643169        17.5015 
 243   0.0000       0.646459        17.5911 
 244   0.0000       0.647789        17.6272 
 245   0.0000       0.649532        17.6747 
 246   0.0000       0.655166        17.8280 
 247   0.0000       0.657293        17.8859 
 248   0.0000       0.659045        17.9335 
 249   0.0000       0.663034        18.0421 
 250   0.0000       0.670460        18.2441 
 251   0.0000       0.679395        18.4873 
 252   0.0000       0.681618        18.5478 
 253   0.0000       0.684706        18.6318 
 254   0.0000       0.687503        18.7079 
 255   0.0000       0.689901        18.7732 
 256   0.0000       0.692154        18.8345 
 257   0.0000       0.696947        18.9649 
 258   0.0000       0.697622        18.9833 
 259   0.0000       0.700611        19.0646 
 260   0.0000       0.702240        19.1089 
 261   0.0000       0.704859        19.1802 
 262   0.0000       0.709999        19.3200 
 263   0.0000       0.717625        19.5276 
 264   0.0000       0.722569        19.6621 
 265   0.0000       0.723616        19.6906 
 266   0.0000       0.728629        19.8270 
 267   0.0000       0.729916        19.8620 
 268   0.0000       0.734456        19.9856 
 269   0.0000       0.739206        20.1148 
 270   0.0000       0.744082        20.2475 
 271   0.0000       0.745996        20.2996 
 272   0.0000       0.750616        20.4253 
 273   0.0000       0.758517        20.6403 
 274   0.0000       0.761559        20.7231 
 275   0.0000       0.764451        20.8018 
 276   0.0000       0.766583        20.8598 
 277   0.0000       0.768494        20.9118 
 278   0.0000       0.771043        20.9812 
 279   0.0000       0.775261        21.0959 
 280   0.0000       0.777465        21.1559 
 281   0.0000       0.781293        21.2601 
 282   0.0000       0.783018        21.3070 
 283   0.0000       0.787643        21.4328 
 284   0.0000       0.791884        21.5483 
 285   0.0000       0.793615        21.5954 
 286   0.0000       0.796794        21.6819 
 287   0.0000       0.800943        21.7948 
 288   0.0000       0.806524        21.9466 
 289   0.0000       0.807699        21.9786 
 290   0.0000       0.809132        22.0176 
 291   0.0000       0.814947        22.1758 
 292   0.0000       0.817609        22.2483 
 293   0.0000       0.818811        22.2810 
 294   0.0000       0.825363        22.4593 
 295   0.0000       0.830511        22.5993 
 296   0.0000       0.835989        22.7484 
 297   0.0000       0.838858        22.8265 
 298   0.0000       0.841181        22.8897 
 299   0.0000       0.843524        22.9535 
 300   0.0000       0.845112        22.9967 
 301   0.0000       0.849645        23.1200 
 302   0.0000       0.852449        23.1963 
 303   0.0000       0.855513        23.2797 
 304   0.0000       0.863080        23.4856 
 305   0.0000       0.864555        23.5257 
 306   0.0000       0.869132        23.6503 
 307   0.0000       0.872670        23.7465 
 308   0.0000       0.874783        23.8041 
 309   0.0000       0.877359        23.8742 
 310   0.0000       0.884687        24.0736 
 311   0.0000       0.886699        24.1283 
 312   0.0000       0.890136        24.2218 
 313   0.0000       0.894259        24.3340 
 314   0.0000       0.898757        24.4564 
 315   0.0000       0.903262        24.5790 
 316   0.0000       0.907869        24.7044 
 317   0.0000       0.909465        24.7478 
 318   0.0000       0.910385        24.7728 
 319   0.0000       0.918485        24.9933 
 320   0.0000       0.920039        25.0355 
 321   0.0000       0.928337        25.2613 
 322   0.0000       0.931309        25.3422 
 323   0.0000       0.937314        25.5056 
 324   0.0000       0.938888        25.5484 
 325   0.0000       0.944816        25.7098 
 326   0.0000       0.946616        25.7587 
 327   0.0000       0.952388        25.9158 
 328   0.0000       0.953404        25.9434 
 329   0.0000       0.959427        26.1073 
 330   0.0000       0.962872        26.2011 
 331   0.0000       0.968710        26.3599 
 332   0.0000       0.971182        26.4272 
 333   0.0000       0.980092        26.6697 
 334   0.0000       0.982613        26.7383 
 335   0.0000       0.984763        26.7968 
 336   0.0000       0.992467        27.0064 
 337   0.0000       0.997681        27.1483 
 338   0.0000       1.002903        27.2904 
 339   0.0000       1.006477        27.3876 
 340   0.0000       1.014227        27.5985 
 341   0.0000       1.018018        27.7017 
 342   0.0000       1.025478        27.9047 
 343   0.0000       1.028641        27.9908 
 344   0.0000       1.031935        28.0804 
 345   0.0000       1.033246        28.1160 
 346   0.0000       1.040937        28.3253 
 347   0.0000       1.047973        28.5168 
 348   0.0000       1.053831        28.6762 
 349   0.0000       1.058794        28.8112 
 350   0.0000       1.068316        29.0703 
 351   0.0000       1.071853        29.1666 
 352   0.0000       1.075358        29.2620 
 353   0.0000       1.078292        29.3418 
 354   0.0000       1.086839        29.5744 
 355   0.0000       1.088752        29.6264 
 356   0.0000       1.101598        29.9760 
 357   0.0000       1.106504        30.1095 
 358   0.0000       1.111280        30.2395 
 359   0.0000       1.112820        30.2814 
 360   0.0000       1.113915        30.3112 
 361   0.0000       1.124831        30.6082 
 362   0.0000       1.127579        30.6830 
 363   0.0000       1.135219        30.8909 
 364   0.0000       1.138272        30.9740 
 365   0.0000       1.147613        31.2281 
 366   0.0000       1.152646        31.3651 
 367   0.0000       1.155569        31.4446 
 368   0.0000       1.161450        31.6047 
 369   0.0000       1.168284        31.7906 
 370   0.0000       1.173493        31.9324 
 371   0.0000       1.180000        32.1094 
 372   0.0000       1.182393        32.1746 
 373   0.0000       1.193418        32.4746 
 374   0.0000       1.200395        32.6644 
 375   0.0000       1.202640        32.7255 
 376   0.0000       1.206727        32.8367 
 377   0.0000       1.213277        33.0149 
 378   0.0000       1.219578        33.1864 
 379   0.0000       1.230222        33.4760 
 380   0.0000       1.235752        33.6265 
 381   0.0000       1.246278        33.9130 
 382   0.0000       1.248003        33.9599 
 383   0.0000       1.267335        34.4859 
 384   0.0000       1.272530        34.6273 
 385   0.0000       1.280270        34.8379 
 386   0.0000       1.282780        34.9062 
 387   0.0000       1.292134        35.1608 
 388   0.0000       1.295259        35.2458 
 389   0.0000       1.309023        35.6203 
 390   0.0000       1.310282        35.6546 
 391   0.0000       1.323162        36.0051 
 392   0.0000       1.328862        36.1602 
 393   0.0000       1.340111        36.4663 
 394   0.0000       1.342577        36.5334 
 395   0.0000       1.348920        36.7060 
 396   0.0000       1.367066        37.1998 
 397   0.0000       1.369005        37.2525 
 398   0.0000       1.378723        37.5170 
 399   0.0000       1.380434        37.5635 
 400   0.0000       1.394599        37.9490 
 401   0.0000       1.398819        38.0638 
 402   0.0000       1.404827        38.2273 
 403   0.0000       1.409199        38.3463 
 404   0.0000       1.411843        38.4182 
 405   0.0000       1.419438        38.6249 
 406   0.0000       1.423567        38.7372 
 407   0.0000       1.439838        39.1800 
 408   0.0000       1.449738        39.4494 
 409   0.0000       1.458858        39.6976 
 410   0.0000       1.462762        39.8038 
 411   0.0000       1.470448        40.0129 
 412   0.0000       1.478954        40.2444 
 413   0.0000       1.495334        40.6901 
 414   0.0000       1.504701        40.9450 
 415   0.0000       1.514977        41.2246 
 416   0.0000       1.520446        41.3734 
 417   0.0000       1.526655        41.5424 
 418   0.0000       1.531013        41.6610 
 419   0.0000       1.532182        41.6928 
 420   0.0000       1.539685        41.8970 
 421   0.0000       1.544812        42.0365 
 422   0.0000       1.554610        42.3031 
 423   0.0000       1.561320        42.4857 
 424   0.0000       1.567355        42.6499 
 425   0.0000       1.575319        42.8666 
 426   0.0000       1.578823        42.9620 
 427   0.0000       1.591854        43.3166 
 428   0.0000       1.604589        43.6631 
 429   0.0000       1.609726        43.8029 
 430   0.0000       1.616395        43.9843 
 431   0.0000       1.622711        44.1562 
 432   0.0000       1.626933        44.2711 
 433   0.0000       1.657662        45.1073 
 434   0.0000       1.670343        45.4524 
 435   0.0000       1.674383        45.5623 
 436   0.0000       1.680320        45.7238 
 437   0.0000       1.687805        45.9275 
 438   0.0000       1.693305        46.0772 
 439   0.0000       1.698701        46.2240 
 440   0.0000       1.716085        46.6970 
 441   0.0000       1.727018        46.9945 
 442   0.0000       1.738082        47.2956 
 443   0.0000       1.742519        47.4163 
 444   0.0000       1.752768        47.6952 
 445   0.0000       1.764328        48.0098 
 446   0.0000       1.769437        48.1488 
 447   0.0000       1.790825        48.7308 
 448   0.0000       1.798936        48.9515 
 449   0.0000       1.817318        49.4517 
 450   0.0000       1.820454        49.5371 
 451   0.0000       1.831311        49.8325 
 452   0.0000       1.851738        50.3884 
 453   0.0000       1.875585        51.0373 
 454   0.0000       1.877559        51.0910 
 455   0.0000       1.901497        51.7424 
 456   0.0000       1.908733        51.9393 
 457   0.0000       1.915311        52.1182 
 458   0.0000       1.933374        52.6098 
 459   0.0000       1.946950        52.9792 
 460   0.0000       1.962280        53.3964 
 461   0.0000       1.967054        53.5263 
 462   0.0000       1.976260        53.7768 
 463   0.0000       1.977936        53.8224 
 464   0.0000       1.981384        53.9162 
 465   0.0000       1.992317        54.2137 
 466   0.0000       2.001666        54.4681 
 467   0.0000       2.003137        54.5081 
 468   0.0000       2.005397        54.5696 
 469   0.0000       2.010732        54.7148 
 470   0.0000       2.021587        55.0102 
 471   0.0000       2.027484        55.1706 
 472   0.0000       2.034697        55.3669 
 473   0.0000       2.040483        55.5244 
 474   0.0000       2.044265        55.6273 
 475   0.0000       2.045578        55.6630 
 476   0.0000       2.057613        55.9905 
 477   0.0000       2.058056        56.0025 
 478   0.0000       2.063630        56.1542 
 479   0.0000       2.069413        56.3116 
 480   0.0000       2.072424        56.3935 
 481   0.0000       2.075262        56.4707 
 482   0.0000       2.079935        56.5979 
 483   0.0000       2.088896        56.8417 
 484   0.0000       2.101576        57.1868 
 485   0.0000       2.106410        57.3183 
 486   0.0000       2.111933        57.4686 
 487   0.0000       2.120376        57.6984 
 488   0.0000       2.124608        57.8135 
 489   0.0000       2.130793        57.9818 
 490   0.0000       2.135514        58.1103 
 491   0.0000       2.144417        58.3525 
 492   0.0000       2.151568        58.5472 
 493   0.0000       2.153445        58.5982 
 494   0.0000       2.166274        58.9473 
 495   0.0000       2.174709        59.1768 
 496   0.0000       2.181163        59.3525 
 497   0.0000       2.193164        59.6790 
 498   0.0000       2.197564        59.7988 
 499   0.0000       2.212774        60.2127 
 500   0.0000       2.216137        60.3042 
 501   0.0000       2.234645        60.8078 
 502   0.0000       2.237169        60.8765 
 503   0.0000       2.247270        61.1513 
 504   0.0000       2.264018        61.6071 
 505   0.0000       2.269214        61.7485 
 506   0.0000       2.275574        61.9215 
 507   0.0000       2.288392        62.2703 
 508   0.0000       2.290118        62.3173 
 509   0.0000       2.302214        62.6464 
 510   0.0000       2.319134        63.1068 
 511   0.0000       2.324201        63.2447 
 512   0.0000       2.342980        63.7557 
 513   0.0000       2.350476        63.9597 
 514   0.0000       2.363717        64.3200 
 515   0.0000       2.367010        64.4096 
 516   0.0000       2.377493        64.6949 
 517   0.0000       2.385411        64.9103 
 518   0.0000       2.386031        64.9272 
 519   0.0000       2.395772        65.1923 
 520   0.0000       2.399991        65.3071 
 521   0.0000       2.409153        65.5564 
 522   0.0000       2.410282        65.5871 
 523   0.0000       2.432474        66.1910 
 524   0.0000       2.438650        66.3591 
 525   0.0000       2.441602        66.4394 
 526   0.0000       2.446434        66.5709 
 527   0.0000       2.457574        66.8740 
 528   0.0000       2.460935        66.9654 
 529   0.0000       2.478746        67.4501 
 530   0.0000       2.487274        67.6822 
 531   0.0000       2.502114        68.0860 
 532   0.0000       2.511063        68.3295 
 533   0.0000       2.520394        68.5834 
 534   0.0000       2.530520        68.8590 
 535   0.0000       2.548752        69.3551 
 536   0.0000       2.557046        69.5808 
 537   0.0000       2.564358        69.7797 
 538   0.0000       2.572003        69.9877 
 539   0.0000       2.577834        70.1464 
 540   0.0000       2.591829        70.5273 
 541   0.0000       2.612201        71.0816 
 542   0.0000       2.613761        71.1241 
 543   0.0000       2.630321        71.5747 
 544   0.0000       2.631661        71.6111 
 545   0.0000       2.646514        72.0153 
 546   0.0000       2.649129        72.0865 
 547   0.0000       2.654568        72.2345 
 548   0.0000       2.667964        72.5990 
 549   0.0000       2.678112        72.8751 
 550   0.0000       2.681449        72.9659 
 551   0.0000       2.702856        73.5485 
 552   0.0000       2.712376        73.8075 
 553   0.0000       2.723027        74.0973 
 554   0.0000       2.728504        74.2464 
 555   0.0000       2.732543        74.3563 
 556   0.0000       2.737195        74.4829 
 557   0.0000       2.743545        74.6557 
 558   0.0000       2.750470        74.8441 
 559   0.0000       2.753213        74.9187 
 560   0.0000       2.760740        75.1236 
 561   0.0000       2.771344        75.4121 
 562   0.0000       2.782580        75.7178 
 563   0.0000       2.791968        75.9733 
 564   0.0000       2.800666        76.2100 
 565   0.0000       2.808707        76.4288 
 566   0.0000       2.814902        76.5974 
 567   0.0000       2.825293        76.8801 
 568   0.0000       2.829801        77.0028 
 569   0.0000       2.835756        77.1648 
 570   0.0000       2.845005        77.4165 
 571   0.0000       2.854658        77.6792 
 572   0.0000       2.859542        77.8121 
 573   0.0000       2.867799        78.0368 
 574   0.0000       2.875617        78.2495 
 575   0.0000       2.879339        78.3508 
 576   0.0000       2.882587        78.4392 
 577   0.0000       2.895383        78.7874 
 578   0.0000       2.904190        79.0270 
 579   0.0000       2.905628        79.0662 
 580   0.0000       2.914684        79.3126 
 581   0.0000       2.921674        79.5028 
 582   0.0000       2.923743        79.5591 
 583   0.0000       2.931687        79.7753 
 584   0.0000       2.939531        79.9887 
 585   0.0000       2.943927        80.1083 
 586   0.0000       2.951705        80.3200 
 587   0.0000       2.973528        80.9138 
 588   0.0000       2.976817        81.0033 
 589   0.0000       2.980806        81.1119 
 590   0.0000       2.991020        81.3898 
 591   0.0000       2.996622        81.5422 
 592   0.0000       3.002560        81.7038 
 593   0.0000       3.008523        81.8661 
 594   0.0000       3.015542        82.0571 
 595   0.0000       3.027026        82.3696 
 596   0.0000       3.029967        82.4496 
 597   0.0000       3.037091        82.6434 
 598   0.0000       3.044730        82.8513 
 599   0.0000       3.053973        83.1028 
 600   0.0000       3.065735        83.4229 
 601   0.0000       3.068248        83.4913 
 602   0.0000       3.077590        83.7455 
 603   0.0000       3.084443        83.9320 
 604   0.0000       3.090943        84.1088 
 605   0.0000       3.103590        84.4530 
 606   0.0000       3.106873        84.5423 
 607   0.0000       3.124604        85.0248 
 608   0.0000       3.137583        85.3780 
 609   0.0000       3.158661        85.9515 
 610   0.0000       3.168087        86.2080 
 611   0.0000       3.174368        86.3789 
 612   0.0000       3.179167        86.5095 
 613   0.0000       3.196642        86.9851 
 614   0.0000       3.200824        87.0988 
 615   0.0000       3.212421        87.4144 
 616   0.0000       3.228493        87.8518 
 617   0.0000       3.240893        88.1892 
 618   0.0000       3.247653        88.3731 
 619   0.0000       3.251597        88.4805 
 620   0.0000       3.254111        88.5489 
 621   0.0000       3.269196        88.9593 
 622   0.0000       3.285987        89.4163 
 623   0.0000       3.289015        89.4987 
 624   0.0000       3.306725        89.9806 
 625   0.0000       3.315522        90.2199 
 626   0.0000       3.324088        90.4530 
 627   0.0000       3.332168        90.6729 
 628   0.0000       3.347266        91.0837 
 629   0.0000       3.362358        91.4944 
 630   0.0000       3.371146        91.7335 
 631   0.0000       3.375424        91.8500 
 632   0.0000       3.394180        92.3603 
 633   0.0000       3.404074        92.6296 
 634   0.0000       3.410697        92.8098 
 635   0.0000       3.420497        93.0765 
 636   0.0000       3.428985        93.3074 
 637   0.0000       3.432597        93.4057 
 638   0.0000       3.438510        93.5666 
 639   0.0000       3.449041        93.8532 
 640   0.0000       3.462650        94.2235 
 641   0.0000       3.466492        94.3280 
 642   0.0000       3.474572        94.5479 
 643   0.0000       3.479174        94.6731 
 644   0.0000       3.494051        95.0780 
 645   0.0000       3.503287        95.3293 
 646   0.0000       3.516113        95.6783 
 647   0.0000       3.526318        95.9560 
 648   0.0000       3.531683        96.1020 
 649   0.0000       3.533671        96.1561 
 650   0.0000       3.537891        96.2709 
 651   0.0000       3.549634        96.5904 
 652   0.0000       3.556413        96.7749 
 653   0.0000       3.561266        96.9070 
 654   0.0000       3.566177        97.0406 
 655   0.0000       3.577237        97.3416 
 656   0.0000       3.583565        97.5138 
 657   0.0000       3.592919        97.7683 
 658   0.0000       3.605367        98.1070 
 659   0.0000       3.607361        98.1613 
 660   0.0000       3.609432        98.2176 
 661   0.0000       3.629951        98.7760 
 662   0.0000       3.636064        98.9423 
 663   0.0000       3.649336        99.3035 
 664   0.0000       3.655245        99.4643 
 665   0.0000       3.656065        99.4866 
 666   0.0000       3.663231        99.6816 
 667   0.0000       3.674225        99.9807 
 668   0.0000       3.684780       100.2680 
 669   0.0000       3.696010       100.5735 
 670   0.0000       3.700221       100.6881 
 671   0.0000       3.717385       101.1552 
 672   0.0000       3.721343       101.2629 
 673   0.0000       3.725162       101.3668 
 674   0.0000       3.728045       101.4453 
 675   0.0000       3.742445       101.8371 
 676   0.0000       3.756654       102.2238 
 677   0.0000       3.759776       102.3087 
 678   0.0000       3.770109       102.5899 
 679   0.0000       3.775083       102.7252 
 680   0.0000       3.777640       102.7948 
 681   0.0000       3.788240       103.0832 
 682   0.0000       3.812099       103.7325 
 683   0.0000       3.813667       103.7752 
 684   0.0000       3.817066       103.8677 
 685   0.0000       3.836296       104.3909 
 686   0.0000       3.837866       104.4336 
 687   0.0000       3.845815       104.6499 
 688   0.0000       3.857770       104.9753 
 689   0.0000       3.859169       105.0133 
 690   0.0000       3.879572       105.5685 
 691   0.0000       3.889037       105.8261 
 692   0.0000       3.899486       106.1104 
 693   0.0000       3.910759       106.4171 
 694   0.0000       3.916734       106.5798 
 695   0.0000       3.919494       106.6549 
 696   0.0000       3.943639       107.3119 
 697   0.0000       3.959784       107.7512 
 698   0.0000       3.962245       107.8182 
 699   0.0000       3.974141       108.1419 
 700   0.0000       3.986561       108.4798 
 701   0.0000       4.004186       108.9594 
 702   0.0000       4.026300       109.5612 
 703   0.0000       4.032135       109.7200 
 704   0.0000       4.066618       110.6583 
 705   0.0000       4.087391       111.2236 
 706   0.0000       4.102527       111.6354 
 707   0.0000       4.113116       111.9236 
 708   0.0000       4.129479       112.3688 
 709   0.0000       4.141705       112.7015 
 710   0.0000       4.166589       113.3787 
 711   0.0000       4.179001       113.7164 
 712   0.0000       4.189862       114.0119 
 713   0.0000       4.200525       114.3021 
 714   0.0000       4.212895       114.6387 
 715   0.0000       4.216203       114.7287 
 716   0.0000       4.227896       115.0469 
 717   0.0000       4.243988       115.4848 
 718   0.0000       4.251004       115.6757 
 719   0.0000       4.251245       115.6823 
 720   0.0000       4.287634       116.6725 
 721   0.0000       4.297806       116.9493 
 722   0.0000       4.304956       117.1438 
 723   0.0000       4.318382       117.5092 
 724   0.0000       4.336053       117.9900 
 725   0.0000       4.369256       118.8935 
 726   0.0000       4.379627       119.1757 
 727   0.0000       4.385504       119.3356 
 728   0.0000       4.408807       119.9697 
 729   0.0000       4.429102       120.5220 
 730   0.0000       4.438630       120.7813 
 731   0.0000       4.442637       120.8903 
 732   0.0000       4.461304       121.3983 
 733   0.0000       4.501548       122.4933 
 734   0.0000       4.523210       123.0828 
 735   0.0000       4.527097       123.1886 
 736   0.0000       4.543488       123.6346 
 737   0.0000       4.563192       124.1708 
 738   0.0000       4.576701       124.5384 
 739   0.0000       4.582287       124.6904 
 740   0.0000       4.621423       125.7553 
 741   0.0000       4.638506       126.2202 
 742   0.0000       4.651259       126.5672 
 743   0.0000       4.657755       126.7440 
 744   0.0000       4.676473       127.2533 
 745   0.0000       4.718519       128.3974 
 746   0.0000       4.720855       128.4610 
 747   0.0000       4.784432       130.1910 
 748   0.0000       4.806063       130.7796 
 749   0.0000       4.816976       131.0766 
 750   0.0000       4.848553       131.9358 
 751   0.0000       4.871889       132.5708 
 752   0.0000       4.885544       132.9424 
 753   0.0000       4.886088       132.9572 
 754   0.0000       4.904643       133.4621 
 755   0.0000       4.921046       133.9085 
 756   0.0000       4.923464       133.9743 
 757   0.0000       4.934698       134.2800 
 758   0.0000       4.961368       135.0057 
 759   0.0000       4.985631       135.6659 
 760   0.0000       4.996584       135.9640 
 761   0.0000       5.020040       136.6022 
 762   0.0000       5.029861       136.8695 
 763   0.0000       5.043284       137.2347 
 764   0.0000       5.066273       137.8603 
 765   0.0000       5.070569       137.9772 
 766   0.0000       5.092230       138.5666 
 767   0.0000       5.121291       139.3574 
 768   0.0000       5.156969       140.3283 
 769   0.0000       5.173967       140.7908 
 770   0.0000       5.177991       140.9003 
 771   0.0000       5.185359       141.1008 
 772   0.0000       5.213487       141.8662 
 773   0.0000       5.256352       143.0326 
 774   0.0000       5.281359       143.7131 
 775   0.0000       5.303112       144.3050 
 776   0.0000       5.313023       144.5747 
 777   0.0000       5.322195       144.8243 
 778   0.0000       5.340081       145.3110 
 779   0.0000       5.347774       145.5203 
 780   0.0000       5.351638       145.6255 
 781   0.0000       5.368460       146.0832 
 782   0.0000       5.374955       146.2600 
 783   0.0000       5.377406       146.3267 
 784   0.0000       5.387019       146.5882 
 785   0.0000       5.400487       146.9547 
 786   0.0000       5.416220       147.3828 
 787   0.0000       5.422475       147.5530 
 788   0.0000       5.430161       147.7622 
 789   0.0000       5.438802       147.9973 
 790   0.0000       5.447514       148.2344 
 791   0.0000       5.456449       148.4775 
 792   0.0000       5.482938       149.1983 
 793   0.0000       5.490693       149.4094 
 794   0.0000       5.514690       150.0623 
 795   0.0000       5.521470       150.2468 
 796   0.0000       5.541828       150.8008 
 797   0.0000       5.576870       151.7544 
 798   0.0000       5.594177       152.2253 
 799   0.0000       5.605232       152.5261 
 800   0.0000       5.630848       153.2232 
 801   0.0000       5.633248       153.2885 
 802   0.0000       5.664677       154.1437 
 803   0.0000       5.707449       155.3076 
 804   0.0000       5.767600       156.9444 
 805   0.0000       5.777227       157.2063 
 806   0.0000       5.797984       157.7712 
 807   0.0000       5.830090       158.6448 
 808   0.0000       5.841554       158.9568 
 809   0.0000       5.867698       159.6682 
 810   0.0000       5.881500       160.0438 
 811   0.0000       5.923281       161.1807 
 812   0.0000       5.948420       161.8647 
 813   0.0000       5.979798       162.7186 
 814   0.0000       6.090165       165.7218 
 815   0.0000       6.211325       169.0188 
 816   0.0000       6.258712       170.3082 
 817   0.0000       6.412235       174.4858 
 818   0.0000       6.515127       177.2856 
[...]
      dx2y2   :     0.121632
      dxy     :     0.126405
      f0      :     0.006387  f :     0.039445
      f+1     :     0.009201
      f-1     :     0.006400
      f+2     :     0.004213
      f-2     :     0.004638
      f+3     :     0.004270
      f-3     :     0.004337
  3 C s       :     2.700476  s :     2.700476
      pz      :     0.968884  p :     2.830405
      px      :     0.962404
      py      :     0.899118
      dz2     :     0.145878  d :     0.699507
      dxz     :     0.111515
      dyz     :     0.087374
      dx2y2   :     0.158004
      dxy     :     0.196735
      f0      :     0.004116  f :     0.031273
      f+1     :     0.003851
      f-1     :     0.002987
      f+2     :     0.003653
      f-2     :     0.004316
      f+3     :     0.005404
      f-3     :     0.006945
  4 H s       :     0.671031  s :     0.671031
      pz      :     0.069549  p :     0.212105
      px      :     0.074477
      py      :     0.068078
  5 H s       :     0.673751  s :     0.673751
      pz      :     0.101834  p :     0.215184
      px      :     0.054507
      py      :     0.058843
  6 S s       :     4.554785  s :     4.554785
      pz      :     2.773993  p :     8.340190
      px      :     2.785092
      py      :     2.781106
      dz2     :     0.532224  d :     2.294541
      dxz     :     0.509339
      dyz     :     0.355924
      dx2y2   :     0.469192
      dxy     :     0.427862
      f0      :     0.050193  f :     0.379539
      f+1     :     0.104338
      f-1     :     0.048445
      f+2     :     0.041361
      f-2     :     0.049653
      f+3     :     0.044224
      f-3     :     0.041326
  7 C s       :     2.585125  s :     2.585125
      pz      :     0.890739  p :     2.400798
      px      :     0.662516
      py      :     0.847543
      dz2     :     0.291823  d :     1.316367
      dxz     :     0.288700
      dyz     :     0.323011
      dx2y2   :     0.198705
      dxy     :     0.214129
      f0      :     0.015952  f :     0.132610
      f+1     :     0.019695
      f-1     :     0.038161
      f+2     :     0.015665
      f-2     :     0.018029
      f+3     :     0.011594
      f-3     :     0.013514
  8 N s       :     2.880384  s :     2.880384
      pz      :     1.103634  p :     3.554110
      px      :     1.336646
      py      :     1.113830
      dz2     :     0.094011  d :     0.350957
      dxz     :     0.062006
      dyz     :     0.141286
      dx2y2   :     0.038271
      dxy     :     0.015383
      f0      :     0.003492  f :     0.011100
      f+1     :     0.002157
      f-1     :     0.002703
      f+2     :     0.001200
      f-2     :     0.000299
      f+3     :     0.000391
      f-3     :     0.000859
  9 N s       :     2.890454  s :     2.890454
      pz      :     1.091682  p :     3.590518
      px      :     1.382000
      py      :     1.116836
      dz2     :     0.076349  d :     0.334104
      dxz     :     0.031247
      dyz     :     0.107184
      dx2y2   :     0.060493
      dxy     :     0.058831
      f0      :     0.001298  f :     0.010510
      f+1     :     0.000778
      f-1     :     0.002062
      f+2     :     0.001712
      f-2     :     0.001163
      f+3     :     0.001820
      f-3     :     0.001676
 10 H s       :     0.604985  s :     0.604985
      pz      :     0.125349  p :     0.280260
      px      :     0.086322
      py      :     0.068589
 11 H s       :     0.619887  s :     0.619887
      pz      :     0.080074  p :     0.253623
      px      :     0.080847
      py      :     0.092702
 12 H s       :     0.539119  s :     0.539119
      pz      :     0.103069  p :     0.389144
      px      :     0.122388
      py      :     0.163687
 13 H s       :     0.557507  s :     0.557507
      pz      :     0.089013  p :     0.396284
      px      :     0.089243
      py      :     0.218028
 14 H s       :     0.617913  s :     0.617913
      pz      :     0.071917  p :     0.245533
      px      :     0.078985
      py      :     0.094632
 15 O s       :     3.408663  s :     3.408663
      pz      :     1.592791  p :     4.644165
      px      :     1.520650
      py      :     1.530724
      dz2     :     0.052479  d :     0.311309
      dxz     :     0.056993
      dyz     :     0.041694
      dx2y2   :     0.090061
      dxy     :     0.070082
      f0      :     0.000507  f :     0.004279
      f+1     :     0.000550
      f-1     :     0.000244
      f+2     :     0.000407
      f-2     :     0.000940
      f+3     :     0.000625
      f-3     :     0.001007
 16 O s       :     3.454001  s :     3.454001
      pz      :     1.544780  p :     4.603159
      px      :     1.502362
      py      :     1.556017
      dz2     :     0.052801  d :     0.256411
      dxz     :     0.069521
      dyz     :     0.020128
      dx2y2   :     0.055270
      dxy     :     0.058691
      f0      :     0.000553  f :     0.004667
      f+1     :     0.000948
      f-1     :     0.000043
      f+2     :     0.001310
      f-2     :     0.000513
      f+3     :     0.000755
      f-3     :     0.000545
 17 C s       :     2.665148  s :     2.665148
      pz      :     0.929497  p :     2.774901
      px      :     0.914309
      py      :     0.931095
      dz2     :     0.174157  d :     0.728505
      dxz     :     0.083732
      dyz     :     0.094378
      dx2y2   :     0.166404
      dxy     :     0.209834
      f0      :     0.005228  f :     0.037954
      f+1     :     0.003562
      f-1     :     0.003341
      f+2     :     0.005993
      f-2     :     0.005362
      f+3     :     0.006628
      f-3     :     0.007840
 18 H s       :     0.653305  s :     0.653305
      pz      :     0.047804  p :     0.211472
      px      :     0.065997
      py      :     0.097670
 19 H s       :     0.671946  s :     0.671946
      pz      :     0.053172  p :     0.202895
      px      :     0.057896
      py      :     0.091827
 20 C s       :     2.658017  s :     2.658017
      pz      :     0.916152  p :     2.775070
      px      :     0.931320
      py      :     0.927597
      dz2     :     0.179568  d :     0.765559
      dxz     :     0.196603
      dyz     :     0.132081
      dx2y2   :     0.104597
      dxy     :     0.152710
      f0      :     0.006512  f :     0.038906
      f+1     :     0.008952
      f-1     :     0.005708
      f+2     :     0.003914
      f-2     :     0.004764
      f+3     :     0.004432
      f-3     :     0.004623
 21 C s       :     2.648968  s :     2.648968
      pz      :     0.910296  p :     2.764714
      px      :     0.920621
      py      :     0.933797
      dz2     :     0.181986  d :     0.785788
      dxz     :     0.192683
      dyz     :     0.149552
      dx2y2   :     0.097130
      dxy     :     0.164437
      f0      :     0.006687  f :     0.039394
      f+1     :     0.009287
      f-1     :     0.006087
      f+2     :     0.004021
      f-2     :     0.004355
      f+3     :     0.004737
      f-3     :     0.004221
 22 H s       :     0.668729  s :     0.668729
      pz      :     0.057805  p :     0.193335
      px      :     0.062808
      py      :     0.072722
 23 H s       :     0.637045  s :     0.637045
      pz      :     0.076851  p :     0.273864
      px      :     0.082346
      py      :     0.114668
 24 H s       :     0.674718  s :     0.674718
      pz      :     0.054596  p :     0.201125
      px      :     0.055453
      py      :     0.091076
 25 H s       :     0.657233  s :     0.657233
      pz      :     0.059599  p :     0.224220
      px      :     0.075274
      py      :     0.089347
 26 C s       :     2.655906  s :     2.655906
      pz      :     0.937213  p :     2.769878
      px      :     0.926043
      py      :     0.906621
      dz2     :     0.190579  d :     0.761145
      dxz     :     0.049752
      dyz     :     0.158041
      dx2y2   :     0.219049
      dxy     :     0.143725
      f0      :     0.004349  f :     0.038816
      f+1     :     0.002868
      f-1     :     0.006684
      f+2     :     0.005239
      f-2     :     0.006250
      f+3     :     0.006686
      f-3     :     0.006740
 27 H s       :     0.671799  s :     0.671799
      pz      :     0.098168  p :     0.202861
      px      :     0.048631
      py      :     0.056062
 28 H s       :     0.674457  s :     0.674457
      pz      :     0.063836  p :     0.214436
      px      :     0.064742
      py      :     0.085858
 29 C s       :     2.656726  s :     2.656726
      pz      :     0.922906  p :     2.770680
      px      :     0.933723
      py      :     0.914051
      dz2     :     0.200781  d :     0.770371
      dxz     :     0.052090
      dyz     :     0.142751
      dx2y2   :     0.218546
      dxy     :     0.156203
      f0      :     0.004216  f :     0.038581
      f+1     :     0.003274
      f-1     :     0.006467
      f+2     :     0.004961
      f-2     :     0.005996
      f+3     :     0.006725
      f-3     :     0.006942
 30 H s       :     0.672796  s :     0.672796
      pz      :     0.051591  p :     0.198723
      px      :     0.095357
      py      :     0.051774
 31 H s       :     0.650554  s :     0.650554
      pz      :     0.100909  p :     0.232888
      px      :     0.065246
      py      :     0.066733
 32 C s       :     2.663706  s :     2.663706
      pz      :     0.930165  p :     2.783992
      px      :     0.931087
      py      :     0.922740
      dz2     :     0.166862  d :     0.743679
      dxz     :     0.128105
      dyz     :     0.208414
      dx2y2   :     0.141981
      dxy     :     0.098317
      f0      :     0.006260  f :     0.038124
      f+1     :     0.006633
      f-1     :     0.007887
      f+2     :     0.004025
      f-2     :     0.004881
      f+3     :     0.004870
      f-3     :     0.003568
 33 H s       :     0.675758  s :     0.675758
      pz      :     0.094652  p :     0.201025
      px      :     0.053060
      py      :     0.053312
 34 H s       :     0.657089  s :     0.657089
      pz      :     0.068293  p :     0.230627
      px      :     0.100714
      py      :     0.061621
 35 H s       :     0.664037  s :     0.664037
      pz      :     0.066043  p :     0.218499
      px      :     0.062948
      py      :     0.089508
 36 H s       :     0.677195  s :     0.677195
      pz      :     0.054694  p :     0.200020
      px      :     0.056232
      py      :     0.089094
 37 H s       :     0.677448  s :     0.677448
      pz      :     0.060032  p :     0.202633
      px      :     0.064975
      py      :     0.077626
 38 H s       :     0.678989  s :     0.678989
      pz      :     0.053041  p :     0.202739
      px      :     0.096228
      py      :     0.053469
 39 O s       :     3.405419  s :     3.405419
      pz      :     1.461110  p :     4.642522
      px      :     1.610673
      py      :     1.570739
      dz2     :     0.096643  d :     0.318449
      dxz     :     0.082992
      dyz     :     0.077925
      dx2y2   :     0.019405
      dxy     :     0.041484
      f0      :     0.001798  f :     0.004267
      f+1     :     0.000924
      f-1     :     0.001061
      f+2     :     0.000204
      f-2     :     0.000214
      f+3     :     0.000048
      f-3     :     0.000018


                      *****************************
                      * MAYER POPULATION ANALYSIS *
                      *****************************

  NA   - Mulliken gross atomic population
  ZA   - Total nuclear charge
  QA   - Mulliken gross atomic charge
  VA   - Mayer's total valence
  BVA  - Mayer's bonded valence
  FA   - Mayer's free valence

  ATOM       NA         ZA         QA         VA         BVA        FA
  0 C      7.1939     6.0000    -1.1939     2.8369     2.8369     0.0000
  1 N      6.9894     7.0000     0.0106     2.9606     2.9606     0.0000
  2 C      6.8338     6.0000    -0.8338     3.2571     3.2571    -0.0000
  3 C      6.9770     6.0000    -0.9770     4.0077     4.0077    -0.0000
  4 H      0.5861     1.0000     0.4139     0.9462     0.9462     0.0000
  5 H      0.5726     1.0000     0.4274     0.8710     0.8710    -0.0000
  6 S     14.6877    16.0000     1.3123     5.0355     5.0355    -0.0000
  7 C      5.1579     6.0000     0.8421     2.4702     2.4702    -0.0000
  8 N      7.2533     7.0000    -0.2533     2.9321     2.9321     0.0000
  9 N      7.4218     7.0000    -0.4218     3.0977     3.0977     0.0000
 10 H      0.7445     1.0000     0.2555     0.9462     0.9462     0.0000
 11 H      0.7987     1.0000     0.2013     0.9223     0.9223     0.0000
 12 H      0.9023     1.0000     0.0977     0.7526     0.7526    -0.0000
 13 H      0.8014     1.0000     0.1986     0.9426     0.9426     0.0000
 14 H      0.8002     1.0000     0.1998     0.8996     0.8996     0.0000
 15 O      8.9357     8.0000    -0.9357     1.2989     1.2989     0.0000
 16 O      8.6661     8.0000    -0.6661     1.5565     1.5565    -0.0000
 17 C      6.6424     6.0000    -0.6424     3.2525     3.2525     0.0000
 18 H      0.5647     1.0000     0.4353     0.8145     0.8145    -0.0000
 19 H      0.5183     1.0000     0.4817     0.6785     0.6785     0.0000
 20 C      6.8761     6.0000    -0.8761     3.2494     3.2494    -0.0000
 21 C      6.3555     6.0000    -0.3555     3.0315     3.0315     0.0000
 22 H      0.6605     1.0000     0.3395     0.9795     0.9795     0.0000
 23 H      0.6725     1.0000     0.3275     1.0551     1.0551    -0.0000
 24 H      0.6140     1.0000     0.3860     0.9379     0.9379    -0.0000
 25 H      0.5843     1.0000     0.4157     0.9559     0.9559    -0.0000
 26 C      6.5069     6.0000    -0.5069     2.9542     2.9542     0.0000
 27 H      0.5648     1.0000     0.4352     0.8929     0.8929     0.0000
 28 H      0.5587     1.0000     0.4413     0.8899     0.8899     0.0000
 29 C      6.8853     6.0000    -0.8853     3.2375     3.2375    -0.0000
 30 H      0.6536     1.0000     0.3464     0.9547     0.9547     0.0000
 31 H      0.6694     1.0000     0.3306     1.0133     1.0133     0.0000
 32 C      6.8849     6.0000    -0.8849     3.5868     3.5868    -0.0000
 33 H      0.6258     1.0000     0.3742     0.9770     0.9770     0.0000
 34 H      0.5685     1.0000     0.4315     0.8704     0.8704    -0.0000
 35 H      0.5709     1.0000     0.4291     0.9024     0.9024     0.0000
 36 H      0.6020     1.0000     0.3980     0.9237     0.9237    -0.0000
 37 H      0.6250     1.0000     0.3750     0.9602     0.9602    -0.0000
 38 H      0.6196     1.0000     0.3804     0.9704     0.9704    -0.0000
 39 O      8.8542     8.0000    -0.8542     1.3546     1.3546    -0.0000

  Mayer bond orders larger than 0.100000
B(  0-C ,  1-N ) :   0.9036 B(  0-C ,  7-C ) :  -0.1670 B(  0-C ,  9-N ) :   0.1176 
B(  0-C , 12-H ) :  -0.1878 B(  0-C , 17-C ) :   0.6589 B(  0-C , 18-H ) :   0.7673 
B(  0-C , 19-H ) :   0.7708 B(  1-N ,  7-C ) :   1.1584 B(  1-N , 12-H ) :   0.9563 
B(  1-N , 39-O ) :  -0.2162 B(  2-C ,  3-C ) :   0.8312 B(  2-C , 20-C ) :   0.2402 
B(  2-C , 21-C ) :   0.4946 B(  2-C , 24-H ) :   0.9041 B(  2-C , 25-H ) :   0.8319 
B(  3-C ,  4-H ) :   0.8468 B(  3-C ,  5-H ) :   0.9315 B(  3-C ,  6-S ) :   0.9646 
B(  3-C , 16-O ) :   0.1637 B(  6-S , 15-O ) :   1.1233 B(  6-S , 16-O ) :   1.3764 
B(  6-S , 39-O ) :   1.4103 B(  7-C ,  8-N ) :   1.0102 B(  7-C ,  9-N ) :   0.9929 
B(  7-C , 12-H ) :  -0.2620 B(  8-N , 13-H ) :   0.8855 B(  8-N , 14-H ) :   1.0514 
B(  8-N , 15-O ) :  -0.1546 B(  9-N , 10-H ) :   0.9333 B(  9-N , 11-H ) :   1.0396 
B( 12-H , 39-O ) :   0.1414 B( 15-O , 39-O ) :   0.1009 B( 17-C , 26-C ) :   0.8611 
B( 17-C , 27-H ) :   0.8950 B( 17-C , 28-H ) :   0.7908 B( 20-C , 21-C ) :   0.4704 
B( 20-C , 26-C ) :   0.1013 B( 20-C , 32-C ) :   0.8167 B( 20-C , 35-H ) :   0.9029 
B( 20-C , 36-H ) :   0.8659 B( 21-C , 22-H ) :   0.8289 B( 21-C , 23-H ) :   1.0537 
B( 21-C , 29-C ) :   0.1518 B( 21-C , 39-O ) :   0.1279 B( 22-H , 23-H ) :   0.2356 
B( 23-H , 39-O ) :  -0.2163 B( 26-C , 29-C ) :   0.3788 B( 26-C , 30-H ) :   0.9447 
B( 26-C , 31-H ) :   0.9189 B( 26-C , 34-H ) :  -0.1118 B( 29-C , 32-C ) :   0.8738 
B( 29-C , 33-H ) :   0.9005 B( 29-C , 34-H ) :   0.9548 B( 32-C , 37-H ) :   0.9335 
B( 32-C , 38-H ) :   0.9452 

-------
TIMINGS
-------

Total SCF time: 0 days 0 hours 11 min 56 sec 

Total time                  ....     716.538 sec
Sum of individual times     ....     714.499 sec  ( 99.7%)

Fock matrix formation       ....     698.041 sec  ( 97.4%)
  Split-RI-J                ....      33.539 sec  (  4.8% of F)
  Chain of spheres X        ....     596.378 sec  ( 85.4% of F)
  XC integration            ....      67.416 sec  (  9.7% of F)
    Basis function eval.    ....      11.738 sec  ( 17.4% of XC)
    Density eval.           ....      30.340 sec  ( 45.0% of XC)
    XC-Functional eval.     ....       1.030 sec  (  1.5% of XC)
    XC-Potential eval.      ....      22.495 sec  ( 33.4% of XC)
Diagonalization             ....       2.465 sec  (  0.3%)
Density matrix formation    ....       0.137 sec  (  0.0%)
Population analysis         ....       0.255 sec  (  0.0%)
Initial guess               ....       3.665 sec  (  0.5%)
Orbital Transformation      ....       0.000 sec  (  0.0%)
Orbital Orthonormalization  ....       0.000 sec  (  0.0%)
DIIS solution               ....       1.284 sec  (  0.2%)
SOSCF solution              ....       1.459 sec  (  0.2%)
Grid generation             ....       7.193 sec  (  1.0%)

Maximum memory used throughout the entire SCF-calculation: 199.0 MB

-------------------------   --------------------
FINAL SINGLE POINT ENERGY     -1180.633296578443
-------------------------   --------------------


                            ***************************************
                            *     ORCA property calculations      *
                            ***************************************

                                    ---------------------
                                    Active property flags
                                    ---------------------
   (+) Dipole Moment


------------------------------------------------------------------------------
                       ORCA ELECTRIC PROPERTIES CALCULATION
------------------------------------------------------------------------------

Dipole Moment Calculation                       ... on
Quadrupole Moment Calculation                   ... off
Polarizability Calculation                      ... off
GBWName                                         ... 28Oct_TZVPD_LC_PBE_B_wt_wb97.gbw
Electron density file                           ... 28Oct_TZVPD_LC_PBE_B_wt_wb97.scfp
The origin for moment calculation is the CENTER OF MASS  = ( 8.583389, -1.026468 -8.818666)

-------------
DIPOLE MOMENT
-------------
                                X             Y             Z
Electronic contribution:    -14.47403       8.33187     -15.27805
Nuclear contribution   :     16.79156      -5.47215      17.54258
                        -----------------------------------------
Total Dipole Moment    :      2.31754       2.85972       2.26453
                        -----------------------------------------
Magnitude (a.u.)       :      4.32170
Magnitude (Debye)      :     10.98489



--------------------
Rotational spectrum 
--------------------
 
Rotational constants in cm-1:     0.014207     0.012373     0.007472 
Rotational constants in MHz :   425.900436   370.942493   224.006604 

 Dipole components along the rotational axes: 
x,y,z [a.u.] :     4.040132    -1.301548    -0.812661 
x,y,z [Debye]:    10.269199    -3.308273    -2.065620 

 

Timings for individual modules:

Sum of individual times         ...      718.701 sec (=  11.978 min)
GTO integral calculation        ...        1.714 sec (=   0.029 min)   0.2 %
SCF iterations                  ...      716.988 sec (=  11.950 min)  99.8 %
                             ****ORCA TERMINATED NORMALLY****
TOTAL RUN TIME: 0 days 0 hours 11 minutes 59 seconds 612 msec
