
                                        *****************
                                        * O   R   C   A *
                                        *****************

                                            #,                                       
                                            ###                                      
                                            ####                                     
                                            #####                                    
                                            ######                                   
                                           ########,                                 
                                     ,,################,,,,,                         
                               ,,#################################,,                 
                          ,,##########################################,,             
                       ,#########################################, ''#####,          
                    ,#############################################,,   '####,        
                  ,##################################################,,,,####,       
                ,###########''''           ''''###############################       
              ,#####''   ,,,,##########,,,,          '''####'''          '####       
            ,##' ,,,,###########################,,,                        '##       
           ' ,,###''''                  '''############,,,                           
         ,,##''                                '''############,,,,        ,,,,,,###''
      ,#''                                            '''#######################'''  
     '                                                          ''''####''''         
             ,#######,   #######,   ,#######,      ##                                
            ,#'     '#,  ##    ##  ,#'     '#,    #''#        ######   ,####,        
            ##       ##  ##   ,#'  ##            #'  '#       #        #'  '#        
            ##       ##  #######   ##           ,######,      #####,   #    #        
            '#,     ,#'  ##    ##  '#,     ,#' ,#      #,         ##   #,  ,#        
             '#######'   ##     ##  '#######'  #'      '#     #####' # '####'        



                  #######################################################
                  #                        -***-                        #
                  #          Department of theory and spectroscopy      #
                  #    Directorship and core code : Frank Neese         #
                  #        Max Planck Institute fuer Kohlenforschung    #
                  #                Kaiser Wilhelm Platz 1               #
                  #                 D-45470 Muelheim/Ruhr               #
                  #                      Germany                        #
                  #                                                     #
                  #                  All rights reserved                #
                  #                        -***-                        #
                  #######################################################


                         Program Version 5.0.0 -  RELEASE  -
                                (SVN: $Rev: 19529$)
                ($Date: 2021-06-28 11:36:33 +0200 (Mo, 28 Jun 2021) $)


 With contributions from (in alphabetic order):
   Daniel Aravena         : Magnetic Suceptibility
   Michael Atanasov       : Ab Initio Ligand Field Theory (pilot matlab implementation)
   Alexander A. Auer      : GIAO ZORA, VPT2 properties, NMR spectrum
   Ute Becker             : Parallelization
   Giovanni Bistoni       : ED, misc. LED, open-shell LED, HFLD
   Martin Brehm           : Molecular dynamics
   Dmytro Bykov           : SCF Hessian
   Vijay G. Chilkuri      : MRCI spin determinant printing, contributions to CSF-ICE
   Dipayan Datta          : RHF DLPNO-CCSD density
   Achintya Kumar Dutta   : EOM-CC, STEOM-CC
   Dmitry Ganyushin       : Spin-Orbit,Spin-Spin,Magnetic field MRCI
   Miquel Garcia          : C-PCM Hessian, Gaussian charge scheme
   Yang Guo               : DLPNO-NEVPT2, F12-NEVPT2, CIM, IAO-localization
   Andreas Hansen         : Spin unrestricted coupled pair/coupled cluster methods
   Benjamin Helmich-Paris : MC-RPA, TRAH-SCF, COSX integrals
   Lee Huntington         : MR-EOM, pCC
   Robert Izsak           : Overlap fitted RIJCOSX, COSX-SCS-MP3, EOM
   Marcus Kettner         : VPT2
   Christian Kollmar      : KDIIS, OOCD, Brueckner-CCSD(T), CCSD density, CASPT2, CASPT2-K
   Simone Kossmann        : Meta GGA functionals, TD-DFT gradient, OOMP2, MP2 Hessian
   Martin Krupicka        : Initial AUTO-CI
   Lucas Lang             : DCDCAS
   Marvin Lechner         : AUTO-CI (C++ implementation), FIC-MRCC
   Dagmar Lenk            : GEPOL surface, SMD
   Dimitrios Liakos       : Extrapolation schemes; Compound Job, initial MDCI parallelization
   Dimitrios Manganas     : Further ROCIS development; embedding schemes
   Dimitrios Pantazis     : SARC Basis sets
   Anastasios Papadopoulos: AUTO-CI, single reference methods and gradients
   Taras Petrenko         : DFT Hessian,TD-DFT gradient, ASA, ECA, R-Raman, ABS, FL, XAS/XES, NRVS
   Peter Pinski           : DLPNO-MP2, DLPNO-MP2 Gradient
   Christoph Reimann      : Effective Core Potentials
   Marius Retegan         : Local ZFS, SOC
   Christoph Riplinger    : Optimizer, TS searches, QM/MM, DLPNO-CCSD(T), (RO)-DLPNO pert. Triples
   Tobias Risthaus        : Range-separated hybrids, TD-DFT gradient, RPA, STAB
   Michael Roemelt        : Original ROCIS implementation
   Masaaki Saitow         : Open-shell DLPNO-CCSD energy and density
   Barbara Sandhoefer     : DKH picture change effects
   Avijit Sen             : IP-ROCIS
   Kantharuban Sivalingam : CASSCF convergence, NEVPT2, FIC-MRCI
   Bernardo de Souza      : ESD, SOC TD-DFT
   Georgi Stoychev        : AutoAux, RI-MP2 NMR
   Willem Van den Heuvel  : Paramagnetic NMR
   Boris Wezisla          : Elementary symmetry handling
   Frank Wennmohs         : Technical directorship


 We gratefully acknowledge several colleagues who have allowed us to
 interface, adapt or use parts of their codes:
   Stefan Grimme, W. Hujo, H. Kruse, P. Pracht,  : VdW corrections, initial TS optimization,
                  C. Bannwarth, S. Ehlert          DFT functionals, gCP, sTDA/sTD-DF
   Ed Valeev, F. Pavosevic, A. Kumar             : LibInt (2-el integral package), F12 methods
   Garnet Chan, S. Sharma, J. Yang, R. Olivares  : DMRG
   Ulf Ekstrom                                   : XCFun DFT Library
   Mihaly Kallay                                 : mrcc  (arbitrary order and MRCC methods)
   Jiri Pittner, Ondrej Demel                    : Mk-CCSD
   Frank Weinhold                                : gennbo (NPA and NBO analysis)
   Christopher J. Cramer and Donald G. Truhlar   : smd solvation model
   Lars Goerigk                                  : TD-DFT with DH, B97 family of functionals
   V. Asgeirsson, H. Jonsson                     : NEB implementation
   FAccTs GmbH                                   : IRC, NEB, NEB-TS, DLPNO-Multilevel, CI-OPT
                                                   MM, QMMM, 2- and 3-layer-ONIOM, Crystal-QMMM,
                                                   LR-CPCM, SF, NACMEs, symmetry and pop. for TD-DFT,
                                                   nearIR, NL-DFT gradient (VV10), updates on ESD,
                                                   ML-optimized integration grids
   S Lehtola, MJT Oliveira, MAL Marques          : LibXC Library
   Liviu Ungur et al                             : ANISO software


 Your calculation uses the libint2 library for the computation of 2-el integrals
 For citations please refer to: http://libint.valeyev.net

 Your ORCA version has been built with support for libXC version: 5.1.0
 For citations please refer to: https://tddft.org/programs/libxc/

 This ORCA versions uses:
   CBLAS   interface :  Fast vector & matrix operations
   LAPACKE interface :  Fast linear algebra routines
   SCALAPACK package :  Parallel linear algebra routines
   Shared memory     :  Shared parallel matrices
   BLAS/LAPACK       :  OpenBLAS 0.3.15  USE64BITINT DYNAMIC_ARCH NO_AFFINITY Haswell SINGLE_THREADED
        Core in use  :  Haswell
   Copyright (c) 2011-2014, The OpenBLAS Project


================================================================================

----- Orbital basis set information -----
Your calculation utilizes the basis: def2-TZVPD
   F. Weigend and R. Ahlrichs, Phys. Chem. Chem. Phys. 7, 3297 (2005).
   D. Rappoport and F. Furche, J. Chem. Phys. 133 134105 (2010).

----- AuxJ basis set information -----
Your calculation utilizes the auxiliary basis: def2/J
   F. Weigend, Phys. Chem. Chem. Phys. 8, 1057 (2006).

================================================================================
                                        WARNINGS
                       Please study these warnings very carefully!
================================================================================


INFO   : the flag for use of the SHARK integral package has been found!

================================================================================
                                       INPUT FILE
================================================================================
NAME = TZVPD_LC_PBE_C1_wt_dlpno_pos.com
|  1> !LC-PBE RIJCOSX def2-TZVPD def2/J TightSCF
|  2> *xyz 0 1 
|  3> C          4.49059        1.15590       -2.46929
|  4> C          4.30539        1.22276       -3.90832
|  5> C          4.63192        2.24637       -4.67096
|  6> N          4.54169        2.14399       -5.98714
|  7> N          5.08409        3.39358       -4.11855
|  8> H          4.92067        3.57050       -3.13587
|  9> H          5.25465        4.19739       -4.70696
| 10> H          3.82453        0.44911       -4.35093
| 11> H          4.34337        1.24932       -6.41665
| 12> H          4.67671        2.95662       -6.57411
| 13> C          5.94213        0.93950       -2.03689
| 14> H          3.86431        0.32853       -2.13661
| 15> H          4.07623        2.04999       -1.98901
| 16> H          6.32982        0.06401       -2.51451
| 17> H          5.98308        0.81426       -0.97504
| 18> H          6.52865        1.78889       -2.31873
| 19> *
| 20> 
| 21> %MaxCore 64000
| 22> 
| 23> %pal nprocs 4
| 24> end  
| 25> 
| 26> %scf
| 27>   MaxIter 150
| 28> end
| 29> 
| 30> 
| 31>                          ****END OF INPUT****
================================================================================

                       ****************************
                       * Single Point Calculation *
                       ****************************

---------------------------------
CARTESIAN COORDINATES (ANGSTROEM)
---------------------------------
  C      4.490590    1.155900   -2.469290
  C      4.305390    1.222760   -3.908320
  C      4.631920    2.246370   -4.670960
  N      4.541690    2.143990   -5.987140
  N      5.084090    3.393580   -4.118550
  H      4.920670    3.570500   -3.135870
  H      5.254650    4.197390   -4.706960
  H      3.824530    0.449110   -4.350930
  H      4.343370    1.249320   -6.416650
  H      4.676710    2.956620   -6.574110
  C      5.942130    0.939500   -2.036890
  H      3.864310    0.328530   -2.136610
  H      4.076230    2.049990   -1.989010
  H      6.329820    0.064010   -2.514510
  H      5.983080    0.814260   -0.975040
  H      6.528650    1.788890   -2.318730

----------------------------
CARTESIAN COORDINATES (A.U.)
----------------------------
  NO LB      ZA    FRAG     MASS         X           Y           Z
   0 C     6.0000    0    12.011    8.485985    2.184334   -4.666282
   1 C     6.0000    0    12.011    8.136008    2.310682   -7.385654
   2 C     6.0000    0    12.011    8.753060    4.245024   -8.826835
   3 N     7.0000    0    14.007    8.582550    4.051554  -11.314055
   4 N     7.0000    0    14.007    9.607538    6.412937   -7.782932
   5 H     1.0000    0     1.008    9.298719    6.747267   -5.925935
   6 H     1.0000    0     1.008    9.929849    7.931918   -8.894865
   7 H     1.0000    0     1.008    7.227314    0.848695   -8.222066
   8 H     1.0000    0     1.008    8.207780    2.360873  -12.125711
   9 H     1.0000    0     1.008    8.837701    5.587202  -12.423267
  10 C     6.0000    0    12.011   11.228998    1.775398   -3.849164
  11 H     1.0000    0     1.008    7.302488    0.620832   -4.037608
  12 H     1.0000    0     1.008    7.702958    3.873920   -3.758684
  13 H     1.0000    0     1.008   11.961626    0.120961   -4.751735
  14 H     1.0000    0     1.008   11.306383    1.538728   -1.842559
  15 H     1.0000    0     1.008   12.337361    3.380512   -4.381765

--------------------------------
INTERNAL COORDINATES (ANGSTROEM)
--------------------------------
 C      0   0   0     0.000000000000     0.00000000     0.00000000
 C      1   0   0     1.452438170973     0.00000000     0.00000000
 C      2   1   0     1.317580753730   125.28453029     0.00000000
 N      3   2   1     1.323235772529   119.91566171   173.18826598
 N      3   2   1     1.351186627043   120.39112332   354.48821383
 H      5   3   2     1.011764184581   119.43884036   342.13850582
 H      5   3   2     1.010656993149   119.58539031   185.29632085
 H      2   1   3     1.012750845075   117.28263783   184.79039578
 H      4   3   2     1.012049441184   120.25788289   351.78722447
 H      4   3   2     1.011499727237   120.39384801   172.23558929
 C      1   2   3     1.529956565266   114.04780337   285.32676705
 H      1   2   3     1.089698920666   105.31614526   163.90058499
 H      1   2   3     1.096248154434   110.38507371    50.41661390
 H     11   1   2     1.070003336724   109.47101574   305.03093902
 H     11   1   2     1.069994104002   109.47140393   185.03055546
 H     11   1   2     1.070001340233   109.47108837    65.03054338

---------------------------
INTERNAL COORDINATES (A.U.)
---------------------------
 C      0   0   0     0.000000000000     0.00000000     0.00000000
 C      1   0   0     2.744710369593     0.00000000     0.00000000
 C      2   1   0     2.489866783875   125.28453029     0.00000000
 N      3   2   1     2.500553220687   119.91566171   173.18826598
 N      3   2   1     2.553372680928   120.39112332   354.48821383
 H      5   3   2     1.911957220967   119.43884036   342.13850582
 H      5   3   2     1.909864932383   119.58539031   185.29632085
 H      2   1   3     1.913821739089   117.28263783   184.79039578
 H      4   3   2     1.912496277825   120.25788289   351.78722447
 H      4   3   2     1.911457469013   120.39384801   172.23558929
 C      1   2   3     2.891198905147   114.04780337   285.32676705
 H      1   2   3     2.059232528488   105.31614526   163.90058499
 H      1   2   3     2.071608786697   110.38507371    50.41661390
 H     11   1   2     2.022013268790   109.47101574   305.03093902
 H     11   1   2     2.021995821475   109.47140393   185.03055546
 H     11   1   2     2.022009495969   109.47108837    65.03054338

---------------------
BASIS SET INFORMATION
---------------------
There are 3 groups of distinct atoms

 Group   1 Type C   : 12s6p3d1f contracted to 6s3p3d1f pattern {621111/411/111/1}
 Group   2 Type N   : 12s6p3d1f contracted to 6s3p3d1f pattern {621111/411/111/1}
 Group   3 Type H   : 5s2p contracted to 3s2p pattern {311/11}

Atom   0C    basis set group =>   1
Atom   1C    basis set group =>   1
Atom   2C    basis set group =>   1
Atom   3N    basis set group =>   2
Atom   4N    basis set group =>   2
Atom   5H    basis set group =>   3
Atom   6H    basis set group =>   3
Atom   7H    basis set group =>   3
Atom   8H    basis set group =>   3
Atom   9H    basis set group =>   3
Atom  10C    basis set group =>   1
Atom  11H    basis set group =>   3
Atom  12H    basis set group =>   3
Atom  13H    basis set group =>   3
Atom  14H    basis set group =>   3
Atom  15H    basis set group =>   3
---------------------------------
AUXILIARY/J BASIS SET INFORMATION
---------------------------------
There are 3 groups of distinct atoms

 Group   1 Type C   : 12s5p4d2f1g contracted to 6s4p3d1f1g pattern {711111/2111/211/2/1}
 Group   2 Type N   : 12s5p4d2f1g contracted to 6s4p3d1f1g pattern {711111/2111/211/2/1}
 Group   3 Type H   : 5s2p1d contracted to 3s1p1d pattern {311/2/1}

Atom   0C    basis set group =>   1
Atom   1C    basis set group =>   1
Atom   2C    basis set group =>   1
Atom   3N    basis set group =>   2
Atom   4N    basis set group =>   2
Atom   5H    basis set group =>   3
Atom   6H    basis set group =>   3
Atom   7H    basis set group =>   3
Atom   8H    basis set group =>   3
Atom   9H    basis set group =>   3
Atom  10C    basis set group =>   1
Atom  11H    basis set group =>   3
Atom  12H    basis set group =>   3
Atom  13H    basis set group =>   3
Atom  14H    basis set group =>   3
Atom  15H    basis set group =>   3


           ************************************************************
           *        Program running with 4 parallel MPI-processes     *
           *              working on a common directory               *
           ************************************************************
------------------------------------------------------------------------------
                           ORCA GTO INTEGRAL CALCULATION
                           -- RI-GTO INTEGRALS CHOSEN --
------------------------------------------------------------------------------
------------------------------------------------------------------------------
                   ___                                                        
                  /   \      - P O W E R E D   B Y -                         
                 /     \                                                     
                 |  |  |   _    _      __       _____    __    __             
                 |  |  |  | |  | |    /  \     |  _  \  |  |  /  |          
                  \  \/   | |  | |   /    \    | | | |  |  | /  /          
                 / \  \   | |__| |  /  /\  \   | |_| |  |  |/  /          
                |  |  |   |  __  | /  /__\  \  |    /   |      \           
                |  |  |   | |  | | |   __   |  |    \   |  |\   \          
                \     /   | |  | | |  |  |  |  | |\  \  |  | \   \       
                 \___/    |_|  |_| |__|  |__|  |_| \__\ |__|  \__/        
                                                                              
                      - O R C A' S   B I G   F R I E N D -                    
                                      &                                       
                       - I N T E G R A L  F E E D E R -                       
                                                                              
 v1 FN, 2020, v2 2021                                                         
------------------------------------------------------------------------------


Reading SHARK input file TZVPD_LC_PBE_C1_wt_dlpno_pos.SHARKINP.tmp ... ok
----------------------
SHARK INTEGRAL PACKAGE
----------------------

Number of atoms                             ...     16
Number of basis functions                   ...    312
Number of shells                            ...    128
Maximum angular momentum                    ...      3
Integral batch strategy                     ... SHARK/LIBINT Hybrid
RI-J (if used) integral strategy            ... SPLIT-RIJ (Revised 2003 algorithm where possible)
Printlevel                                  ...      1
Contraction scheme used                     ... SEGMENTED contraction
Coulomb Range Separation                    ... NOT USED
Exchange Range Separation                   ... Long Range
   Mu parameter                             ...  0.470000
   Scaling (regular/separated)              ...  0.000000  1.000000
Finite Nucleus Model                        ... NOT USED
Auxiliary Coulomb fitting basis             ... AVAILABLE
   # of basis functions in Aux-J            ...    404
   # of shells in Aux-J                     ...    140
   Maximum angular momentum in Aux-J        ...      4
Auxiliary J/K fitting basis                 ... NOT available
Auxiliary Correlation fitting basis         ... NOT available
Auxiliary 'external' fitting basis          ... NOT available
Integral threshold                          ...     2.500000e-11
Primitive cut-off                           ...     2.500000e-12
Primitive pair pre-selection threshold      ...     2.500000e-12

Calculating pre-screening integrals         ... done (  0.1 sec) Dimension = 128
Organizing shell pair data                  ... done (  0.1 sec)
Shell pair information
Total number of shell pairs                 ...      8256
Shell pairs after pre-screening             ...      7929
Total number of primitive shell pairs       ...     20665
Primitive shell pairs kept                  ...     16308
          la=0 lb=0:   2061 shell pairs
          la=1 lb=0:   2412 shell pairs
          la=1 lb=1:    725 shell pairs
          la=2 lb=0:   1155 shell pairs
          la=2 lb=1:    674 shell pairs
          la=2 lb=2:    170 shell pairs
          la=3 lb=0:    379 shell pairs
          la=3 lb=1:    226 shell pairs
          la=3 lb=2:    106 shell pairs
          la=3 lb=3:     21 shell pairs

Calculating one electron integrals          ... done (  0.0 sec)
Calculating RI/J V-Matrix + Cholesky decomp.... done (  0.0 sec)
Calculating Nuclear repulsion               ... done (  0.0 sec) ENN=    248.609024405615 Eh

SHARK setup successfully completed in   0.3 seconds

Maximum memory used throughout the entire GTOINT-calculation: 14.0 MB


           ************************************************************
           *        Program running with 4 parallel MPI-processes     *
           *              working on a common directory               *
           ************************************************************
-------------------------------------------------------------------------------
                                 ORCA SCF
-------------------------------------------------------------------------------

------------
SCF SETTINGS
------------
Hamiltonian:
 Density Functional     Method          .... DFT(GTOs)
 Exchange Functional    Exchange        .... LC-PBE
 Correlation Functional Correlation     .... PBE
   PBE beta parameter  CBetaPBE         ....  0.066725
 LDA part of GGA corr.  LDAOpt          .... PW91-LDA
 Gradients option       PostSCFGGA      .... off
   Density functional embedding theory  .... OFF
 Long-range corrected/Screened/Range-Separated Hybrid DFT is turned on
   Amount of maximum screened exact exchange              ....  1.000000
   Range separation parameter mu (erf(mu*r12)/r12)        ....  0.470000
   NL short-range parameter             ....  6.400000
 RI-approximation to the Coulomb term is turned on
   Number of AuxJ basis functions       .... 404
   RIJ-COSX (HFX calculated with COS-X)).... on


General Settings:
 Integral files         IntName         .... TZVPD_LC_PBE_C1_wt_dlpno_pos
 Hartree-Fock type      HFTyp           .... RHF
 Total Charge           Charge          ....    0
 Multiplicity           Mult            ....    1
 Number of Electrons    NEL             ....   48
 Basis Dimension        Dim             ....  312
 Nuclear Repulsion      ENuc            ....    248.6090244056 Eh

Convergence Acceleration:
 DIIS                   CNVDIIS         .... on
   Start iteration      DIISMaxIt       ....    12
   Startup error        DIISStart       ....  0.200000
   # of expansion vecs  DIISMaxEq       ....     5
   Bias factor          DIISBfac        ....   1.050
   Max. coefficient     DIISMaxC        ....  10.000
 Trust-Rad. Augm. Hess. CNVTRAH         .... auto
   Auto Start mean grad. ratio tolernc. ....  1.125000
   Auto Start start iteration           ....    20
   Auto Start num. interpolation iter.  ....    10
   Max. Number of Micro iterations      ....    16
   Max. Number of Macro iterations      .... Maxiter - #DIIS iter
   Number of Davidson start vectors     ....     2
   Converg. threshold I  (grad. norm)   ....   1.000e-05
   Converg. threshold II (energy diff.) ....   1.000e-08
   Grad. Scal. Fac. for Micro threshold ....   0.100
   Minimum threshold for Micro iter.    ....   0.010
   NR start threshold (gradient norm)   ....   0.001
   Initial trust radius                 ....   0.400
   Minimum AH scaling param. (alpha)    ....   1.000
   Maximum AH scaling param. (alpha)    .... 1000.000
   Orbital update algorithm             .... Taylor
   White noise on init. David. guess    .... on
   Maximum white noise                  ....   0.010
   Quad. conv. algorithm                .... NR
 SOSCF                  CNVSOSCF        .... on
   Start iteration      SOSCFMaxIt      ....   150
   Startup grad/error   SOSCFStart      ....  0.003300
 Level Shifting         CNVShift        .... on
   Level shift para.    LevelShift      ....    0.2500
   Turn off err/grad.   ShiftErr        ....    0.0010
 Zerner damping         CNVZerner       .... off
 Static damping         CNVDamp         .... on
   Fraction old density DampFac         ....    0.7000
   Max. Damping (<1)    DampMax         ....    0.9800
   Min. Damping (>=0)   DampMin         ....    0.0000
   Turn off err/grad.   DampErr         ....    0.1000
 Fernandez-Rico         CNVRico         .... off

SCF Procedure:
 Maximum # iterations   MaxIter         ....   150
 SCF integral mode      SCFMode         .... Direct
   Integral package                     .... SHARK and LIBINT hybrid scheme
 Reset frequency        DirectResetFreq ....    20
 Integral Threshold     Thresh          ....  2.500e-11 Eh
 Primitive CutOff       TCut            ....  2.500e-12 Eh

Convergence Tolerance:
 Convergence Check Mode ConvCheckMode   .... Total+1el-Energy
 Convergence forced     ConvForced      .... 0
 Energy Change          TolE            ....  1.000e-08 Eh
 1-El. energy change                    ....  1.000e-05 Eh
 Orbital Gradient       TolG            ....  1.000e-05
 Orbital Rotation angle TolX            ....  1.000e-05
 DIIS Error             TolErr          ....  5.000e-07


Diagonalization of the overlap matrix:
Smallest eigenvalue                        ... 1.541e-06
Time for diagonalization                   ...    0.026 sec
Threshold for overlap eigenvalues          ... 1.000e-08
Number of eigenvalues below threshold      ... 0
Time for construction of square roots      ...    0.015 sec
Total time needed                          ...    0.042 sec

Time for model grid setup =    0.117 sec

------------------------------
INITIAL GUESS: MODEL POTENTIAL
------------------------------
Loading Hartree-Fock densities                     ... done
Calculating cut-offs                               ... done
Initializing the effective Hamiltonian             ... done
Setting up the integral package (SHARK)            ... done
Starting the Coulomb interaction                   ... done (   0.1 sec)
Reading the grid                                   ... done
Mapping shells                                     ... done
Starting the XC term evaluation                    ... done (   0.2 sec)
  promolecular density results
     # of electrons  =     47.996076072
     EX              =    -25.449963996
     EC              =     -1.577759004
     EX+EC           =    -27.027723000
Transforming the Hamiltonian                       ... done (   0.0 sec)
Diagonalizing the Hamiltonian                      ... done (   0.0 sec)
Back transforming the eigenvectors                 ... done (   0.0 sec)
Now organizing SCF variables                       ... done
                      ------------------
                      INITIAL GUESS DONE (   0.5 sec)
                      ------------------
-------------------
DFT GRID GENERATION
-------------------

General Integration Accuracy     IntAcc      ... 4.388
Radial Grid Type                 RadialGrid  ... OptM3 with GC (2021)
Angular Grid (max. ang.)         AngularGrid ... 4 (Lebedev-302)
Angular grid pruning method      GridPruning ... 4 (adaptive)
Weight generation scheme         WeightScheme... Becke
Basis function cutoff            BFCut       ... 1.0000e-11
Integration weight cutoff        WCut        ... 1.0000e-14
Angular grids for H and He will be reduced by one unit
Partially contracted basis set               ... off
Rotationally invariant grid construction     ... off

Total number of grid points                  ...    71763
Total number of batches                      ...     1130
Average number of points per batch           ...       63
Average number of grid points per atom       ...     4485
Time for grid setup =    0.438 sec

--------------------
COSX GRID GENERATION
--------------------

GRIDX 1
-------
General Integration Accuracy     IntAcc      ... 3.816
Radial Grid Type                 RadialGrid  ... OptM3 with GC (2021)
Angular Grid (max. ang.)         AngularGrid ... 1 (Lebedev-50)
Angular grid pruning method      GridPruning ... 4 (adaptive)
Weight generation scheme         WeightScheme... Becke
Basis function cutoff            BFCut       ... 1.0000e-11
Integration weight cutoff        WCut        ... 1.0000e-14
Angular grids for H and He will be reduced by one unit
Partially contracted basis set               ... on
Rotationally invariant grid construction     ... off

Total number of grid points                  ...     9005
Total number of batches                      ...      148
Average number of points per batch           ...       60
Average number of grid points per atom       ...      563
UseSFitting                                  ... on

GRIDX 2
-------
General Integration Accuracy     IntAcc      ... 4.020
Radial Grid Type                 RadialGrid  ... OptM3 with GC (2021)
Angular Grid (max. ang.)         AngularGrid ... 2 (Lebedev-110)
Angular grid pruning method      GridPruning ... 4 (adaptive)
Weight generation scheme         WeightScheme... Becke
Basis function cutoff            BFCut       ... 1.0000e-11
Integration weight cutoff        WCut        ... 1.0000e-14
Angular grids for H and He will be reduced by one unit
Partially contracted basis set               ... on
Rotationally invariant grid construction     ... off

Total number of grid points                  ...    21069
Total number of batches                      ...      337
Average number of points per batch           ...       62
Average number of grid points per atom       ...     1317
UseSFitting                                  ... on

GRIDX 3
-------
General Integration Accuracy     IntAcc      ... 4.338
Radial Grid Type                 RadialGrid  ... OptM3 with GC (2021)
Angular Grid (max. ang.)         AngularGrid ... 3 (Lebedev-194)
Angular grid pruning method      GridPruning ... 4 (adaptive)
Weight generation scheme         WeightScheme... Becke
Basis function cutoff            BFCut       ... 1.0000e-11
Integration weight cutoff        WCut        ... 1.0000e-14
Angular grids for H and He will be reduced by one unit
Partially contracted basis set               ... on
Rotationally invariant grid construction     ... off

Total number of grid points                  ...    47392
Total number of batches                      ...      748
Average number of points per batch           ...       63
Average number of grid points per atom       ...     2962
UseSFitting                                  ... on

Time for X-Grid setup             =    0.557 sec

--------------
SCF ITERATIONS
--------------
ITER       Energy         Delta-E        Max-DP      RMS-DP      [F,P]     Damp
               ***  Starting incremental Fock matrix formation  ***
  0   -266.9922227912   0.000000000000 0.09698788  0.00147847  0.1387132 0.7000
  1   -267.0497414664  -0.057518675169 0.08048745  0.00121797  0.0810218 0.7000
                               ***Turning on DIIS***
  2   -267.0798445874  -0.030103120990 0.19968561  0.00275739  0.0420717 0.0000
  3   -267.1301766443  -0.050332056942 0.07114352  0.00084850  0.0385570 0.0000
  4   -267.1378478410  -0.007671196676 0.03369744  0.00062587  0.0057697 0.0000
                      *** Initiating the SOSCF procedure ***
                           *** Shutting down DIIS ***
                      *** Re-Reading the Fockian *** 
                      *** Removing any level shift *** 
ITER      Energy       Delta-E        Grad      Rot      Max-DP    RMS-DP
  5   -267.13832207  -0.0004742317  0.001567  0.001567  0.025396  0.000382
               *** Restarting incremental Fock matrix formation ***
  6   -267.13843482  -0.0001127489  0.000837  0.002227  0.030591  0.000347
  7   -267.13846826  -0.0000334369  0.000356  0.001867  0.023790  0.000263
  8   -267.13847661  -0.0000083529  0.000129  0.000215  0.006047  0.000073
  9   -267.13847784  -0.0000012273  0.000033  0.000075  0.004074  0.000033
 10   -267.13847791  -0.0000000696  0.000026  0.000066  0.001890  0.000012
 11   -267.13847793  -0.0000000237  0.000006  0.000023  0.005489  0.000034
                  ***Gradient check signals convergence***
              ***Rediagonalizing the Fockian in SOSCF/NRSCF***

               *****************************************************
               *                     SUCCESS                       *
               *           SCF CONVERGED AFTER  12 CYCLES          *
               *****************************************************


----------------
TOTAL SCF ENERGY
----------------

Total Energy       :         -267.13847793 Eh           -7269.20754 eV

Components:
Nuclear Repulsion  :          248.60902441 Eh            6764.99548 eV
Electronic Energy  :         -515.74750234 Eh          -14034.20302 eV
One Electron Energy:         -853.72174732 Eh          -23230.94978 eV
Two Electron Energy:          337.97424498 Eh            9196.74676 eV
Max COSX asymmetry :            0.00000496 Eh               0.00013 eV

Virial components:
Potential Energy   :         -533.40560285 Eh          -14514.70437 eV
Kinetic Energy     :          266.26712491 Eh            7245.49682 eV
Virial Ratio       :            2.00327248


DFT components:
N(Alpha)           :       23.999956035280 electrons
N(Beta)            :       23.999956035280 electrons
N(Total)           :       47.999912070561 electrons
E(X)               :      -26.129122710689 Eh       
E(C)               :       -1.587931537983 Eh       
E(XC)              :      -27.717054248673 Eh       
DFET-embed. en.    :        0.000000000000 Eh       

---------------
SCF CONVERGENCE
---------------

  Last Energy change         ...    4.2382e-10  Tolerance :   1.0000e-08
  Last MAX-Density change    ...    3.5710e-03  Tolerance :   1.0000e-07
  Last RMS-Density change    ...    2.0804e-05  Tolerance :   5.0000e-09
  Last Orbital Gradient      ...    1.1290e-06  Tolerance :   1.0000e-05
  Last Orbital Rotation      ...    4.3141e-06  Tolerance :   1.0000e-05

             **** THE GBW FILE WAS UPDATED (TZVPD_LC_PBE_C1_wt_dlpno_pos.gbw) ****
             **** DENSITY TZVPD_LC_PBE_C1_wt_dlpno_pos.scfp WAS UPDATED ****
             **** ENERGY FILE WAS UPDATED (TZVPD_LC_PBE_C1_wt_dlpno_pos.en.tmp) ****
             **** THE GBW FILE WAS UPDATED (TZVPD_LC_PBE_C1_wt_dlpno_pos.gbw) ****
             **** DENSITY TZVPD_LC_PBE_C1_wt_dlpno_pos.scfp WAS UPDATED ****
----------------
ORBITAL ENERGIES
----------------

  NO   OCC          E(Eh)            E(eV) 
   0   2.0000     -14.213768      -386.7763 
   1   2.0000     -14.211545      -386.7158 
   2   2.0000     -10.161705      -276.5140 
   3   2.0000     -10.087890      -274.5054 
   4   2.0000     -10.074078      -274.1296 
   5   2.0000     -10.033929      -273.0371 
   6   2.0000      -1.136812       -30.9342 
   7   2.0000      -1.037647       -28.2358 
   8   2.0000      -0.950125       -25.8542 
   9   2.0000      -0.862507       -23.4700 
  10   2.0000      -0.777885       -21.1673 
  11   2.0000      -0.730344       -19.8737 
  12   2.0000      -0.689745       -18.7689 
  13   2.0000      -0.655158       -17.8277 
  14   2.0000      -0.612760       -16.6740 
  15   2.0000      -0.578321       -15.7369 
  16   2.0000      -0.566630       -15.4188 
  17   2.0000      -0.529998       -14.4220 
  18   2.0000      -0.525888       -14.3102 
  19   2.0000      -0.484078       -13.1724 
  20   2.0000      -0.457199       -12.4410 
  21   2.0000      -0.442972       -12.0539 
  22   2.0000      -0.398883       -10.8542 
  23   2.0000      -0.276425        -7.5219 
  24   0.0000       0.062021         1.6877 
  25   0.0000       0.086013         2.3405 
  26   0.0000       0.090437         2.4609 
  27   0.0000       0.099405         2.7049 
  28   0.0000       0.115629         3.1464 
  29   0.0000       0.125466         3.4141 
  30   0.0000       0.131866         3.5883 
  31   0.0000       0.153721         4.1830 
  32   0.0000       0.162891         4.4325 
  33   0.0000       0.175995         4.7891 
  34   0.0000       0.177686         4.8351 
  35   0.0000       0.192345         5.2340 
  36   0.0000       0.202920         5.5217 
  37   0.0000       0.205301         5.5865 
  38   0.0000       0.208397         5.6708 
  39   0.0000       0.221974         6.0402 
  40   0.0000       0.227853         6.2002 
  41   0.0000       0.233784         6.3616 
  42   0.0000       0.239982         6.5302 
  43   0.0000       0.251376         6.8403 
  44   0.0000       0.267851         7.2886 
  45   0.0000       0.268717         7.3122 
  46   0.0000       0.274555         7.4710 
  47   0.0000       0.279630         7.6091 
  48   0.0000       0.295367         8.0373 
  49   0.0000       0.304476         8.2852 
  50   0.0000       0.310541         8.4503 
  51   0.0000       0.314887         8.5685 
  52   0.0000       0.327355         8.9078 
  53   0.0000       0.334192         9.0938 
  54   0.0000       0.336902         9.1676 
  55   0.0000       0.342833         9.3290 
  56   0.0000       0.346113         9.4182 
  57   0.0000       0.350740         9.5441 
  58   0.0000       0.355683         9.6786 
  59   0.0000       0.361423         9.8348 
  60   0.0000       0.367095         9.9892 
  61   0.0000       0.376567        10.2469 
  62   0.0000       0.384882        10.4732 
  63   0.0000       0.389888        10.6094 
  64   0.0000       0.398905        10.8548 
  65   0.0000       0.400837        10.9073 
  66   0.0000       0.410176        11.1615 
  67   0.0000       0.420182        11.4337 
  68   0.0000       0.427717        11.6388 
  69   0.0000       0.429901        11.6982 
  70   0.0000       0.437573        11.9070 
  71   0.0000       0.443834        12.0773 
  72   0.0000       0.449478        12.2309 
  73   0.0000       0.457549        12.4505 
  74   0.0000       0.465667        12.6715 
  75   0.0000       0.478198        13.0124 
  76   0.0000       0.478859        13.0304 
  77   0.0000       0.495209        13.4753 
  78   0.0000       0.499741        13.5986 
  79   0.0000       0.505085        13.7441 
  80   0.0000       0.509256        13.8576 
  81   0.0000       0.512434        13.9440 
  82   0.0000       0.525905        14.3106 
  83   0.0000       0.530772        14.4430 
  84   0.0000       0.534702        14.5500 
  85   0.0000       0.539306        14.6753 
  86   0.0000       0.549839        14.9619 
  87   0.0000       0.561489        15.2789 
  88   0.0000       0.564539        15.3619 
  89   0.0000       0.567942        15.4545 
  90   0.0000       0.571831        15.5603 
  91   0.0000       0.576936        15.6992 
  92   0.0000       0.591906        16.1066 
  93   0.0000       0.603073        16.4105 
  94   0.0000       0.615782        16.7563 
  95   0.0000       0.620583        16.8869 
  96   0.0000       0.624764        17.0007 
  97   0.0000       0.630448        17.1554 
  98   0.0000       0.645157        17.5556 
  99   0.0000       0.647425        17.6173 
 100   0.0000       0.658103        17.9079 
 101   0.0000       0.659182        17.9372 
 102   0.0000       0.677832        18.4447 
 103   0.0000       0.688506        18.7352 
 104   0.0000       0.700481        19.0610 
 105   0.0000       0.709889        19.3170 
 106   0.0000       0.731520        19.9057 
 107   0.0000       0.737229        20.0610 
 108   0.0000       0.753918        20.5152 
 109   0.0000       0.770504        20.9665 
 110   0.0000       0.773882        21.0584 
 111   0.0000       0.777864        21.1668 
 112   0.0000       0.790906        21.5217 
 113   0.0000       0.793996        21.6057 
 114   0.0000       0.813049        22.1242 
 115   0.0000       0.823904        22.4196 
 116   0.0000       0.830441        22.5975 
 117   0.0000       0.843582        22.9550 
 118   0.0000       0.850178        23.1345 
 119   0.0000       0.861068        23.4309 
 120   0.0000       0.870927        23.6991 
 121   0.0000       0.874238        23.7892 
 122   0.0000       0.887976        24.1631 
 123   0.0000       0.891780        24.2666 
 124   0.0000       0.900028        24.4910 
 125   0.0000       0.909136        24.7389 
 126   0.0000       0.925742        25.1907 
 127   0.0000       0.928465        25.2648 
 128   0.0000       0.947255        25.7761 
 129   0.0000       0.968647        26.3582 
 130   0.0000       0.993731        27.0408 
 131   0.0000       0.999780        27.2054 
 132   0.0000       1.023956        27.8633 
 133   0.0000       1.044908        28.4334 
 134   0.0000       1.050329        28.5809 
 135   0.0000       1.076331        29.2885 
 136   0.0000       1.085220        29.5303 
 137   0.0000       1.106577        30.1115 
 138   0.0000       1.121921        30.5290 
 139   0.0000       1.137593        30.9555 
 140   0.0000       1.152818        31.3698 
 141   0.0000       1.158929        31.5361 
 142   0.0000       1.187323        32.3087 
 143   0.0000       1.199992        32.6534 
 144   0.0000       1.239463        33.7275 
 145   0.0000       1.277771        34.7699 
 146   0.0000       1.293872        35.2080 
 147   0.0000       1.332173        36.2503 
 148   0.0000       1.348249        36.6877 
 149   0.0000       1.390295        37.8318 
 150   0.0000       1.400037        38.0969 
 151   0.0000       1.411472        38.4081 
 152   0.0000       1.436364        39.0854 
 153   0.0000       1.473716        40.1018 
 154   0.0000       1.488509        40.5044 
 155   0.0000       1.496432        40.7200 
 156   0.0000       1.525960        41.5235 
 157   0.0000       1.548095        42.1258 
 158   0.0000       1.585031        43.1309 
 159   0.0000       1.598406        43.4948 
 160   0.0000       1.631050        44.3831 
 161   0.0000       1.691858        46.0378 
 162   0.0000       1.707373        46.4600 
 163   0.0000       1.735935        47.2372 
 164   0.0000       1.763070        47.9756 
 165   0.0000       1.786452        48.6118 
 166   0.0000       1.820195        49.5300 
 167   0.0000       1.852965        50.4217 
 168   0.0000       1.890986        51.4563 
 169   0.0000       1.933648        52.6172 
 170   0.0000       1.935909        52.6788 
 171   0.0000       1.945393        52.9368 
 172   0.0000       1.955435        53.2101 
 173   0.0000       1.976468        53.7824 
 174   0.0000       1.986734        54.0618 
 175   0.0000       2.006657        54.6039 
 176   0.0000       2.021444        55.0063 
 177   0.0000       2.033644        55.3383 
 178   0.0000       2.040715        55.5307 
 179   0.0000       2.058015        56.0014 
 180   0.0000       2.064890        56.1885 
 181   0.0000       2.075717        56.4831 
 182   0.0000       2.115198        57.5575 
 183   0.0000       2.135564        58.1116 
 184   0.0000       2.146797        58.4173 
 185   0.0000       2.169097        59.0241 
 186   0.0000       2.217019        60.3282 
 187   0.0000       2.250776        61.2467 
 188   0.0000       2.263936        61.6048 
 189   0.0000       2.287375        62.2426 
 190   0.0000       2.296209        62.4830 
 191   0.0000       2.343511        63.7702 
 192   0.0000       2.363762        64.3212 
 193   0.0000       2.389504        65.0217 
 194   0.0000       2.424398        65.9712 
 195   0.0000       2.457158        66.8627 
 196   0.0000       2.483616        67.5826 
 197   0.0000       2.503760        68.1308 
 198   0.0000       2.534033        68.9545 
 199   0.0000       2.559965        69.6602 
 200   0.0000       2.571893        69.9848 
 201   0.0000       2.600407        70.7607 
 202   0.0000       2.623566        71.3909 
 203   0.0000       2.648666        72.0739 
 204   0.0000       2.673313        72.7445 
 205   0.0000       2.686002        73.0898 
 206   0.0000       2.695866        73.3582 
 207   0.0000       2.719677        74.0062 
 208   0.0000       2.723942        74.1222 
 209   0.0000       2.752378        74.8960 
 210   0.0000       2.779349        75.6299 
 211   0.0000       2.796745        76.1033 
 212   0.0000       2.842553        77.3498 
 213   0.0000       2.867705        78.0342 
 214   0.0000       2.886199        78.5375 
 215   0.0000       2.894640        78.7672 
 216   0.0000       2.923876        79.5627 
 217   0.0000       2.965727        80.7015 
 218   0.0000       2.971662        80.8630 
 219   0.0000       2.979037        81.0637 
 220   0.0000       2.990537        81.3767 
 221   0.0000       3.010513        81.9202 
 222   0.0000       3.040015        82.7230 
 223   0.0000       3.094487        84.2053 
 224   0.0000       3.108159        84.5773 
 225   0.0000       3.128716        85.1367 
 226   0.0000       3.165498        86.1376 
 227   0.0000       3.177320        86.4593 
 228   0.0000       3.218145        87.5702 
 229   0.0000       3.228361        87.8482 
 230   0.0000       3.247328        88.3643 
 231   0.0000       3.296892        89.7130 
 232   0.0000       3.305107        89.9365 
 233   0.0000       3.313394        90.1620 
 234   0.0000       3.337982        90.8311 
 235   0.0000       3.361563        91.4728 
 236   0.0000       3.397822        92.4594 
 237   0.0000       3.405974        92.6813 
 238   0.0000       3.427044        93.2546 
 239   0.0000       3.441736        93.6544 
 240   0.0000       3.471122        94.4540 
 241   0.0000       3.494719        95.0961 
 242   0.0000       3.504346        95.3581 
 243   0.0000       3.539438        96.3130 
 244   0.0000       3.549476        96.5861 
 245   0.0000       3.577954        97.3611 
 246   0.0000       3.615679        98.3876 
 247   0.0000       3.626491        98.6818 
 248   0.0000       3.647013        99.2403 
 249   0.0000       3.674133        99.9783 
 250   0.0000       3.686528       100.3155 
 251   0.0000       3.737307       101.6973 
 252   0.0000       3.757836       102.2559 
 253   0.0000       3.781723       102.9059 
 254   0.0000       3.807656       103.6116 
 255   0.0000       3.822824       104.0243 
 256   0.0000       3.842221       104.5521 
 257   0.0000       3.916841       106.5827 
 258   0.0000       3.922198       106.7284 
 259   0.0000       4.020243       109.3964 
 260   0.0000       4.042100       109.9911 
 261   0.0000       4.048250       110.1585 
 262   0.0000       4.097046       111.4863 
 263   0.0000       4.126787       112.2956 
 264   0.0000       4.161577       113.2423 
 265   0.0000       4.202746       114.3625 
 266   0.0000       4.233171       115.1904 
 267   0.0000       4.331629       117.8696 
 268   0.0000       4.359724       118.6341 
 269   0.0000       4.372059       118.9698 
 270   0.0000       4.421220       120.3075 
 271   0.0000       4.471879       121.6860 
 272   0.0000       4.549251       123.7914 
 273   0.0000       4.566350       124.2567 
 274   0.0000       4.628373       125.9444 
 275   0.0000       4.639988       126.2605 
 276   0.0000       4.708821       128.1335 
 277   0.0000       4.733856       128.8148 
 278   0.0000       4.818789       131.1259 
 279   0.0000       4.828569       131.3920 
 280   0.0000       4.861580       132.2903 
 281   0.0000       4.935392       134.2989 
 282   0.0000       4.940895       134.4486 
 283   0.0000       4.942716       134.4981 
 284   0.0000       4.989285       135.7653 
 285   0.0000       5.059306       137.6707 
 286   0.0000       5.095816       138.6642 
 287   0.0000       5.119206       139.3007 
 288   0.0000       5.135606       139.7470 
 289   0.0000       5.164667       140.5377 
 290   0.0000       5.189562       141.2152 
 291   0.0000       5.260252       143.1387 
 292   0.0000       5.338899       145.2788 
 293   0.0000       5.351744       145.6284 
 294   0.0000       5.411352       147.2504 
 295   0.0000       5.464773       148.7040 
 296   0.0000       5.486494       149.2951 
 297   0.0000       5.504390       149.7821 
 298   0.0000       5.557296       151.2217 
 299   0.0000       5.620296       152.9360 
 300   0.0000       5.724355       155.7676 
 301   0.0000       5.760288       156.7454 
 302   0.0000       5.866944       159.6477 
 303   0.0000       6.192768       168.5138 
 304   0.0000       6.289291       171.1403 
 305   0.0000       6.364850       173.1964 
 306   0.0000      22.670716       616.9015 
 307   0.0000      22.805636       620.5729 
 308   0.0000      23.130198       629.4047 
 309   0.0000      23.610739       642.4809 
 310   0.0000      32.259383       877.8224 
 311   0.0000      32.551045       885.7590 

                    ********************************
                    * MULLIKEN POPULATION ANALYSIS *
                    ********************************

-----------------------
MULLIKEN ATOMIC CHARGES
-----------------------
   0 C :   -0.872670
   1 C :   -0.648315
   2 C :    0.716954
   3 N :   -0.509913
   4 N :   -0.461877
   5 H :    0.213761
   6 H :    0.173565
   7 H :    0.319783
   8 H :    0.195739
   9 H :    0.186520
  10 C :   -1.081221
  11 H :    0.329223
  12 H :    0.391701
  13 H :    0.350455
  14 H :    0.345226
  15 H :    0.351069
Sum of atomic charges:    0.0000000

--------------------------------
MULLIKEN REDUCED ORBITAL CHARGES
--------------------------------
  0 C s       :     3.365805  s :     3.365805
      pz      :     0.992698  p :     3.535809
      px      :     1.043115
      py      :     1.499996
      dz2     :     0.011901  d :    -0.034222
      dxz     :     0.005828
      dyz     :    -0.013386
      dx2y2   :    -0.006582
      dxy     :    -0.031983
      f0      :     0.001012  f :     0.005278
      f+1     :     0.001551
      f-1     :     0.000867
      f+2     :     0.000312
      f-2     :     0.000155
      f+3     :     0.000696
      f-3     :     0.000685
  1 C s       :     3.548348  s :     3.548348
      pz      :     0.955578  p :     2.996891
      px      :     1.193421
      py      :     0.847893
      dz2     :     0.034669  d :     0.096208
      dxz     :     0.036138
      dyz     :    -0.042935
      dx2y2   :    -0.016029
      dxy     :     0.084366
      f0      :     0.000905  f :     0.006868
      f+1     :     0.001128
      f-1     :     0.001846
      f+2     :     0.000328
      f-2     :     0.000789
      f+3     :     0.000888
      f-3     :     0.000983
  2 C s       :     3.338185  s :     3.338185
      pz      :     0.663326  p :     1.777667
      px      :     0.669378
      py      :     0.444963
      dz2     :    -0.022213  d :     0.148851
      dxz     :     0.055838
      dyz     :     0.081362
      dx2y2   :    -0.033848
      dxy     :     0.067711
      f0      :     0.002406  f :     0.018343
      f+1     :     0.003822
      f-1     :     0.004612
      f+2     :     0.001436
      f-2     :     0.001771
      f+3     :     0.001727
      f-3     :     0.002570
  3 N s       :     3.533554  s :     3.533554
      pz      :     0.999600  p :     3.928254
      px      :     1.771762
      py      :     1.156892
      dz2     :    -0.002410  d :     0.044862
      dxz     :     0.018480
      dyz     :     0.017897
      dx2y2   :     0.011082
      dxy     :    -0.000187
      f0      :     0.000498  f :     0.003243
      f+1     :     0.000668
      f-1     :     0.000529
      f+2     :     0.000579
      f-2     :     0.000129
      f+3     :     0.000351
      f-3     :     0.000489
  4 N s       :     3.499628  s :     3.499628
      pz      :     1.155016  p :     3.927791
      px      :     1.704320
      py      :     1.068454
      dz2     :     0.000257  d :     0.031470
      dxz     :     0.005721
      dyz     :     0.005981
      dx2y2   :     0.004384
      dxy     :     0.015127
      f0      :     0.000452  f :     0.002988
      f+1     :     0.000254
      f-1     :     0.000439
      f+2     :     0.000457
      f-2     :     0.000222
      f+3     :     0.000521
      f-3     :     0.000642
  5 H s       :     0.751397  s :     0.751397
      pz      :     0.016899  p :     0.034842
      px      :     0.019133
      py      :    -0.001190
  6 H s       :     0.776176  s :     0.776176
      pz      :     0.001322  p :     0.050259
      px      :     0.042954
      py      :     0.005982
  7 H s       :     0.645349  s :     0.645349
      pz      :    -0.005139  p :     0.034869
      px      :     0.016776
      py      :     0.023232
  8 H s       :     0.753554  s :     0.753554
      pz      :     0.004542  p :     0.050707
      px      :     0.035455
      py      :     0.010710
  9 H s       :     0.768205  s :     0.768205
      pz      :     0.004300  p :     0.045274
      px      :     0.036845
      py      :     0.004130
 10 C s       :     3.376509  s :     3.376509
      pz      :     1.316838  p :     3.666049
      px      :     0.999494
      py      :     1.349716
      dz2     :     0.017149  d :     0.035855
      dxz     :    -0.011654
      dyz     :     0.027237
      dx2y2   :    -0.002168
      dxy     :     0.005291
      f0      :     0.000784  f :     0.002809
      f+1     :     0.000365
      f-1     :     0.000076
      f+2     :     0.000179
      f-2     :     0.000095
      f+3     :     0.000692
      f-3     :     0.000619
 11 H s       :     0.594594  s :     0.594594
      pz      :     0.007336  p :     0.076182
      px      :     0.026632
      py      :     0.042214
 12 H s       :     0.555456  s :     0.555456
      pz      :     0.010843  p :     0.052843
      px      :     0.008276
      py      :     0.033724
 13 H s       :     0.570913  s :     0.570913
      pz      :     0.028268  p :     0.078632
      px      :     0.016010
      py      :     0.034354
 14 H s       :     0.588111  s :     0.588111
      pz      :     0.033203  p :     0.066663
      px      :     0.009964
      py      :     0.023496
 15 H s       :     0.580594  s :     0.580594
      pz      :     0.016856  p :     0.068337
      px      :     0.022436
      py      :     0.029045


                     *******************************
                     * LOEWDIN POPULATION ANALYSIS *
                     *******************************

----------------------
LOEWDIN ATOMIC CHARGES
----------------------
   0 C :   -0.306038
   1 C :   -0.167239
   2 C :   -0.550277
   3 N :    0.096725
   4 N :    0.118275
   5 H :    0.103606
   6 H :    0.104758
   7 H :    0.075661
   8 H :    0.118982
   9 H :    0.106874
  10 C :   -0.127586
  11 H :    0.112050
  12 H :    0.107303
  13 H :    0.075833
  14 H :    0.065976
  15 H :    0.065097

-------------------------------
LOEWDIN REDUCED ORBITAL CHARGES
-------------------------------
  0 C s       :     2.656889  s :     2.656889
      pz      :     0.955116  p :     2.802741
      px      :     0.927273
      py      :     0.920352
      dz2     :     0.162878  d :     0.802022
      dxz     :     0.226608
      dyz     :     0.146991
      dx2y2   :     0.104137
      dxy     :     0.161408
      f0      :     0.007450  f :     0.044385
      f+1     :     0.011796
      f-1     :     0.006777
      f+2     :     0.004413
      f-2     :     0.004710
      f+3     :     0.005024
      f-3     :     0.004215
  1 C s       :     2.635825  s :     2.635825
      pz      :     0.923608  p :     2.770820
      px      :     0.914169
      py      :     0.933043
      dz2     :     0.197363  d :     0.713533
      dxz     :     0.151244
      dyz     :     0.225586
      dx2y2   :     0.063032
      dxy     :     0.076308
      f0      :     0.007926  f :     0.047062
      f+1     :     0.007018
      f-1     :     0.013948
      f+2     :     0.005614
      f-2     :     0.005285
      f+3     :     0.004435
      f-3     :     0.002834
  2 C s       :     2.589671  s :     2.589671
      pz      :     0.892702  p :     2.528858
      px      :     0.728568
      py      :     0.907587
      dz2     :     0.301414  d :     1.312684
      dxz     :     0.285815
      dyz     :     0.299019
      dx2y2   :     0.203311
      dxy     :     0.223125
      f0      :     0.015876  f :     0.119064
      f+1     :     0.021210
      f-1     :     0.033473
      f+2     :     0.013011
      f-2     :     0.014576
      f+3     :     0.009705
      f-3     :     0.011212
  3 N s       :     2.882325  s :     2.882325
      pz      :     1.120081  p :     3.624949
      px      :     1.418532
      py      :     1.086336
      dz2     :     0.089180  d :     0.384119
      dxz     :     0.094059
      dyz     :     0.164953
      dx2y2   :     0.023793
      dxy     :     0.012134
      f0      :     0.002910  f :     0.011882
      f+1     :     0.002900
      f-1     :     0.003047
      f+2     :     0.001240
      f-2     :     0.000322
      f+3     :     0.000463
      f-3     :     0.001001
  4 N s       :     2.885880  s :     2.885880
      pz      :     1.081603  p :     3.610630
      px      :     1.407219
      py      :     1.121808
      dz2     :     0.082020  d :     0.374174
      dxz     :     0.030623
      dyz     :     0.111296
      dx2y2   :     0.074093
      dxy     :     0.076142
      f0      :     0.001297  f :     0.011042
      f+1     :     0.000846
      f-1     :     0.002280
      f+2     :     0.001728
      f-2     :     0.001152
      f+3     :     0.001747
      f-3     :     0.001992
  5 H s       :     0.608267  s :     0.608267
      pz      :     0.124674  p :     0.288127
      px      :     0.092157
      py      :     0.071295
  6 H s       :     0.630512  s :     0.630512
      pz      :     0.080562  p :     0.264730
      px      :     0.091443
      py      :     0.092724
  7 H s       :     0.692093  s :     0.692093
      pz      :     0.071356  p :     0.232246
      px      :     0.079124
      py      :     0.081767
  8 H s       :     0.618307  s :     0.618307
      pz      :     0.066917  p :     0.262711
      px      :     0.087952
      py      :     0.107842
  9 H s       :     0.628733  s :     0.628733
      pz      :     0.071763  p :     0.264393
      px      :     0.093158
      py      :     0.099472
 10 C s       :     2.720741  s :     2.720741
      pz      :     0.974152  p :     2.921128
      px      :     0.964918
      py      :     0.982059
      dz2     :     0.117288  d :     0.459993
      dxz     :     0.084031
      dyz     :     0.032774
      dx2y2   :     0.080427
      dxy     :     0.145473
      f0      :     0.004593  f :     0.025723
      f+1     :     0.003372
      f-1     :     0.000700
      f+2     :     0.004438
      f-2     :     0.003474
      f+3     :     0.005133
      f-3     :     0.004013
 11 H s       :     0.680223  s :     0.680223
      pz      :     0.062187  p :     0.207727
      px      :     0.064290
      py      :     0.081249
 12 H s       :     0.677825  s :     0.677825
      pz      :     0.063836  p :     0.214873
      px      :     0.057329
      py      :     0.093708
 13 H s       :     0.701428  s :     0.701428
      pz      :     0.072197  p :     0.222740
      px      :     0.059863
      py      :     0.090680
 14 H s       :     0.709814  s :     0.709814
      pz      :     0.107503  p :     0.224210
      px      :     0.055915
      py      :     0.060792
 15 H s       :     0.697328  s :     0.697328
      pz      :     0.069032  p :     0.237574
      px      :     0.069706
      py      :     0.098836


                      *****************************
                      * MAYER POPULATION ANALYSIS *
                      *****************************

  NA   - Mulliken gross atomic population
  ZA   - Total nuclear charge
  QA   - Mulliken gross atomic charge
  VA   - Mayer's total valence
  BVA  - Mayer's bonded valence
  FA   - Mayer's free valence

  ATOM       NA         ZA         QA         VA         BVA        FA
  0 C      6.8727     6.0000    -0.8727     3.2103     3.2103     0.0000
  1 C      6.6483     6.0000    -0.6483     2.8047     2.8047     0.0000
  2 C      5.2830     6.0000     0.7170     2.6034     2.6034     0.0000
  3 N      7.5099     7.0000    -0.5099     3.0669     3.0669    -0.0000
  4 N      7.4619     7.0000    -0.4619     3.0703     3.0703    -0.0000
  5 H      0.7862     1.0000     0.2138     0.9848     0.9848    -0.0000
  6 H      0.8264     1.0000     0.1736     0.9668     0.9668    -0.0000
  7 H      0.6802     1.0000     0.3198     0.8556     0.8556    -0.0000
  8 H      0.8043     1.0000     0.1957     1.0010     1.0010    -0.0000
  9 H      0.8135     1.0000     0.1865     0.9851     0.9851    -0.0000
 10 C      7.0812     6.0000    -1.0812     3.3485     3.3485     0.0000
 11 H      0.6708     1.0000     0.3292     1.0282     1.0282     0.0000
 12 H      0.6083     1.0000     0.3917     0.8882     0.8882     0.0000
 13 H      0.6495     1.0000     0.3505     1.0036     1.0036    -0.0000
 14 H      0.6548     1.0000     0.3452     1.0004     1.0004     0.0000
 15 H      0.6489     1.0000     0.3511     1.0060     1.0060     0.0000

  Mayer bond orders larger than 0.100000
B(  0-C ,  1-C ) :   0.7120 B(  0-C ,  2-C ) :   0.1852 B(  0-C , 10-C ) :   0.5649 
B(  0-C , 11-H ) :   1.0175 B(  0-C , 12-H ) :   0.8264 B(  1-C ,  2-C ) :   1.0804 
B(  1-C ,  3-N ) :   0.1187 B(  1-C ,  7-H ) :   1.0465 B(  2-C ,  3-N ) :   0.7979 
B(  2-C ,  4-N ) :   0.8731 B(  2-C ,  7-H ) :  -0.1738 B(  3-N ,  8-H ) :   1.0212 
B(  3-N ,  9-H ) :   1.0627 B(  4-N ,  5-H ) :   0.9577 B(  4-N ,  6-H ) :   1.0704 
B( 10-C , 13-H ) :   0.9669 B( 10-C , 14-H ) :   0.9543 B( 10-C , 15-H ) :   0.9297 


-------
TIMINGS
-------

Total SCF time: 0 days 0 hours 0 min 55 sec 

Total time                  ....      55.291 sec
Sum of individual times     ....      54.995 sec  ( 99.5%)

Fock matrix formation       ....      53.193 sec  ( 96.2%)
  Split-RI-J                ....       2.255 sec  (  4.2% of F)
  Chain of spheres X        ....      43.685 sec  ( 82.1% of F)
  XC integration            ....       7.163 sec  ( 13.5% of F)
    Basis function eval.    ....       1.914 sec  ( 26.7% of XC)
    Density eval.           ....       1.998 sec  ( 27.9% of XC)
    XC-Functional eval.     ....       0.344 sec  (  4.8% of XC)
    XC-Potential eval.      ....       2.731 sec  ( 38.1% of XC)
Diagonalization             ....       0.137 sec  (  0.2%)
Density matrix formation    ....       0.009 sec  (  0.0%)
Population analysis         ....       0.018 sec  (  0.0%)
Initial guess               ....       0.346 sec  (  0.6%)
Orbital Transformation      ....       0.000 sec  (  0.0%)
Orbital Orthonormalization  ....       0.000 sec  (  0.0%)
DIIS solution               ....       0.067 sec  (  0.1%)
SOSCF solution              ....       0.112 sec  (  0.2%)
Grid generation             ....       1.112 sec  (  2.0%)

Maximum memory used throughout the entire SCF-calculation: 38.7 MB

-------------------------   --------------------
FINAL SINGLE POINT ENERGY      -267.138477931553
-------------------------   --------------------


                            ***************************************
                            *     ORCA property calculations      *
                            ***************************************

                                    ---------------------
                                    Active property flags
                                    ---------------------
   (+) Dipole Moment


------------------------------------------------------------------------------
                       ORCA ELECTRIC PROPERTIES CALCULATION
------------------------------------------------------------------------------

Dipole Moment Calculation                       ... on
Quadrupole Moment Calculation                   ... off
Polarizability Calculation                      ... off
GBWName                                         ... TZVPD_LC_PBE_C1_wt_dlpno_pos.gbw
Electron density file                           ... TZVPD_LC_PBE_C1_wt_dlpno_pos.scfp
The origin for moment calculation is the CENTER OF MASS  = ( 9.163260,  3.554204 -7.330027)

-------------
DIPOLE MOMENT
-------------
                                X             Y             Z
Electronic contribution:     -1.26850       1.96323      -4.09518
Nuclear contribution   :      1.23062      -1.24683       3.43056
                        -----------------------------------------
Total Dipole Moment    :     -0.03788       0.71639      -0.66462
                        -----------------------------------------
Magnitude (a.u.)       :      0.97794
Magnitude (Debye)      :      2.48574



--------------------
Rotational spectrum 
--------------------
 
Rotational constants in cm-1:     0.231477     0.075416     0.065327 
Rotational constants in MHz :  6939.497385  2260.912204  1958.442932 

 Dipole components along the rotational axes: 
x,y,z [a.u.] :    -0.893929     0.394857     0.036828 
x,y,z [Debye]:    -2.272186     1.003646     0.093609 

 

Timings for individual modules:

Sum of individual times         ...       55.980 sec (=   0.933 min)
GTO integral calculation        ...        0.482 sec (=   0.008 min)   0.9 %
SCF iterations                  ...       55.498 sec (=   0.925 min)  99.1 %
                             ****ORCA TERMINATED NORMALLY****
TOTAL RUN TIME: 0 days 0 hours 0 minutes 56 seconds 353 msec
