
                                        *****************
                                        * O   R   C   A *
                                        *****************

                                            #,                                       
                                            ###                                      
                                            ####                                     
                                            #####                                    
                                            ######                                   
                                           ########,                                 
                                     ,,################,,,,,                         
                               ,,#################################,,                 
                          ,,##########################################,,             
                       ,#########################################, ''#####,          
                    ,#############################################,,   '####,        
                  ,##################################################,,,,####,       
                ,###########''''           ''''###############################       
              ,#####''   ,,,,##########,,,,          '''####'''          '####       
            ,##' ,,,,###########################,,,                        '##       
           ' ,,###''''                  '''############,,,                           
         ,,##''                                '''############,,,,        ,,,,,,###''
      ,#''                                            '''#######################'''  
     '                                                          ''''####''''         
             ,#######,   #######,   ,#######,      ##                                
            ,#'     '#,  ##    ##  ,#'     '#,    #''#        ######   ,####,        
            ##       ##  ##   ,#'  ##            #'  '#       #        #'  '#        
            ##       ##  #######   ##           ,######,      #####,   #    #        
            '#,     ,#'  ##    ##  '#,     ,#' ,#      #,         ##   #,  ,#        
             '#######'   ##     ##  '#######'  #'      '#     #####' # '####'        



                  #######################################################
                  #                        -***-                        #
                  #          Department of theory and spectroscopy      #
                  #    Directorship and core code : Frank Neese         #
                  #        Max Planck Institute fuer Kohlenforschung    #
                  #                Kaiser Wilhelm Platz 1               #
                  #                 D-45470 Muelheim/Ruhr               #
                  #                      Germany                        #
                  #                                                     #
                  #                  All rights reserved                #
                  #                        -***-                        #
                  #######################################################


                         Program Version 5.0.0 -  RELEASE  -
                                (SVN: $Rev: 19529$)
                ($Date: 2021-06-28 11:36:33 +0200 (Mo, 28 Jun 2021) $)


 With contributions from (in alphabetic order):
   Daniel Aravena         : Magnetic Suceptibility
   Michael Atanasov       : Ab Initio Ligand Field Theory (pilot matlab implementation)
   Alexander A. Auer      : GIAO ZORA, VPT2 properties, NMR spectrum
   Ute Becker             : Parallelization
   Giovanni Bistoni       : ED, misc. LED, open-shell LED, HFLD
   Martin Brehm           : Molecular dynamics
   Dmytro Bykov           : SCF Hessian
   Vijay G. Chilkuri      : MRCI spin determinant printing, contributions to CSF-ICE
   Dipayan Datta          : RHF DLPNO-CCSD density
   Achintya Kumar Dutta   : EOM-CC, STEOM-CC
   Dmitry Ganyushin       : Spin-Orbit,Spin-Spin,Magnetic field MRCI
   Miquel Garcia          : C-PCM Hessian, Gaussian charge scheme
   Yang Guo               : DLPNO-NEVPT2, F12-NEVPT2, CIM, IAO-localization
   Andreas Hansen         : Spin unrestricted coupled pair/coupled cluster methods
   Benjamin Helmich-Paris : MC-RPA, TRAH-SCF, COSX integrals
   Lee Huntington         : MR-EOM, pCC
   Robert Izsak           : Overlap fitted RIJCOSX, COSX-SCS-MP3, EOM
   Marcus Kettner         : VPT2
   Christian Kollmar      : KDIIS, OOCD, Brueckner-CCSD(T), CCSD density, CASPT2, CASPT2-K
   Simone Kossmann        : Meta GGA functionals, TD-DFT gradient, OOMP2, MP2 Hessian
   Martin Krupicka        : Initial AUTO-CI
   Lucas Lang             : DCDCAS
   Marvin Lechner         : AUTO-CI (C++ implementation), FIC-MRCC
   Dagmar Lenk            : GEPOL surface, SMD
   Dimitrios Liakos       : Extrapolation schemes; Compound Job, initial MDCI parallelization
   Dimitrios Manganas     : Further ROCIS development; embedding schemes
   Dimitrios Pantazis     : SARC Basis sets
   Anastasios Papadopoulos: AUTO-CI, single reference methods and gradients
   Taras Petrenko         : DFT Hessian,TD-DFT gradient, ASA, ECA, R-Raman, ABS, FL, XAS/XES, NRVS
   Peter Pinski           : DLPNO-MP2, DLPNO-MP2 Gradient
   Christoph Reimann      : Effective Core Potentials
   Marius Retegan         : Local ZFS, SOC
   Christoph Riplinger    : Optimizer, TS searches, QM/MM, DLPNO-CCSD(T), (RO)-DLPNO pert. Triples
   Tobias Risthaus        : Range-separated hybrids, TD-DFT gradient, RPA, STAB
   Michael Roemelt        : Original ROCIS implementation
   Masaaki Saitow         : Open-shell DLPNO-CCSD energy and density
   Barbara Sandhoefer     : DKH picture change effects
   Avijit Sen             : IP-ROCIS
   Kantharuban Sivalingam : CASSCF convergence, NEVPT2, FIC-MRCI
   Bernardo de Souza      : ESD, SOC TD-DFT
   Georgi Stoychev        : AutoAux, RI-MP2 NMR
   Willem Van den Heuvel  : Paramagnetic NMR
   Boris Wezisla          : Elementary symmetry handling
   Frank Wennmohs         : Technical directorship


 We gratefully acknowledge several colleagues who have allowed us to
 interface, adapt or use parts of their codes:
   Stefan Grimme, W. Hujo, H. Kruse, P. Pracht,  : VdW corrections, initial TS optimization,
                  C. Bannwarth, S. Ehlert          DFT functionals, gCP, sTDA/sTD-DF
   Ed Valeev, F. Pavosevic, A. Kumar             : LibInt (2-el integral package), F12 methods
   Garnet Chan, S. Sharma, J. Yang, R. Olivares  : DMRG
   Ulf Ekstrom                                   : XCFun DFT Library
   Mihaly Kallay                                 : mrcc  (arbitrary order and MRCC methods)
   Jiri Pittner, Ondrej Demel                    : Mk-CCSD
   Frank Weinhold                                : gennbo (NPA and NBO analysis)
   Christopher J. Cramer and Donald G. Truhlar   : smd solvation model
   Lars Goerigk                                  : TD-DFT with DH, B97 family of functionals
   V. Asgeirsson, H. Jonsson                     : NEB implementation
   FAccTs GmbH                                   : IRC, NEB, NEB-TS, DLPNO-Multilevel, CI-OPT
                                                   MM, QMMM, 2- and 3-layer-ONIOM, Crystal-QMMM,
                                                   LR-CPCM, SF, NACMEs, symmetry and pop. for TD-DFT,
                                                   nearIR, NL-DFT gradient (VV10), updates on ESD,
                                                   ML-optimized integration grids
   S Lehtola, MJT Oliveira, MAL Marques          : LibXC Library
   Liviu Ungur et al                             : ANISO software


 Your calculation uses the libint2 library for the computation of 2-el integrals
 For citations please refer to: http://libint.valeyev.net

 Your ORCA version has been built with support for libXC version: 5.1.0
 For citations please refer to: https://tddft.org/programs/libxc/

 This ORCA versions uses:
   CBLAS   interface :  Fast vector & matrix operations
   LAPACKE interface :  Fast linear algebra routines
   SCALAPACK package :  Parallel linear algebra routines
   Shared memory     :  Shared parallel matrices
   BLAS/LAPACK       :  OpenBLAS 0.3.15  USE64BITINT DYNAMIC_ARCH NO_AFFINITY Haswell SINGLE_THREADED
        Core in use  :  Haswell
   Copyright (c) 2011-2014, The OpenBLAS Project




***************************************
The coordinates will be read from file: D1.xyz
***************************************


================================================================================

----- Orbital basis set information -----
Your calculation utilizes the basis: def2-TZVP
   F. Weigend and R. Ahlrichs, Phys. Chem. Chem. Phys. 7, 3297 (2005).

----- AuxJ basis set information -----
Your calculation utilizes the auxiliary basis: def2/J
   F. Weigend, Phys. Chem. Chem. Phys. 8, 1057 (2006).

================================================================================
                                        WARNINGS
                       Please study these warnings very carefully!
================================================================================


INFO   : the flag for use of the SHARK integral package has been found!

================================================================================
                                       INPUT FILE
================================================================================
NAME = LC_PBE_D1_wb97.com
|  1> !LC-PBE RIJCOSX def2-TZVP def2/J TightSCF xyzfile                                                                                         
|  2> 
|  3> *xyzfile 0 1 D1.xyz
|  4> 
|  5> %MaxCore 64000
|  6> 
|  7> %pal nprocs 18                                                                                                                                                  
|  8> end  
|  9> 
| 10> %scf
| 11>   MaxIter 150
| 12> end
| 13> 
| 14> 
| 15>                          ****END OF INPUT****
================================================================================

                       ****************************
                       * Single Point Calculation *
                       ****************************

---------------------------------
CARTESIAN COORDINATES (ANGSTROEM)
---------------------------------
  C      3.913853   -1.658291    3.015134
  C      5.039266   -0.901154    2.492821
  C      4.084215    1.742081   -2.114724
  C      4.265245    2.500518   -0.795890
  H      4.868534    3.392674   -0.981134
  H      3.307640    2.824571   -0.387809
  C      4.982240    1.650257    0.247422
  C      6.210384   -1.417261    2.178244
  N      6.535913   -2.677122    2.556078
  N      7.076754   -0.700820    1.478906
  H      7.954643   -1.121554    1.207554
  H      6.756161    0.106637    0.960278
  H      4.842168    0.017609    2.115191
  H      5.993876   -3.126918    3.282784
  H      7.498441   -2.975482    2.468776
  F      4.368065    1.389270    1.313706
  O      6.128919    1.233512   -0.045620
  C      3.139159   -2.376572    1.910609
  H      3.267235   -0.939401    3.520693
  H      4.247195   -2.355095    3.790065
  C      1.997274    0.430918   -1.399218
  C      3.412746    0.376886   -1.965497
  H      4.047407   -0.246590   -1.326706
  H      3.390774   -0.118719   -2.942839
  H      5.068475    1.598504   -2.565728
  H      3.503356    2.363939   -2.804565
  C      2.399946   -1.389579    1.009490
  H      2.440750   -3.087118    2.362976
  H      3.844475   -2.970462    1.318677
  C      2.070177   -1.936705   -0.372401
  H      1.481611   -1.061542    1.509912
  H      3.008628   -0.490001    0.897451
  C      1.322238   -0.935775   -1.256413
  H      1.472747   -2.850902   -0.283997
  H      3.003539   -2.234041   -0.862535
  H      1.376444    1.058920   -2.047420
  H      2.015341    0.929780   -0.426535
  H      0.316648   -0.787213   -0.848278
  H      1.185611   -1.379252   -2.248613

----------------------------
CARTESIAN COORDINATES (A.U.)
----------------------------
  NO LB      ZA    FRAG     MASS         X           Y           Z
   0 C     6.0000    0    12.011    7.396111   -3.133715    5.697778
   1 C     6.0000    0    12.011    9.522832   -1.702935    4.710749
   2 C     6.0000    0    12.011    7.718048    3.292056   -3.996250
   3 C     6.0000    0    12.011    8.060145    4.725294   -1.504014
   4 H     1.0000    0     1.008    9.200197    6.411225   -1.854074
   5 H     1.0000    0     1.008    6.250533    5.337665   -0.732852
   6 C     6.0000    0    12.011    9.415070    3.118533    0.467560
   7 C     6.0000    0    12.011   11.735926   -2.678236    4.116285
   8 N     7.0000    0    14.007   12.351086   -5.059027    4.830288
   9 N     7.0000    0    14.007   13.373127   -1.324358    2.794727
  10 H     1.0000    0     1.008   15.032097   -2.119429    2.281947
  11 H     1.0000    0     1.008   12.767294    0.201516    1.814662
  12 H     1.0000    0     1.008    9.150372    0.033277    3.997132
  13 H     1.0000    0     1.008   11.326784   -5.909018    6.203562
  14 H     1.0000    0     1.008   14.169999   -5.622847    4.665310
  15 F     9.0000    0    18.998    8.254446    2.625339    2.482544
  16 O     8.0000    0    15.999   11.581978    2.331000   -0.086210
  17 C     6.0000    0    12.011    5.932152   -4.491070    3.610528
  18 H     1.0000    0     1.008    6.174179   -1.775211    6.653145
  19 H     1.0000    0     1.008    8.026036   -4.450484    7.162184
  20 C     6.0000    0    12.011    3.774301    0.814318   -2.644139
  21 C     6.0000    0    12.011    6.449156    0.712212   -3.714252
  22 H     1.0000    0     1.008    7.648491   -0.465987   -2.507111
  23 H     1.0000    0     1.008    6.407634   -0.224346   -5.561161
  24 H     1.0000    0     1.008    9.578030    3.020734   -4.848524
  25 H     1.0000    0     1.008    6.620384    4.467196   -5.299860
  26 C     6.0000    0    12.011    4.535240   -2.625923    1.907659
  27 H     1.0000    0     1.008    4.612349   -5.833808    4.465377
  28 H     1.0000    0     1.008    7.265005   -5.613360    2.491938
  29 C     6.0000    0    12.011    3.912068   -3.659842   -0.703735
  30 H     1.0000    0     1.008    2.799840   -2.006023    2.853320
  31 H     1.0000    0     1.008    5.685483   -0.925968    1.695937
  32 C     6.0000    0    12.011    2.498667   -1.768358   -2.374277
  33 H     1.0000    0     1.008    2.783088   -5.387425   -0.536677
  34 H     1.0000    0     1.008    5.675866   -4.221725   -1.629955
  35 H     1.0000    0     1.008    2.601102    2.001069   -3.869064
  36 H     1.0000    0     1.008    3.808443    1.757029   -0.806034
  37 H     1.0000    0     1.008    0.598377   -1.487618   -1.603013
  38 H     1.0000    0     1.008    2.240481   -2.606408   -4.249264

--------------------------------
INTERNAL COORDINATES (ANGSTROEM)
--------------------------------
 C      0   0   0     0.000000000000     0.00000000     0.00000000
 C      1   0   0     1.453485443280     0.00000000     0.00000000
 C      2   1   0     5.397062831959   115.14348757     0.00000000
 C      3   2   1     1.532097611045    59.11314503   109.40719194
 H      4   3   2     1.092802021856   108.87189731   139.00405486
 H      4   3   2     1.090205655918   111.44258955   257.77719885
 C      4   3   2     1.524967567516   111.62104119    19.68257472
 C      2   1   3     1.317893766373   124.73852092   238.61776321
 N      8   2   1     1.354981786071   120.73396109   347.55295988
 N      8   2   1     1.323993306980   119.71283342   167.17472830
 H     10   8   2     1.010612779130   119.01054202   182.74777304
 H     10   8   2     1.011801586507   119.68596873   341.90401853
 H      2   1   3     1.012708267950   117.12238202    41.50352268
 H      9   8   2     1.012038255530   118.99951205   343.55991010
 H      9   8   2     1.011484164655   118.60809282   192.38988925
 F      7   4   3     1.257889696357   117.77873315   241.09573441
 O      7   4   3     1.254759572899   117.06973879    59.09677419
 C      1   2   3     1.528415415419   112.18313395    40.55299548
 H      1   2   3     1.091103498013   106.38904530   280.07132220
 H      1   2   3     1.094153031138   110.50914891   165.69684107
 C      3   2   1     2.566402161358    69.85918924   358.63373552
 C     21   3   2     1.525500843689    32.86803597   287.57417264
 H     22  21   3     1.095249262273   109.95802161   121.81463450
 H     22  21   3     1.096040506729   109.17304515   237.61374675
 H      3   2   1     1.092147522563    97.39336254   216.34966963
 H      3   2   1     1.095437941699   155.43261953    43.06177566
 C     18   1   2     1.527288090659   111.59234233   291.30595630
 H     18   1   2     1.094206250286   109.26450960   168.46195288
 H     18   1   2     1.095700648837   108.59364813    52.80241857
 C     27  18   1     1.522404354645   114.08859980   157.53677373
 H     27  18   1     1.096069675730   109.24160675   280.97905834
 H     27  18   1     1.091918658179   108.85287375    35.71174097
 C     30  27  18     1.530605579965   113.27107541   179.64303584
 H     30  27  18     1.095670751936   110.16542924    57.24922825
 H     30  27  18     1.095355598276   108.61125824   301.65869014
 H     21   3   2     1.095437356092    90.17181458   160.91850925
 H     21   3   2     1.093298677198    90.08509930    55.00215557
 H     33  30  27     1.095379590960   108.78969663   291.25991339
 H     33  30  27     1.095353635048   108.62394524   176.14504675

---------------------------
INTERNAL COORDINATES (A.U.)
---------------------------
 C      0   0   0     0.000000000000     0.00000000     0.00000000
 C      1   0   0     2.746689427440     0.00000000     0.00000000
 C      2   1   0    10.198970679968   115.14348757     0.00000000
 C      3   2   1     2.895244895311    59.11314503   109.40719194
 H      4   3   2     2.065096539903   108.87189731   139.00405486
 H      4   3   2     2.060190119337   111.44258955   257.77719885
 C      4   3   2     2.881771065717   111.62104119    19.68257472
 C      2   1   3     2.490458292047   124.73852092   238.61776321
 N      8   2   1     2.560544492126   120.73396109   347.55295988
 N      8   2   1     2.501984753337   119.71283342   167.17472830
 H     10   8   2     1.909781379998   119.01054202   182.74777304
 H     10   8   2     1.912027900366   119.68596873   341.90401853
 H      2   1   3     1.913741279984   117.12238202    41.50352268
 H      9   8   2     1.912475140003   118.99951205   343.55991010
 H      9   8   2     1.911428059996   118.60809282   192.38988925
 F      7   4   3     2.377067032797   117.77873315   241.09573441
 O      7   4   3     2.371151956695   117.06973879    59.09677419
 C      1   2   3     2.888286554006   112.18313395    40.55299548
 H      1   2   3     2.061886795008   106.38904530   280.07132220
 H      1   2   3     2.067649577451   110.50914891   165.69684107
 C      3   2   1     4.849797234470    69.85918924   358.63373552
 C     21   3   2     2.882778811638    32.86803597   287.57417264
 H     22  21   3     2.069721154075   109.95802161   121.81463450
 H     22  21   3     2.071216389401   109.17304515   237.61374675
 H      3   2   1     2.063859715485    97.39336254   216.34966963
 H      3   2   1     2.070077706517   155.43261953    43.06177566
 C     18   1   2     2.886156218945   111.59234233   291.30595630
 H     18   1   2     2.067750147065   109.26450960   168.46195288
 H     18   1   2     2.070574151061   108.59364813    52.80241857
 C     27  18   1     2.876927295368   114.08859980   157.53677373
 H     27  18   1     2.071271510826   109.24160675   280.97905834
 H     27  18   1     2.063427224477   108.85287375    35.71174097
 C     30  27  18     2.892425365185   113.27107541   179.64303584
 H     30  27  18     2.070517654106   110.16542924    57.24922825
 H     30  27  18     2.069922099999   108.61125824   301.65869014
 H     21   3   2     2.070076599880    90.17181458   160.91850925
 H     21   3   2     2.066035082482    90.08509930    55.00215557
 H     33  30  27     2.069967439602   108.78969663   291.25991339
 H     33  30  27     2.069918390037   108.62394524   176.14504675

---------------------
BASIS SET INFORMATION
---------------------
There are 5 groups of distinct atoms

 Group   1 Type C   : 11s6p2d1f contracted to 5s3p2d1f pattern {62111/411/11/1}
 Group   2 Type H   : 5s1p contracted to 3s1p pattern {311/1}
 Group   3 Type N   : 11s6p2d1f contracted to 5s3p2d1f pattern {62111/411/11/1}
 Group   4 Type F   : 11s6p2d1f contracted to 5s3p2d1f pattern {62111/411/11/1}
 Group   5 Type O   : 11s6p2d1f contracted to 5s3p2d1f pattern {62111/411/11/1}

Atom   0C    basis set group =>   1
Atom   1C    basis set group =>   1
Atom   2C    basis set group =>   1
Atom   3C    basis set group =>   1
Atom   4H    basis set group =>   2
Atom   5H    basis set group =>   2
Atom   6C    basis set group =>   1
Atom   7C    basis set group =>   1
Atom   8N    basis set group =>   3
Atom   9N    basis set group =>   3
Atom  10H    basis set group =>   2
Atom  11H    basis set group =>   2
Atom  12H    basis set group =>   2
Atom  13H    basis set group =>   2
Atom  14H    basis set group =>   2
Atom  15F    basis set group =>   4
Atom  16O    basis set group =>   5
Atom  17C    basis set group =>   1
Atom  18H    basis set group =>   2
Atom  19H    basis set group =>   2
Atom  20C    basis set group =>   1
Atom  21C    basis set group =>   1
Atom  22H    basis set group =>   2
Atom  23H    basis set group =>   2
Atom  24H    basis set group =>   2
Atom  25H    basis set group =>   2
Atom  26C    basis set group =>   1
Atom  27H    basis set group =>   2
Atom  28H    basis set group =>   2
Atom  29C    basis set group =>   1
Atom  30H    basis set group =>   2
Atom  31H    basis set group =>   2
Atom  32C    basis set group =>   1
Atom  33H    basis set group =>   2
Atom  34H    basis set group =>   2
Atom  35H    basis set group =>   2
Atom  36H    basis set group =>   2
Atom  37H    basis set group =>   2
Atom  38H    basis set group =>   2
---------------------------------
AUXILIARY/J BASIS SET INFORMATION
---------------------------------
There are 5 groups of distinct atoms

 Group   1 Type C   : 12s5p4d2f1g contracted to 6s4p3d1f1g pattern {711111/2111/211/2/1}
 Group   2 Type H   : 5s2p1d contracted to 3s1p1d pattern {311/2/1}
 Group   3 Type N   : 12s5p4d2f1g contracted to 6s4p3d1f1g pattern {711111/2111/211/2/1}
 Group   4 Type F   : 12s5p4d2f1g contracted to 6s4p3d1f1g pattern {711111/2111/211/2/1}
 Group   5 Type O   : 12s5p4d2f1g contracted to 6s4p3d1f1g pattern {711111/2111/211/2/1}

Atom   0C    basis set group =>   1
Atom   1C    basis set group =>   1
Atom   2C    basis set group =>   1
Atom   3C    basis set group =>   1
Atom   4H    basis set group =>   2
Atom   5H    basis set group =>   2
Atom   6C    basis set group =>   1
Atom   7C    basis set group =>   1
Atom   8N    basis set group =>   3
Atom   9N    basis set group =>   3
Atom  10H    basis set group =>   2
Atom  11H    basis set group =>   2
Atom  12H    basis set group =>   2
Atom  13H    basis set group =>   2
Atom  14H    basis set group =>   2
Atom  15F    basis set group =>   4
Atom  16O    basis set group =>   5
Atom  17C    basis set group =>   1
Atom  18H    basis set group =>   2
Atom  19H    basis set group =>   2
Atom  20C    basis set group =>   1
Atom  21C    basis set group =>   1
Atom  22H    basis set group =>   2
Atom  23H    basis set group =>   2
Atom  24H    basis set group =>   2
Atom  25H    basis set group =>   2
Atom  26C    basis set group =>   1
Atom  27H    basis set group =>   2
Atom  28H    basis set group =>   2
Atom  29C    basis set group =>   1
Atom  30H    basis set group =>   2
Atom  31H    basis set group =>   2
Atom  32C    basis set group =>   1
Atom  33H    basis set group =>   2
Atom  34H    basis set group =>   2
Atom  35H    basis set group =>   2
Atom  36H    basis set group =>   2
Atom  37H    basis set group =>   2
Atom  38H    basis set group =>   2


           ************************************************************
           *        Program running with 18 parallel MPI-processes    *
           *              working on a common directory               *
           ************************************************************
------------------------------------------------------------------------------
                           ORCA GTO INTEGRAL CALCULATION
                           -- RI-GTO INTEGRALS CHOSEN --
------------------------------------------------------------------------------
------------------------------------------------------------------------------
                   ___                                                        
                  /   \      - P O W E R E D   B Y -                         
                 /     \                                                     
                 |  |  |   _    _      __       _____    __    __             
                 |  |  |  | |  | |    /  \     |  _  \  |  |  /  |          
                  \  \/   | |  | |   /    \    | | | |  |  | /  /          
                 / \  \   | |__| |  /  /\  \   | |_| |  |  |/  /          
                |  |  |   |  __  | /  /__\  \  |    /   |      \           
                |  |  |   | |  | | |   __   |  |    \   |  |\   \          
                \     /   | |  | | |  |  |  |  | |\  \  |  | \   \       
                 \___/    |_|  |_| |__|  |__|  |_| \__\ |__|  \__/        
                                                                              
                      - O R C A' S   B I G   F R I E N D -                    
                                      &                                       
                       - I N T E G R A L  F E E D E R -                       
                                                                              
 v1 FN, 2020, v2 2021                                                         
------------------------------------------------------------------------------


Reading SHARK input file LC_PBE_D1_wb97.SHARKINP.tmp ... ok
----------------------
SHARK INTEGRAL PACKAGE
----------------------

Number of atoms                             ...     39
Number of basis functions                   ...    634
Number of shells                            ...    268
Maximum angular momentum                    ...      3
Integral batch strategy                     ... SHARK/LIBINT Hybrid
RI-J (if used) integral strategy            ... SPLIT-RIJ (Revised 2003 algorithm where possible)
Printlevel                                  ...      1
Contraction scheme used                     ... SEGMENTED contraction
Coulomb Range Separation                    ... NOT USED
Exchange Range Separation                   ... Long Range
   Mu parameter                             ...  0.470000
   Scaling (regular/separated)              ...  0.000000  1.000000
Finite Nucleus Model                        ... NOT USED
Auxiliary Coulomb fitting basis             ... AVAILABLE
   # of basis functions in Aux-J            ...   1037
   # of shells in Aux-J                     ...    355
   Maximum angular momentum in Aux-J        ...      4
Auxiliary J/K fitting basis                 ... NOT available
Auxiliary Correlation fitting basis         ... NOT available
Auxiliary 'external' fitting basis          ... NOT available
Integral threshold                          ...     2.500000e-11
Primitive cut-off                           ...     2.500000e-12
Primitive pair pre-selection threshold      ...     2.500000e-12

Calculating pre-screening integrals         ... done (  0.3 sec) Dimension = 268
Organizing shell pair data                  ... done (  0.3 sec)
Shell pair information
Total number of shell pairs                 ...     36046
Shell pairs after pre-screening             ...     28563
Total number of primitive shell pairs       ...    105532
Primitive shell pairs kept                  ...     57538
          la=0 lb=0:   8743 shell pairs
          la=1 lb=0:   8522 shell pairs
          la=1 lb=1:   2133 shell pairs
          la=2 lb=0:   3729 shell pairs
          la=2 lb=1:   1866 shell pairs
          la=2 lb=2:    439 shell pairs
          la=3 lb=0:   1754 shell pairs
          la=3 lb=1:    885 shell pairs
          la=3 lb=2:    392 shell pairs
          la=3 lb=3:    100 shell pairs

Calculating one electron integrals          ... done (  0.1 sec)
Calculating RI/J V-Matrix + Cholesky decomp.... done (  0.4 sec)
Calculating Nuclear repulsion               ... done (  0.0 sec) ENN=   1238.114154688295 Eh

SHARK setup successfully completed in   1.2 seconds

Maximum memory used throughout the entire GTOINT-calculation: 42.3 MB


           ************************************************************
           *        Program running with 18 parallel MPI-processes    *
           *              working on a common directory               *
           ************************************************************
-------------------------------------------------------------------------------
                                 ORCA SCF
-------------------------------------------------------------------------------

------------
SCF SETTINGS
------------
Hamiltonian:
 Density Functional     Method          .... DFT(GTOs)
 Exchange Functional    Exchange        .... LC-PBE
 Correlation Functional Correlation     .... PBE
   PBE beta parameter  CBetaPBE         ....  0.066725
 LDA part of GGA corr.  LDAOpt          .... PW91-LDA
 Gradients option       PostSCFGGA      .... off
   Density functional embedding theory  .... OFF
 Long-range corrected/Screened/Range-Separated Hybrid DFT is turned on
   Amount of maximum screened exact exchange              ....  1.000000
   Range separation parameter mu (erf(mu*r12)/r12)        ....  0.470000
   NL short-range parameter             ....  6.400000
 RI-approximation to the Coulomb term is turned on
   Number of AuxJ basis functions       .... 1037
   RIJ-COSX (HFX calculated with COS-X)).... on


General Settings:
 Integral files         IntName         .... LC_PBE_D1_wb97
 Hartree-Fock type      HFTyp           .... RHF
 Total Charge           Charge          ....    0
 Multiplicity           Mult            ....    1
 Number of Electrons    NEL             ....  126
 Basis Dimension        Dim             ....  634
 Nuclear Repulsion      ENuc            ....   1238.1141546883 Eh

Convergence Acceleration:
 DIIS                   CNVDIIS         .... on
   Start iteration      DIISMaxIt       ....    12
   Startup error        DIISStart       ....  0.200000
   # of expansion vecs  DIISMaxEq       ....     5
   Bias factor          DIISBfac        ....   1.050
   Max. coefficient     DIISMaxC        ....  10.000
 Trust-Rad. Augm. Hess. CNVTRAH         .... auto
   Auto Start mean grad. ratio tolernc. ....  1.125000
   Auto Start start iteration           ....    20
   Auto Start num. interpolation iter.  ....    10
   Max. Number of Micro iterations      ....    16
   Max. Number of Macro iterations      .... Maxiter - #DIIS iter
   Number of Davidson start vectors     ....     2
   Converg. threshold I  (grad. norm)   ....   1.000e-05
   Converg. threshold II (energy diff.) ....   1.000e-08
   Grad. Scal. Fac. for Micro threshold ....   0.100
   Minimum threshold for Micro iter.    ....   0.010
   NR start threshold (gradient norm)   ....   0.001
   Initial trust radius                 ....   0.400
   Minimum AH scaling param. (alpha)    ....   1.000
   Maximum AH scaling param. (alpha)    .... 1000.000
   Orbital update algorithm             .... Taylor
   White noise on init. David. guess    .... on
   Maximum white noise                  ....   0.010
   Quad. conv. algorithm                .... NR
 SOSCF                  CNVSOSCF        .... on
   Start iteration      SOSCFMaxIt      ....   150
   Startup grad/error   SOSCFStart      ....  0.003300
 Level Shifting         CNVShift        .... on
   Level shift para.    LevelShift      ....    0.2500
   Turn off err/grad.   ShiftErr        ....    0.0010
 Zerner damping         CNVZerner       .... off
 Static damping         CNVDamp         .... on
   Fraction old density DampFac         ....    0.7000
   Max. Damping (<1)    DampMax         ....    0.9800
   Min. Damping (>=0)   DampMin         ....    0.0000
   Turn off err/grad.   DampErr         ....    0.1000
 Fernandez-Rico         CNVRico         .... off

SCF Procedure:
 Maximum # iterations   MaxIter         ....   150
 SCF integral mode      SCFMode         .... Direct
   Integral package                     .... SHARK and LIBINT hybrid scheme
 Reset frequency        DirectResetFreq ....    20
 Integral Threshold     Thresh          ....  2.500e-11 Eh
 Primitive CutOff       TCut            ....  2.500e-12 Eh

Convergence Tolerance:
 Convergence Check Mode ConvCheckMode   .... Total+1el-Energy
 Convergence forced     ConvForced      .... 0
 Energy Change          TolE            ....  1.000e-08 Eh
 1-El. energy change                    ....  1.000e-05 Eh
 Orbital Gradient       TolG            ....  1.000e-05
 Orbital Rotation angle TolX            ....  1.000e-05
 DIIS Error             TolErr          ....  5.000e-07


Diagonalization of the overlap matrix:
Smallest eigenvalue                        ... 6.400e-05
Time for diagonalization                   ...    0.114 sec
Threshold for overlap eigenvalues          ... 1.000e-08
Number of eigenvalues below threshold      ... 0
Time for construction of square roots      ...    0.339 sec
Total time needed                          ...    0.461 sec

Time for model grid setup =    0.223 sec

------------------------------
INITIAL GUESS: MODEL POTENTIAL
------------------------------
Loading Hartree-Fock densities                     ... done
Calculating cut-offs                               ... done
Initializing the effective Hamiltonian             ... done
Setting up the integral package (SHARK)            ... done
Starting the Coulomb interaction                   ... done (   0.2 sec)
Reading the grid                                   ... done
Mapping shells                                     ... done
Starting the XC term evaluation                    ... done (   0.1 sec)
  promolecular density results
     # of electrons  =    125.996581891
     EX              =    -70.105293380
     EC              =     -4.221842574
     EX+EC           =    -74.327135955
Transforming the Hamiltonian                       ... done (   0.1 sec)
Diagonalizing the Hamiltonian                      ... done (   0.1 sec)
Back transforming the eigenvectors                 ... done (   0.0 sec)
Now organizing SCF variables                       ... done
                      ------------------
                      INITIAL GUESS DONE (   0.8 sec)
                      ------------------
-------------------
DFT GRID GENERATION
-------------------

General Integration Accuracy     IntAcc      ... 4.388
Radial Grid Type                 RadialGrid  ... OptM3 with GC (2021)
Angular Grid (max. ang.)         AngularGrid ... 4 (Lebedev-302)
Angular grid pruning method      GridPruning ... 4 (adaptive)
Weight generation scheme         WeightScheme... Becke
Basis function cutoff            BFCut       ... 1.0000e-11
Integration weight cutoff        WCut        ... 1.0000e-14
Angular grids for H and He will be reduced by one unit
Partially contracted basis set               ... off
Rotationally invariant grid construction     ... off

Total number of grid points                  ...   168166
Total number of batches                      ...     2647
Average number of points per batch           ...       63
Average number of grid points per atom       ...     4312
Time for grid setup =    1.116 sec

--------------------
COSX GRID GENERATION
--------------------

GRIDX 1
-------
General Integration Accuracy     IntAcc      ... 3.816
Radial Grid Type                 RadialGrid  ... OptM3 with GC (2021)
Angular Grid (max. ang.)         AngularGrid ... 1 (Lebedev-50)
Angular grid pruning method      GridPruning ... 4 (adaptive)
Weight generation scheme         WeightScheme... Becke
Basis function cutoff            BFCut       ... 1.0000e-11
Integration weight cutoff        WCut        ... 1.0000e-14
Angular grids for H and He will be reduced by one unit
Partially contracted basis set               ... on
Rotationally invariant grid construction     ... off

Total number of grid points                  ...    21396
Total number of batches                      ...      361
Average number of points per batch           ...       59
Average number of grid points per atom       ...      549
UseSFitting                                  ... on

GRIDX 2
-------
General Integration Accuracy     IntAcc      ... 4.020
Radial Grid Type                 RadialGrid  ... OptM3 with GC (2021)
Angular Grid (max. ang.)         AngularGrid ... 2 (Lebedev-110)
Angular grid pruning method      GridPruning ... 4 (adaptive)
Weight generation scheme         WeightScheme... Becke
Basis function cutoff            BFCut       ... 1.0000e-11
Integration weight cutoff        WCut        ... 1.0000e-14
Angular grids for H and He will be reduced by one unit
Partially contracted basis set               ... on
Rotationally invariant grid construction     ... off

Total number of grid points                  ...    44788
Total number of batches                      ...      721
Average number of points per batch           ...       62
Average number of grid points per atom       ...     1148
UseSFitting                                  ... on

GRIDX 3
-------
General Integration Accuracy     IntAcc      ... 4.338
Radial Grid Type                 RadialGrid  ... OptM3 with GC (2021)
Angular Grid (max. ang.)         AngularGrid ... 3 (Lebedev-194)
Angular grid pruning method      GridPruning ... 4 (adaptive)
Weight generation scheme         WeightScheme... Becke
Basis function cutoff            BFCut       ... 1.0000e-11
Integration weight cutoff        WCut        ... 1.0000e-14
Angular grids for H and He will be reduced by one unit
Partially contracted basis set               ... on
Rotationally invariant grid construction     ... off

Total number of grid points                  ...    97344
Total number of batches                      ...     1541
Average number of points per batch           ...       63
Average number of grid points per atom       ...     2496
UseSFitting                                  ... on

Time for X-Grid setup             =    1.401 sec

--------------
SCF ITERATIONS
--------------
ITER       Energy         Delta-E        Max-DP      RMS-DP      [F,P]     Damp
               ***  Starting incremental Fock matrix formation  ***
  0   -753.2397361061   0.000000000000 0.05611532  0.00059422  0.1463141 0.7000
  1   -753.3689007580  -0.129164651872 0.03706355  0.00048706  0.0873571 0.7000
                               ***Turning on DIIS***
  2   -753.4343510894  -0.065450331414 0.07741683  0.00111398  0.0464407 0.0000
  3   -753.5471384408  -0.112787351395 0.07430851  0.00039957  0.0384404 0.0000
  4   -753.5632680525  -0.016129611661 0.03790021  0.00020394  0.0120867 0.0000
  5   -753.5640958845  -0.000827832045 0.01577632  0.00010629  0.0117673 0.0000
                      *** Initiating the SOSCF procedure ***
                           *** Shutting down DIIS ***
                      *** Re-Reading the Fockian *** 
                      *** Removing any level shift *** 
ITER      Energy       Delta-E        Grad      Rot      Max-DP    RMS-DP
  6   -753.56443821  -0.0003423210  0.001519  0.001519  0.015817  0.000097
               *** Restarting incremental Fock matrix formation ***
  7   -753.56449494  -0.0000567334  0.000528  0.001192  0.004604  0.000028
  8   -753.56450151  -0.0000065687  0.000253  0.001336  0.004293  0.000028
  9   -753.56450369  -0.0000021827  0.000136  0.000159  0.000771  0.000006
 10   -753.56450403  -0.0000003429  0.000039  0.000091  0.000419  0.000003
 11   -753.56450411  -0.0000000732  0.000009  0.000041  0.000124  0.000001
                  ***Gradient check signals convergence***
              ***Rediagonalizing the Fockian in SOSCF/NRSCF***

               *****************************************************
               *                     SUCCESS                       *
               *           SCF CONVERGED AFTER  12 CYCLES          *
               *****************************************************


----------------
TOTAL SCF ENERGY
----------------

Total Energy       :         -753.56450413 Eh          -20505.53264 eV

Components:
Nuclear Repulsion  :         1238.11415469 Eh           33690.79896 eV
Electronic Energy  :        -1991.67865881 Eh          -54196.33159 eV
One Electron Energy:        -3487.69951582 Eh          -94905.12871 eV
Two Electron Energy:         1496.02085701 Eh           40708.79711 eV
Max COSX asymmetry :            0.00000696 Eh               0.00019 eV

Virial components:
Potential Energy   :        -1503.84184185 Eh          -40921.61693 eV
Kinetic Energy     :          750.27733772 Eh           20416.08429 eV
Virial Ratio       :            2.00438127


DFT components:
N(Alpha)           :       63.000017249883 electrons
N(Beta)            :       63.000017249883 electrons
N(Total)           :      126.000034499765 electrons
E(X)               :      -71.638253453240 Eh       
E(C)               :       -4.214196095186 Eh       
E(XC)              :      -75.852449548426 Eh       
DFET-embed. en.    :        0.000000000000 Eh       

---------------
SCF CONVERGENCE
---------------

  Last Energy change         ...   -1.9356e-08  Tolerance :   1.0000e-08
  Last MAX-Density change    ...    2.7816e-05  Tolerance :   1.0000e-07
  Last RMS-Density change    ...    2.2809e-07  Tolerance :   5.0000e-09
  Last Orbital Gradient      ...    1.8945e-06  Tolerance :   1.0000e-05
  Last Orbital Rotation      ...    6.7862e-06  Tolerance :   1.0000e-05

             **** THE GBW FILE WAS UPDATED (LC_PBE_D1_wb97.gbw) ****
             **** DENSITY LC_PBE_D1_wb97.scfp WAS UPDATED ****
             **** ENERGY FILE WAS UPDATED (LC_PBE_D1_wb97.en.tmp) ****
             **** THE GBW FILE WAS UPDATED (LC_PBE_D1_wb97.gbw) ****
             **** DENSITY LC_PBE_D1_wb97.scfp WAS UPDATED ****
----------------
ORBITAL ENERGIES
----------------

  NO   OCC          E(Eh)            E(eV) 
   0   2.0000     -24.575242      -668.7263 
   1   2.0000     -19.006466      -517.1922 
   2   2.0000     -14.195552      -386.2806 
   3   2.0000     -14.168878      -385.5548 
   4   2.0000     -10.322829      -280.8985 
   5   2.0000     -10.154737      -276.3244 
   6   2.0000     -10.140931      -275.9488 
   7   2.0000     -10.134149      -275.7642 
   8   2.0000     -10.117484      -275.3107 
   9   2.0000     -10.112376      -275.1717 
  10   2.0000     -10.106231      -275.0045 
  11   2.0000     -10.097965      -274.7796 
  12   2.0000     -10.091302      -274.5983 
  13   2.0000     -10.082564      -274.3605 
  14   2.0000     -10.077020      -274.2097 
  15   2.0000     -10.007896      -272.3287 
  16   2.0000      -1.495712       -40.7004 
  17   2.0000      -1.228156       -33.4198 
  18   2.0000      -1.113118       -30.2895 
  19   2.0000      -1.017376       -27.6842 
  20   2.0000      -1.011833       -27.5334 
  21   2.0000      -0.985136       -26.8069 
  22   2.0000      -0.953545       -25.9473 
  23   2.0000      -0.920277       -25.0420 
  24   2.0000      -0.879102       -23.9216 
  25   2.0000      -0.852911       -23.2089 
  26   2.0000      -0.824259       -22.4292 
  27   2.0000      -0.799648       -21.7595 
  28   2.0000      -0.765277       -20.8242 
  29   2.0000      -0.746198       -20.3051 
  30   2.0000      -0.726192       -19.7607 
  31   2.0000      -0.716317       -19.4920 
  32   2.0000      -0.711973       -19.3738 
  33   2.0000      -0.706955       -19.2372 
  34   2.0000      -0.676150       -18.3990 
  35   2.0000      -0.661656       -18.0046 
  36   2.0000      -0.636107       -17.3093 
  37   2.0000      -0.628615       -17.1055 
  38   2.0000      -0.624713       -16.9993 
  39   2.0000      -0.605037       -16.4639 
  40   2.0000      -0.589289       -16.0354 
  41   2.0000      -0.577370       -15.7110 
  42   2.0000      -0.568782       -15.4774 
  43   2.0000      -0.558418       -15.1953 
  44   2.0000      -0.554060       -15.0767 
  45   2.0000      -0.548266       -14.9191 
  46   2.0000      -0.530416       -14.4333 
  47   2.0000      -0.526409       -14.3243 
  48   2.0000      -0.508822       -13.8457 
  49   2.0000      -0.499591       -13.5946 
  50   2.0000      -0.498103       -13.5541 
  51   2.0000      -0.493128       -13.4187 
  52   2.0000      -0.479135       -13.0379 
  53   2.0000      -0.466694       -12.6994 
  54   2.0000      -0.463208       -12.6045 
  55   2.0000      -0.452214       -12.3054 
  56   2.0000      -0.437956       -11.9174 
  57   2.0000      -0.434002       -11.8098 
  58   2.0000      -0.428465       -11.6591 
  59   2.0000      -0.422800       -11.5050 
  60   2.0000      -0.416130       -11.3235 
  61   2.0000      -0.375911       -10.2291 
  62   2.0000      -0.257155        -6.9976 
  63   0.0000       0.049239         1.3399 
  64   0.0000       0.112155         3.0519 
  65   0.0000       0.123800         3.3688 
  66   0.0000       0.130400         3.5484 
  67   0.0000       0.132646         3.6095 
  68   0.0000       0.142914         3.8889 
  69   0.0000       0.151045         4.1101 
  70   0.0000       0.161624         4.3980 
  71   0.0000       0.164107         4.4656 
  72   0.0000       0.166291         4.5250 
  73   0.0000       0.184005         5.0070 
  74   0.0000       0.185724         5.0538 
  75   0.0000       0.192365         5.2345 
  76   0.0000       0.194057         5.2806 
  77   0.0000       0.204412         5.5623 
  78   0.0000       0.209271         5.6946 
  79   0.0000       0.212949         5.7946 
  80   0.0000       0.213391         5.8067 
  81   0.0000       0.223979         6.0948 
  82   0.0000       0.228894         6.2285 
  83   0.0000       0.236059         6.4235 
  84   0.0000       0.239527         6.5179 
  85   0.0000       0.249886         6.7998 
  86   0.0000       0.259877         7.0716 
  87   0.0000       0.263446         7.1687 
  88   0.0000       0.272029         7.4023 
  89   0.0000       0.278447         7.5769 
  90   0.0000       0.281436         7.6583 
  91   0.0000       0.287238         7.8161 
  92   0.0000       0.292001         7.9458 
  93   0.0000       0.298356         8.1187 
  94   0.0000       0.305039         8.3005 
  95   0.0000       0.306233         8.3330 
  96   0.0000       0.310386         8.4460 
  97   0.0000       0.325344         8.8531 
  98   0.0000       0.332234         9.0405 
  99   0.0000       0.335717         9.1353 
 100   0.0000       0.342357         9.3160 
 101   0.0000       0.353917         9.6306 
 102   0.0000       0.355100         9.6628 
 103   0.0000       0.365989         9.9591 
 104   0.0000       0.374347        10.1865 
 105   0.0000       0.383766        10.4428 
 106   0.0000       0.385965        10.5026 
 107   0.0000       0.387169        10.5354 
 108   0.0000       0.393899        10.7185 
 109   0.0000       0.401438        10.9237 
 110   0.0000       0.407284        11.0828 
 111   0.0000       0.413688        11.2570 
 112   0.0000       0.426730        11.6119 
 113   0.0000       0.436109        11.8671 
 114   0.0000       0.438301        11.9268 
 115   0.0000       0.448935        12.2161 
 116   0.0000       0.460024        12.5179 
 117   0.0000       0.462572        12.5872 
 118   0.0000       0.466410        12.6916 
 119   0.0000       0.477712        12.9992 
 120   0.0000       0.479800        13.0560 
 121   0.0000       0.485214        13.2033 
 122   0.0000       0.494496        13.4559 
 123   0.0000       0.496272        13.5042 
 124   0.0000       0.502339        13.6693 
 125   0.0000       0.503398        13.6982 
 126   0.0000       0.509550        13.8656 
 127   0.0000       0.520710        14.1692 
 128   0.0000       0.523973        14.2580 
 129   0.0000       0.527115        14.3435 
 130   0.0000       0.531232        14.4555 
 131   0.0000       0.535878        14.5820 
 132   0.0000       0.537908        14.6372 
 133   0.0000       0.542491        14.7619 
 134   0.0000       0.544290        14.8109 
 135   0.0000       0.548609        14.9284 
 136   0.0000       0.555596        15.1185 
 137   0.0000       0.563010        15.3203 
 138   0.0000       0.564211        15.3530 
 139   0.0000       0.568963        15.4823 
 140   0.0000       0.570756        15.5311 
 141   0.0000       0.574862        15.6428 
 142   0.0000       0.578256        15.7351 
 143   0.0000       0.582507        15.8508 
 144   0.0000       0.584434        15.9033 
 145   0.0000       0.590914        16.0796 
 146   0.0000       0.595387        16.2013 
 147   0.0000       0.598363        16.2823 
 148   0.0000       0.601119        16.3573 
 149   0.0000       0.605623        16.4798 
 150   0.0000       0.610822        16.6213 
 151   0.0000       0.618512        16.8306 
 152   0.0000       0.631707        17.1896 
 153   0.0000       0.634537        17.2666 
 154   0.0000       0.639487        17.4013 
 155   0.0000       0.647293        17.6137 
 156   0.0000       0.652428        17.7535 
 157   0.0000       0.661658        18.0046 
 158   0.0000       0.664411        18.0795 
 159   0.0000       0.670474        18.2445 
 160   0.0000       0.678928        18.4746 
 161   0.0000       0.685646        18.6574 
 162   0.0000       0.688953        18.7474 
 163   0.0000       0.692720        18.8499 
 164   0.0000       0.715536        19.4707 
 165   0.0000       0.720131        19.5958 
 166   0.0000       0.728302        19.8181 
 167   0.0000       0.731766        19.9124 
 168   0.0000       0.743940        20.2436 
 169   0.0000       0.757462        20.6116 
 170   0.0000       0.761277        20.7154 
 171   0.0000       0.776300        21.1242 
 172   0.0000       0.778235        21.1768 
 173   0.0000       0.798961        21.7408 
 174   0.0000       0.803326        21.8596 
 175   0.0000       0.824061        22.4238 
 176   0.0000       0.826414        22.4879 
 177   0.0000       0.838096        22.8058 
 178   0.0000       0.854594        23.2547 
 179   0.0000       0.862550        23.4712 
 180   0.0000       0.868935        23.6449 
 181   0.0000       0.872755        23.7489 
 182   0.0000       0.874507        23.7965 
 183   0.0000       0.889137        24.1946 
 184   0.0000       0.896520        24.3955 
 185   0.0000       0.901021        24.5180 
 186   0.0000       0.917320        24.9616 
 187   0.0000       0.923716        25.1356 
 188   0.0000       0.931684        25.3524 
 189   0.0000       0.940384        25.5892 
 190   0.0000       0.946520        25.7561 
 191   0.0000       0.961921        26.1752 
 192   0.0000       0.966379        26.2965 
 193   0.0000       0.972147        26.4535 
 194   0.0000       0.986665        26.8485 
 195   0.0000       1.011504        27.5244 
 196   0.0000       1.017462        27.6865 
 197   0.0000       1.025095        27.8943 
 198   0.0000       1.033314        28.1179 
 199   0.0000       1.038025        28.2461 
 200   0.0000       1.045358        28.4456 
 201   0.0000       1.055657        28.7259 
 202   0.0000       1.059601        28.8332 
 203   0.0000       1.078785        29.3552 
 204   0.0000       1.095995        29.8235 
 205   0.0000       1.099314        29.9139 
 206   0.0000       1.104576        30.0570 
 207   0.0000       1.116539        30.3826 
 208   0.0000       1.127935        30.6927 
 209   0.0000       1.135057        30.8865 
 210   0.0000       1.144248        31.1366 
 211   0.0000       1.157052        31.4850 
 212   0.0000       1.169377        31.8204 
 213   0.0000       1.185319        32.2542 
 214   0.0000       1.191878        32.4326 
 215   0.0000       1.201264        32.6881 
 216   0.0000       1.204925        32.7877 
 217   0.0000       1.216806        33.1110 
 218   0.0000       1.223799        33.3013 
 219   0.0000       1.237130        33.6640 
 220   0.0000       1.246194        33.9107 
 221   0.0000       1.249045        33.9883 
 222   0.0000       1.256430        34.1892 
 223   0.0000       1.260595        34.3025 
 224   0.0000       1.271709        34.6049 
 225   0.0000       1.283442        34.9242 
 226   0.0000       1.303042        35.4576 
 227   0.0000       1.305687        35.5295 
 228   0.0000       1.317989        35.8643 
 229   0.0000       1.330961        36.2173 
 230   0.0000       1.335149        36.3312 
 231   0.0000       1.337219        36.3876 
 232   0.0000       1.343551        36.5599 
 233   0.0000       1.348569        36.6964 
 234   0.0000       1.369598        37.2686 
 235   0.0000       1.376737        37.4629 
 236   0.0000       1.383885        37.6574 
 237   0.0000       1.396044        37.9883 
 238   0.0000       1.407630        38.3036 
 239   0.0000       1.409334        38.3499 
 240   0.0000       1.427349        38.8401 
 241   0.0000       1.441065        39.2134 
 242   0.0000       1.455232        39.5989 
 243   0.0000       1.460432        39.7404 
 244   0.0000       1.473908        40.1071 
 245   0.0000       1.475791        40.1583 
 246   0.0000       1.495105        40.6839 
 247   0.0000       1.501128        40.8478 
 248   0.0000       1.504870        40.9496 
 249   0.0000       1.531255        41.6676 
 250   0.0000       1.536784        41.8180 
 251   0.0000       1.546091        42.0713 
 252   0.0000       1.569132        42.6982 
 253   0.0000       1.574339        42.8400 
 254   0.0000       1.597783        43.4779 
 255   0.0000       1.625465        44.2311 
 256   0.0000       1.643260        44.7154 
 257   0.0000       1.647022        44.8178 
 258   0.0000       1.660039        45.1719 
 259   0.0000       1.665303        45.3152 
 260   0.0000       1.678255        45.6677 
 261   0.0000       1.680070        45.7170 
 262   0.0000       1.687479        45.9186 
 263   0.0000       1.698177        46.2098 
 264   0.0000       1.701709        46.3058 
 265   0.0000       1.707972        46.4763 
 266   0.0000       1.716885        46.7188 
 267   0.0000       1.728282        47.0290 
 268   0.0000       1.737951        47.2920 
 269   0.0000       1.746267        47.5183 
 270   0.0000       1.753142        47.7054 
 271   0.0000       1.759190        47.8700 
 272   0.0000       1.764130        48.0044 
 273   0.0000       1.768525        48.1240 
 274   0.0000       1.774452        48.2853 
 275   0.0000       1.783065        48.5197 
 276   0.0000       1.798813        48.9482 
 277   0.0000       1.799182        48.9582 
 278   0.0000       1.808176        49.2030 
 279   0.0000       1.812712        49.3264 
 280   0.0000       1.817460        49.4556 
 281   0.0000       1.828720        49.7620 
 282   0.0000       1.841756        50.1167 
 283   0.0000       1.852887        50.4196 
 284   0.0000       1.865248        50.7560 
 285   0.0000       1.873561        50.9822 
 286   0.0000       1.877943        51.1014 
 287   0.0000       1.881717        51.2041 
 288   0.0000       1.890605        51.4460 
 289   0.0000       1.912000        52.0282 
 290   0.0000       1.924091        52.3572 
 291   0.0000       1.928251        52.4704 
 292   0.0000       1.939497        52.7764 
 293   0.0000       1.943055        52.8732 
 294   0.0000       1.960352        53.3439 
 295   0.0000       1.965419        53.4818 
 296   0.0000       1.972492        53.6742 
 297   0.0000       1.986768        54.0627 
 298   0.0000       1.996677        54.3323 
 299   0.0000       2.002101        54.4799 
 300   0.0000       2.016889        54.8823 
 301   0.0000       2.020704        54.9861 
 302   0.0000       2.028295        55.1927 
 303   0.0000       2.044341        55.6293 
 304   0.0000       2.055317        55.9280 
 305   0.0000       2.060216        56.0613 
 306   0.0000       2.070306        56.3359 
 307   0.0000       2.074772        56.4574 
 308   0.0000       2.083243        56.6879 
 309   0.0000       2.102895        57.2227 
 310   0.0000       2.119689        57.6797 
 311   0.0000       2.125127        57.8277 
 312   0.0000       2.138167        58.1825 
 313   0.0000       2.144802        58.3630 
 314   0.0000       2.153667        58.6043 
 315   0.0000       2.158422        58.7336 
 316   0.0000       2.170658        59.0666 
 317   0.0000       2.184734        59.4496 
 318   0.0000       2.206624        60.0453 
 319   0.0000       2.209822        60.1323 
 320   0.0000       2.224498        60.5317 
 321   0.0000       2.227509        60.6136 
 322   0.0000       2.242601        61.0243 
 323   0.0000       2.244103        61.0652 
 324   0.0000       2.256596        61.4051 
 325   0.0000       2.274218        61.8846 
 326   0.0000       2.291723        62.3610 
 327   0.0000       2.303962        62.6940 
 328   0.0000       2.309201        62.8366 
 329   0.0000       2.313253        62.9468 
 330   0.0000       2.328846        63.3711 
 331   0.0000       2.345628        63.8278 
 332   0.0000       2.354702        64.0747 
 333   0.0000       2.359934        64.2171 
 334   0.0000       2.382645        64.8351 
 335   0.0000       2.387144        64.9575 
 336   0.0000       2.400265        65.3145 
 337   0.0000       2.429542        66.1112 
 338   0.0000       2.451900        66.7196 
 339   0.0000       2.455124        66.8073 
 340   0.0000       2.459910        66.9376 
 341   0.0000       2.478506        67.4436 
 342   0.0000       2.482556        67.5538 
 343   0.0000       2.492373        67.8209 
 344   0.0000       2.499970        68.0277 
 345   0.0000       2.505313        68.1730 
 346   0.0000       2.518358        68.5280 
 347   0.0000       2.535888        69.0050 
 348   0.0000       2.543653        69.2163 
 349   0.0000       2.556493        69.5657 
 350   0.0000       2.567491        69.8650 
 351   0.0000       2.572020        69.9882 
 352   0.0000       2.578476        70.1639 
 353   0.0000       2.589451        70.4626 
 354   0.0000       2.603113        70.8343 
 355   0.0000       2.609889        71.0187 
 356   0.0000       2.615287        71.1656 
 357   0.0000       2.629780        71.5599 
 358   0.0000       2.635530        71.7164 
 359   0.0000       2.645583        71.9900 
 360   0.0000       2.649144        72.0869 
 361   0.0000       2.655332        72.2553 
 362   0.0000       2.671054        72.6831 
 363   0.0000       2.676860        72.8411 
 364   0.0000       2.685944        73.0883 
 365   0.0000       2.702238        73.5316 
 366   0.0000       2.706541        73.6487 
 367   0.0000       2.712315        73.8058 
 368   0.0000       2.721435        74.0540 
 369   0.0000       2.729924        74.2850 
 370   0.0000       2.738383        74.5152 
 371   0.0000       2.744223        74.6741 
 372   0.0000       2.750233        74.8376 
 373   0.0000       2.751953        74.8844 
 374   0.0000       2.763752        75.2055 
 375   0.0000       2.768947        75.3469 
 376   0.0000       2.775808        75.5336 
 377   0.0000       2.785712        75.8031 
 378   0.0000       2.788118        75.8686 
 379   0.0000       2.792703        75.9933 
 380   0.0000       2.801556        76.2342 
 381   0.0000       2.808287        76.4174 
 382   0.0000       2.815937        76.6255 
 383   0.0000       2.824517        76.8590 
 384   0.0000       2.834747        77.1374 
 385   0.0000       2.848426        77.5096 
 386   0.0000       2.851946        77.6054 
 387   0.0000       2.862329        77.8879 
 388   0.0000       2.865174        77.9653 
 389   0.0000       2.873871        78.2020 
 390   0.0000       2.878721        78.3340 
 391   0.0000       2.890389        78.6515 
 392   0.0000       2.897145        78.8353 
 393   0.0000       2.900208        78.9187 
 394   0.0000       2.907719        79.1230 
 395   0.0000       2.917525        79.3899 
 396   0.0000       2.922484        79.5248 
 397   0.0000       2.931091        79.7590 
 398   0.0000       2.943749        80.1035 
 399   0.0000       2.950681        80.2921 
 400   0.0000       2.953340        80.3645 
 401   0.0000       2.967324        80.7450 
 402   0.0000       2.979088        81.0651 
 403   0.0000       2.986227        81.2594 
 404   0.0000       2.991111        81.3923 
 405   0.0000       3.003570        81.7313 
 406   0.0000       3.027860        82.3923 
 407   0.0000       3.040275        82.7301 
 408   0.0000       3.050034        82.9956 
 409   0.0000       3.056796        83.1797 
 410   0.0000       3.071351        83.5757 
 411   0.0000       3.077142        83.7333 
 412   0.0000       3.096420        84.2579 
 413   0.0000       3.109091        84.6027 
 414   0.0000       3.121401        84.9376 
 415   0.0000       3.129628        85.1615 
 416   0.0000       3.136268        85.3422 
 417   0.0000       3.143943        85.5510 
 418   0.0000       3.156927        85.9044 
 419   0.0000       3.178363        86.4877 
 420   0.0000       3.183863        86.6373 
 421   0.0000       3.188763        86.7707 
 422   0.0000       3.211159        87.3801 
 423   0.0000       3.214846        87.4804 
 424   0.0000       3.224588        87.7455 
 425   0.0000       3.244920        88.2988 
 426   0.0000       3.255865        88.5966 
 427   0.0000       3.264539        88.8326 
 428   0.0000       3.281260        89.2876 
 429   0.0000       3.287431        89.4556 
 430   0.0000       3.288203        89.4766 
 431   0.0000       3.296003        89.6888 
 432   0.0000       3.301581        89.8406 
 433   0.0000       3.309710        90.0618 
 434   0.0000       3.317663        90.2782 
 435   0.0000       3.331616        90.6579 
 436   0.0000       3.338196        90.8369 
 437   0.0000       3.338577        90.8473 
 438   0.0000       3.350316        91.1667 
 439   0.0000       3.356664        91.3395 
 440   0.0000       3.367852        91.6439 
 441   0.0000       3.376161        91.8700 
 442   0.0000       3.383087        92.0585 
 443   0.0000       3.387747        92.1853 
 444   0.0000       3.390889        92.2708 
 445   0.0000       3.399860        92.5149 
 446   0.0000       3.416480        92.9672 
 447   0.0000       3.427245        93.2601 
 448   0.0000       3.442887        93.6857 
 449   0.0000       3.444370        93.7261 
 450   0.0000       3.450022        93.8799 
 451   0.0000       3.459098        94.1268 
 452   0.0000       3.462716        94.2253 
 453   0.0000       3.472094        94.4805 
 454   0.0000       3.482659        94.7680 
 455   0.0000       3.485647        94.8493 
 456   0.0000       3.490258        94.9748 
 457   0.0000       3.497926        95.1834 
 458   0.0000       3.507253        95.4372 
 459   0.0000       3.522919        95.8635 
 460   0.0000       3.531061        96.0850 
 461   0.0000       3.533000        96.1378 
 462   0.0000       3.544175        96.4419 
 463   0.0000       3.564097        96.9840 
 464   0.0000       3.567949        97.0888 
 465   0.0000       3.575441        97.2927 
 466   0.0000       3.578086        97.3647 
 467   0.0000       3.585506        97.5666 
 468   0.0000       3.590174        97.6936 
 469   0.0000       3.596140        97.8560 
 470   0.0000       3.604667        98.0880 
 471   0.0000       3.614976        98.3685 
 472   0.0000       3.625328        98.6502 
 473   0.0000       3.637213        98.9736 
 474   0.0000       3.641951        99.1025 
 475   0.0000       3.657262        99.5191 
 476   0.0000       3.662013        99.6484 
 477   0.0000       3.670161        99.8702 
 478   0.0000       3.691614       100.4539 
 479   0.0000       3.700564       100.6975 
 480   0.0000       3.707443       100.8847 
 481   0.0000       3.715459       101.1028 
 482   0.0000       3.721829       101.2761 
 483   0.0000       3.728890       101.4683 
 484   0.0000       3.733601       101.5964 
 485   0.0000       3.752685       102.1158 
 486   0.0000       3.760761       102.3355 
 487   0.0000       3.768726       102.5523 
 488   0.0000       3.773801       102.6903 
 489   0.0000       3.791141       103.1622 
 490   0.0000       3.806039       103.5676 
 491   0.0000       3.823261       104.0362 
 492   0.0000       3.830241       104.2261 
 493   0.0000       3.851016       104.7915 
 494   0.0000       3.865494       105.1854 
 495   0.0000       3.883883       105.6858 
 496   0.0000       3.899409       106.1083 
 497   0.0000       3.909880       106.3932 
 498   0.0000       3.912741       106.4711 
 499   0.0000       3.952812       107.5615 
 500   0.0000       3.955709       107.6403 
 501   0.0000       3.961140       107.7881 
 502   0.0000       3.970163       108.0336 
 503   0.0000       3.978432       108.2586 
 504   0.0000       3.987663       108.5098 
 505   0.0000       4.010994       109.1447 
 506   0.0000       4.029445       109.6468 
 507   0.0000       4.035918       109.8229 
 508   0.0000       4.048161       110.1561 
 509   0.0000       4.060026       110.4789 
 510   0.0000       4.067424       110.6802 
 511   0.0000       4.084705       111.1505 
 512   0.0000       4.091863       111.3453 
 513   0.0000       4.112987       111.9201 
 514   0.0000       4.118843       112.0794 
 515   0.0000       4.145567       112.8066 
 516   0.0000       4.160580       113.2151 
 517   0.0000       4.174348       113.5898 
 518   0.0000       4.179441       113.7284 
 519   0.0000       4.181897       113.7952 
 520   0.0000       4.202571       114.3578 
 521   0.0000       4.207391       114.4889 
 522   0.0000       4.225334       114.9772 
 523   0.0000       4.258851       115.8892 
 524   0.0000       4.275873       116.3524 
 525   0.0000       4.288607       116.6989 
 526   0.0000       4.308859       117.2500 
 527   0.0000       4.329945       117.8238 
 528   0.0000       4.344666       118.2244 
 529   0.0000       4.353519       118.4653 
 530   0.0000       4.375947       119.0756 
 531   0.0000       4.378981       119.1581 
 532   0.0000       4.391769       119.5061 
 533   0.0000       4.403073       119.8137 
 534   0.0000       4.446644       120.9993 
 535   0.0000       4.473089       121.7189 
 536   0.0000       4.483922       122.0137 
 537   0.0000       4.505139       122.5911 
 538   0.0000       4.512059       122.7794 
 539   0.0000       4.540010       123.5399 
 540   0.0000       4.551634       123.8563 
 541   0.0000       4.578310       124.5821 
 542   0.0000       4.599473       125.1580 
 543   0.0000       4.620244       125.7232 
 544   0.0000       4.643306       126.3508 
 545   0.0000       4.664830       126.9365 
 546   0.0000       4.679203       127.3276 
 547   0.0000       4.686100       127.5153 
 548   0.0000       4.703379       127.9855 
 549   0.0000       4.711631       128.2100 
 550   0.0000       4.734326       128.8275 
 551   0.0000       4.765433       129.6740 
 552   0.0000       4.779581       130.0590 
 553   0.0000       4.792286       130.4047 
 554   0.0000       4.806564       130.7933 
 555   0.0000       4.842213       131.7633 
 556   0.0000       4.845202       131.8447 
 557   0.0000       4.864514       132.3702 
 558   0.0000       4.872636       132.5912 
 559   0.0000       4.885880       132.9515 
 560   0.0000       4.898823       133.3038 
 561   0.0000       4.903277       133.4250 
 562   0.0000       4.917629       133.8155 
 563   0.0000       4.937600       134.3589 
 564   0.0000       4.947452       134.6270 
 565   0.0000       4.963941       135.0757 
 566   0.0000       4.982155       135.5713 
 567   0.0000       4.992261       135.8463 
 568   0.0000       5.003984       136.1653 
 569   0.0000       5.033470       136.9677 
 570   0.0000       5.062283       137.7517 
 571   0.0000       5.077646       138.1698 
 572   0.0000       5.101678       138.8237 
 573   0.0000       5.126845       139.5085 
 574   0.0000       5.136893       139.7820 
 575   0.0000       5.186982       141.1450 
 576   0.0000       5.209343       141.7534 
 577   0.0000       5.236003       142.4789 
 578   0.0000       5.258609       143.0940 
 579   0.0000       5.279839       143.6717 
 580   0.0000       5.291798       143.9972 
 581   0.0000       5.313564       144.5894 
 582   0.0000       5.341898       145.3604 
 583   0.0000       5.350219       145.5869 
 584   0.0000       5.369833       146.1206 
 585   0.0000       5.409823       147.2088 
 586   0.0000       5.448462       148.2602 
 587   0.0000       5.453658       148.4016 
 588   0.0000       5.534342       150.5971 
 589   0.0000       5.574447       151.6884 
 590   0.0000       5.596156       152.2792 
 591   0.0000       5.613642       152.7550 
 592   0.0000       5.639459       153.4575 
 593   0.0000       5.749731       156.4581 
 594   0.0000       5.850758       159.2072 
 595   0.0000       6.046208       164.5257 
 596   0.0000       6.140332       167.0869 
 597   0.0000       6.211015       169.0103 
 598   0.0000       6.277647       170.8235 
 599   0.0000       6.321645       172.0207 
 600   0.0000       6.349512       172.7790 
 601   0.0000       6.491672       176.6474 
 602   0.0000       6.690120       182.0474 
 603   0.0000       6.866683       186.8519 
 604   0.0000       6.917113       188.2242 
 605   0.0000       6.945309       188.9915 
 606   0.0000       7.016691       190.9339 
 607   0.0000       7.150097       194.5640 
 608   0.0000       7.171429       195.1445 
 609   0.0000       7.284376       198.2179 
 610   0.0000       7.430714       202.2000 
 611   0.0000       7.578303       206.2161 
 612   0.0000       7.916483       215.4184 
 613   0.0000       8.456726       230.1192 
 614   0.0000       8.611303       234.3255 
 615   0.0000       8.900936       242.2068 
 616   0.0000       9.101197       247.6562 
 617   0.0000       9.122967       248.2485 
 618   0.0000      22.477938       611.6558 
 619   0.0000      22.495101       612.1228 
 620   0.0000      22.510060       612.5299 
 621   0.0000      22.545805       613.5025 
 622   0.0000      22.552950       613.6970 
 623   0.0000      22.568815       614.1287 
 624   0.0000      22.614114       615.3613 
 625   0.0000      22.626483       615.6979 
 626   0.0000      22.681650       617.1991 
 627   0.0000      22.954871       624.6338 
 628   0.0000      23.260919       632.9618 
 629   0.0000      23.485834       639.0820 
 630   0.0000      32.047229       872.0494 
 631   0.0000      32.252839       877.6444 
 632   0.0000      43.810136      1192.1344 
 633   0.0000      57.185868      1556.1066 

                    ********************************
                    * MULLIKEN POPULATION ANALYSIS *
                    ********************************

-----------------------
MULLIKEN ATOMIC CHARGES
-----------------------
   0 C :   -0.366337
   1 C :   -0.493351
   2 C :   -0.267632
   3 C :   -0.344119
   4 H :    0.191678
   5 H :    0.194454
   6 C :    0.359491
   7 C :    0.354939
   8 N :   -0.505896
   9 N :   -0.488838
  10 H :    0.221062
  11 H :    0.267916
  12 H :    0.148774
  13 H :    0.254353
  14 H :    0.233162
  15 F :   -0.060789
  16 O :   -0.338177
  17 C :   -0.207667
  18 H :    0.138661
  19 H :    0.128620
  20 C :   -0.357662
  21 C :   -0.383768
  22 H :    0.202875
  23 H :    0.162166
  24 H :    0.179866
  25 H :    0.159975
  26 C :   -0.245118
  27 H :    0.127355
  28 H :    0.152246
  29 C :   -0.356132
  30 H :    0.150373
  31 H :    0.083652
  32 C :   -0.251456
  33 H :    0.151929
  34 H :    0.171488
  35 H :    0.155537
  36 H :    0.174213
  37 H :    0.151924
  38 H :    0.150231
Sum of atomic charges:   -0.0000000

--------------------------------
MULLIKEN REDUCED ORBITAL CHARGES
--------------------------------
  0 C s       :     3.293558  s :     3.293558
      pz      :     0.931000  p :     2.961827
      px      :     0.993356
      py      :     1.037472
      dz2     :     0.018071  d :     0.105781
      dxz     :     0.027002
      dyz     :     0.024040
      dx2y2   :     0.013505
      dxy     :     0.023164
      f0      :     0.000304  f :     0.005170
      f+1     :     0.000951
      f-1     :     0.000693
      f+2     :     0.000938
      f-2     :     0.001291
      f+3     :     0.000764
      f-3     :     0.000229
  1 C s       :     3.292917  s :     3.292917
      pz      :     1.256364  p :     3.130442
      px      :     0.872255
      py      :     1.001823
      dz2     :     0.009606  d :     0.063597
      dxz     :     0.017824
      dyz     :     0.007571
      dx2y2   :     0.015633
      dxy     :     0.012965
      f0      :     0.000749  f :     0.006395
      f+1     :     0.001210
      f-1     :     0.000387
      f+2     :     0.000829
      f-2     :     0.001053
      f+3     :     0.001599
      f-3     :     0.000569
  2 C s       :     3.249252  s :     3.249252
      pz      :     0.919219  p :     2.916263
      px      :     1.067653
      py      :     0.929391
      dz2     :     0.011468  d :     0.097281
      dxz     :     0.020031
      dyz     :     0.030063
      dx2y2   :     0.018982
      dxy     :     0.016736
      f0      :     0.001030  f :     0.004837
      f+1     :     0.000408
      f-1     :     0.000649
      f+2     :     0.000569
      f-2     :     0.000934
      f+3     :     0.000459
      f-3     :     0.000788
  3 C s       :     3.275479  s :     3.275479
      pz      :     0.933460  p :     2.983714
      px      :     1.054851
      py      :     0.995404
      dz2     :     0.015763  d :     0.080418
      dxz     :     0.024351
      dyz     :     0.013731
      dx2y2   :     0.009263
      dxy     :     0.017310
      f0      :     0.000913  f :     0.004507
      f+1     :     0.000554
      f-1     :     0.000798
      f+2     :     0.000670
      f-2     :     0.000953
      f+3     :     0.000370
      f-3     :     0.000250
  4 H s       :     0.788176  s :     0.788176
      pz      :     0.004156  p :     0.020146
      px      :     0.006182
      py      :     0.009809
  5 H s       :     0.785522  s :     0.785522
      pz      :     0.004633  p :     0.020024
      px      :     0.010672
      py      :     0.004719
  6 C s       :     3.116701  s :     3.116701
      pz      :     0.708023  p :     2.184336
      px      :     0.744148
      py      :     0.732165
      dz2     :     0.062102  d :     0.309866
      dxz     :     0.096115
      dyz     :     0.044108
      dx2y2   :     0.050447
      dxy     :     0.057095
      f0      :     0.006358  f :     0.029605
      f+1     :     0.004442
      f-1     :     0.003493
      f+2     :     0.005185
      f-2     :     0.003828
      f+3     :     0.003614
      f-3     :     0.002685
  7 C s       :     3.040466  s :     3.040466
      pz      :     0.829494  p :     2.353481
      px      :     0.860035
      py      :     0.663952
      dz2     :     0.039043  d :     0.233311
      dxz     :     0.038656
      dyz     :     0.039778
      dx2y2   :     0.065218
      dxy     :     0.050615
      f0      :     0.001549  f :     0.017804
      f+1     :     0.002359
      f-1     :     0.002865
      f+2     :     0.002697
      f-2     :     0.002170
      f+3     :     0.003584
      f-3     :     0.002579
  8 N s       :     3.463610  s :     3.463610
      pz      :     1.534980  p :     4.009917
      px      :     1.209253
      py      :     1.265684
      dz2     :     0.004523  d :     0.029388
      dxz     :     0.002794
      dyz     :     0.007643
      dx2y2   :     0.007397
      dxy     :     0.007031
      f0      :     0.000323  f :     0.002980
      f+1     :     0.000438
      f-1     :     0.000560
      f+2     :     0.000407
      f-2     :     0.000440
      f+3     :     0.000426
      f-3     :     0.000388
  9 N s       :     3.444261  s :     3.444261
      pz      :     1.514088  p :     4.012477
      px      :     1.187490
      py      :     1.310900
      dz2     :     0.005260  d :     0.028968
      dxz     :     0.005025
      dyz     :     0.005622
      dx2y2   :     0.007035
      dxy     :     0.006027
      f0      :     0.000426  f :     0.003132
      f+1     :     0.000478
      f-1     :     0.000443
      f+2     :     0.000602
      f-2     :     0.000501
      f+3     :     0.000281
      f-3     :     0.000400
 10 H s       :     0.740977  s :     0.740977
      pz      :     0.011342  p :     0.037961
      px      :     0.017645
      py      :     0.008974
 11 H s       :     0.677176  s :     0.677176
      pz      :     0.018869  p :     0.054909
      px      :     0.009438
      py      :     0.026601
 12 H s       :     0.817957  s :     0.817957
      pz      :     0.010096  p :     0.033268
      px      :     0.005224
      py      :     0.017948
 13 H s       :     0.707333  s :     0.707333
      pz      :     0.016844  p :     0.038313
      px      :     0.011083
      py      :     0.010387
 14 H s       :     0.729270  s :     0.729270
      pz      :     0.010418  p :     0.037567
      px      :     0.018112
      py      :     0.009037
 15 F s       :     3.899835  s :     3.899835
      pz      :     1.553617  p :     5.141636
      px      :     1.771895
      py      :     1.816124
      dz2     :     0.005597  d :     0.018475
      dxz     :     0.005545
      dyz     :     0.004042
      dx2y2   :     0.001608
      dxy     :     0.001683
      f0      :     0.000175  f :     0.000842
      f+1     :     0.000261
      f-1     :     0.000108
      f+2     :     0.000123
      f-2     :     0.000132
      f+3     :     0.000022
      f-3     :     0.000021
 16 O s       :     3.841260  s :     3.841260
      pz      :     1.694070  p :     4.467950
      px      :     1.301266
      py      :     1.472614
      dz2     :     0.003097  d :     0.027426
      dxz     :     0.006580
      dyz     :     0.002471
      dx2y2   :     0.007944
      dxy     :     0.007335
      f0      :     0.000176  f :     0.001541
      f+1     :     0.000254
      f-1     :     0.000055
      f+2     :     0.000195
      f-2     :     0.000181
      f+3     :     0.000405
      f-3     :     0.000274
 17 C s       :     3.212093  s :     3.212093
      pz      :     0.958445  p :     2.897586
      px      :     0.981771
      py      :     0.957370
      dz2     :     0.019286  d :     0.093097
      dxz     :     0.017120
      dyz     :     0.020517
      dx2y2   :     0.010431
      dxy     :     0.025743
      f0      :     0.000559  f :     0.004890
      f+1     :     0.000490
      f-1     :     0.000649
      f+2     :     0.000976
      f-2     :     0.001423
      f+3     :     0.000243
      f-3     :     0.000550
 18 H s       :     0.841734  s :     0.841734
      pz      :     0.005728  p :     0.019605
      px      :     0.006603
      py      :     0.007275
 19 H s       :     0.851676  s :     0.851676
      pz      :     0.008411  p :     0.019705
      px      :     0.004718
      py      :     0.006576
 20 C s       :     3.271000  s :     3.271000
      pz      :     1.072904  p :     2.985765
      px      :     0.912377
      py      :     1.000484
      dz2     :     0.010274  d :     0.096161
      dxz     :     0.014972
      dyz     :     0.025314
      dx2y2   :     0.018927
      dxy     :     0.026673
      f0      :     0.000452  f :     0.004735
[...]
      dyz     :     0.113794
      dx2y2   :     0.060813
      dxy     :     0.098898
      f0      :     0.005269  f :     0.043728
      f+1     :     0.008364
      f-1     :     0.005541
      f+2     :     0.006126
      f-2     :     0.005995
      f+3     :     0.008333
      f-3     :     0.004101
  1 C s       :     2.728265  s :     2.728265
      pz      :     1.084848  p :     3.151459
      px      :     1.040401
      py      :     1.026209
      dz2     :     0.039683  d :     0.383087
      dxz     :     0.081883
      dyz     :     0.040917
      dx2y2   :     0.120405
      dxy     :     0.100198
      f0      :     0.004239  f :     0.046103
      f+1     :     0.005953
      f-1     :     0.002748
      f+2     :     0.006623
      f-2     :     0.006698
      f+3     :     0.011962
      f-3     :     0.007879
  2 C s       :     2.766496  s :     2.766496
      pz      :     0.999972  p :     3.075750
      px      :     1.043693
      py      :     1.032085
      dz2     :     0.059309  d :     0.393775
      dxz     :     0.077507
      dyz     :     0.110764
      dx2y2   :     0.077764
      dxy     :     0.068431
      f0      :     0.007693  f :     0.037246
      f+1     :     0.003494
      f-1     :     0.004923
      f+2     :     0.004571
      f-2     :     0.006372
      f+3     :     0.004089
      f-3     :     0.006103
  3 C s       :     2.772999  s :     2.772999
      pz      :     1.022331  p :     3.083023
      px      :     1.034112
      py      :     1.026579
      dz2     :     0.081245  d :     0.352682
      dxz     :     0.084762
      dyz     :     0.075456
      dx2y2   :     0.041976
      dxy     :     0.069243
      f0      :     0.007205  f :     0.035232
      f+1     :     0.005348
      f-1     :     0.005731
      f+2     :     0.005738
      f-2     :     0.005802
      f+3     :     0.003185
      f-3     :     0.002222
  4 H s       :     0.772133  s :     0.772133
      pz      :     0.013347  p :     0.059639
      px      :     0.019760
      py      :     0.026531
  5 H s       :     0.786447  s :     0.786447
      pz      :     0.014801  p :     0.060042
      px      :     0.030620
      py      :     0.014621
  6 C s       :     2.774843  s :     2.774843
      pz      :     0.845300  p :     2.572776
      px      :     0.934835
      py      :     0.792641
      dz2     :     0.202843  d :     0.960082
      dxz     :     0.296252
      dyz     :     0.135130
      dx2y2   :     0.159638
      dxy     :     0.166219
      f0      :     0.037013  f :     0.176645
      f+1     :     0.029953
      f-1     :     0.023195
      f+2     :     0.030824
      f-2     :     0.020144
      f+3     :     0.018673
      f-3     :     0.016843
  7 C s       :     2.691842  s :     2.691842
      pz      :     0.852282  p :     2.792170
      px      :     1.021329
      py      :     0.918559
      dz2     :     0.142462  d :     0.863330
      dxz     :     0.160123
      dyz     :     0.146581
      dx2y2   :     0.210844
      dxy     :     0.203319
      f0      :     0.009340  f :     0.117240
      f+1     :     0.011957
      f-1     :     0.017421
      f+2     :     0.019139
      f-2     :     0.012591
      f+3     :     0.026573
      f-3     :     0.020220
  8 N s       :     2.965085  s :     2.965085
      pz      :     1.431486  p :     3.922776
      px      :     1.197943
      py      :     1.293347
      dz2     :     0.018249  d :     0.141190
      dxz     :     0.012044
      dyz     :     0.030905
      dx2y2   :     0.038471
      dxy     :     0.041521
      f0      :     0.000899  f :     0.010634
      f+1     :     0.001017
      f-1     :     0.001604
      f+2     :     0.001677
      f-2     :     0.001347
      f+3     :     0.002356
      f-3     :     0.001734
  9 N s       :     2.952720  s :     2.952720
      pz      :     1.419049  p :     3.913146
      px      :     1.208395
      py      :     1.285701
      dz2     :     0.020690  d :     0.145981
      dxz     :     0.025598
      dyz     :     0.025837
      dx2y2   :     0.041778
      dxy     :     0.032079
      f0      :     0.001504  f :     0.011620
      f+1     :     0.001749
      f-1     :     0.001064
      f+2     :     0.001980
      f-2     :     0.001627
      f+3     :     0.001721
      f-3     :     0.001975
 10 H s       :     0.729948  s :     0.729948
      pz      :     0.032527  p :     0.109038
      px      :     0.046824
      py      :     0.029687
 11 H s       :     0.693871  s :     0.693871
      pz      :     0.053443  p :     0.159943
      px      :     0.029765
      py      :     0.076735
 12 H s       :     0.782709  s :     0.782709
      pz      :     0.032564  p :     0.099652
      px      :     0.018186
      py      :     0.048901
 13 H s       :     0.715905  s :     0.715905
      pz      :     0.049404  p :     0.110059
      px      :     0.033318
      py      :     0.027338
 14 H s       :     0.727878  s :     0.727878
      pz      :     0.030334  p :     0.108504
      px      :     0.053706
      py      :     0.024464
 15 F s       :     3.524925  s :     3.524925
      pz      :     1.619336  p :     5.074825
      px      :     1.727623
      py      :     1.727867
      dz2     :     0.011612  d :     0.039120
      dxz     :     0.012250
      dyz     :     0.008456
      dx2y2   :     0.003698
      dxy     :     0.003103
      f0      :     0.000386  f :     0.002070
      f+1     :     0.000598
      f-1     :     0.000290
      f+2     :     0.000385
      f-2     :     0.000294
      f+3     :     0.000061
      f-3     :     0.000054
 16 O s       :     3.412691  s :     3.412691
      pz      :     1.575545  p :     4.429681
      px      :     1.442531
      py      :     1.411605
      dz2     :     0.008420  d :     0.061862
      dxz     :     0.014933
      dyz     :     0.004434
      dx2y2   :     0.017229
      dxy     :     0.016847
      f0      :     0.000611  f :     0.005221
      f+1     :     0.000895
      f-1     :     0.000176
      f+2     :     0.000787
      f-2     :     0.000592
      f+3     :     0.000973
      f-3     :     0.001186
 17 C s       :     2.767372  s :     2.767372
      pz      :     1.024653  p :     3.073403
      px      :     1.023296
      py      :     1.025453
      dz2     :     0.069567  d :     0.398145
      dxz     :     0.085700
      dyz     :     0.093907
      dx2y2   :     0.042880
      dxy     :     0.106090
      f0      :     0.007107  f :     0.037983
      f+1     :     0.004351
      f-1     :     0.005439
      f+2     :     0.006802
      f-2     :     0.005196
      f+3     :     0.003873
      f-3     :     0.005214
 18 H s       :     0.794018  s :     0.794018
      pz      :     0.016230  p :     0.056820
      px      :     0.018720
      py      :     0.021871
 19 H s       :     0.808921  s :     0.808921
      pz      :     0.021642  p :     0.056605
      px      :     0.015265
      py      :     0.019699
 20 C s       :     2.762929  s :     2.762929
      pz      :     1.034387  p :     3.089282
      px      :     1.023976
      py      :     1.030919
      dz2     :     0.055099  d :     0.400717
      dxz     :     0.069114
      dyz     :     0.089695
      dx2y2   :     0.084289
      dxy     :     0.102519
      f0      :     0.003733  f :     0.037495
      f+1     :     0.005137
      f-1     :     0.003609
      f+2     :     0.004380
      f-2     :     0.006000
      f+3     :     0.005272
      f-3     :     0.009365
 21 C s       :     2.762309  s :     2.762309
      pz      :     1.039793  p :     3.087806
      px      :     1.027992
      py      :     1.020021
      dz2     :     0.056097  d :     0.396863
      dxz     :     0.067059
      dyz     :     0.084087
      dx2y2   :     0.084140
      dxy     :     0.105480
      f0      :     0.003640  f :     0.037588
      f+1     :     0.005187
      f-1     :     0.003574
      f+2     :     0.004348
      f-2     :     0.005712
      f+3     :     0.005262
      f-3     :     0.009865
 22 H s       :     0.787520  s :     0.787520
      pz      :     0.020556  p :     0.059487
      px      :     0.019342
      py      :     0.019589
 23 H s       :     0.792141  s :     0.792141
      pz      :     0.028688  p :     0.057845
      px      :     0.012635
      py      :     0.016521
 24 H s       :     0.786115  s :     0.786115
      pz      :     0.015333  p :     0.059097
      px      :     0.030584
      py      :     0.013180
 25 H s       :     0.791880  s :     0.791880
      pz      :     0.019961  p :     0.058042
      px      :     0.019315
      py      :     0.018766
 26 C s       :     2.760038  s :     2.760038
      pz      :     1.017136  p :     3.083685
      px      :     1.028253
      py      :     1.038295
      dz2     :     0.097199  d :     0.402609
      dxz     :     0.089067
      dyz     :     0.080853
      dx2y2   :     0.050528
      dxy     :     0.084964
      f0      :     0.006883  f :     0.038566
      f+1     :     0.005556
      f-1     :     0.007714
      f+2     :     0.007041
      f-2     :     0.004319
      f+3     :     0.004090
      f-3     :     0.002963
 27 H s       :     0.807150  s :     0.807150
      pz      :     0.016319  p :     0.057892
      px      :     0.021032
      py      :     0.020540
 28 H s       :     0.794642  s :     0.794642
      pz      :     0.018656  p :     0.057809
      px      :     0.021562
      py      :     0.017591
 29 C s       :     2.764801  s :     2.764801
      pz      :     1.022514  p :     3.086786
      px      :     1.037450
      py      :     1.026822
      dz2     :     0.099800  d :     0.401411
      dxz     :     0.088906
      dyz     :     0.076478
      dx2y2   :     0.054951
      dxy     :     0.081276
      f0      :     0.006868  f :     0.037683
      f+1     :     0.005320
      f-1     :     0.007429
      f+2     :     0.006689
      f-2     :     0.004364
      f+3     :     0.003878
      f-3     :     0.003136
 30 H s       :     0.798747  s :     0.798747
      pz      :     0.016518  p :     0.057690
      px      :     0.026386
      py      :     0.014785
 31 H s       :     0.799404  s :     0.799404
      pz      :     0.013187  p :     0.060511
      px      :     0.020987
      py      :     0.026337
 32 C s       :     2.767134  s :     2.767134
      pz      :     1.030981  p :     3.084948
      px      :     1.028927
      py      :     1.025040
      dz2     :     0.075739  d :     0.397126
      dxz     :     0.045737
      dyz     :     0.093974
      dx2y2   :     0.108334
      dxy     :     0.073343
      f0      :     0.004256  f :     0.036858
      f+1     :     0.002699
      f-1     :     0.006357
      f+2     :     0.006028
      f-2     :     0.004694
      f+3     :     0.005396
      f-3     :     0.007428
 33 H s       :     0.797412  s :     0.797412
      pz      :     0.012765  p :     0.057673
      px      :     0.018988
      py      :     0.025921
 34 H s       :     0.797323  s :     0.797323
      pz      :     0.016254  p :     0.058093
      px      :     0.027506
      py      :     0.014333
 35 H s       :     0.797167  s :     0.797167
      pz      :     0.020189  p :     0.057754
      px      :     0.018684
      py      :     0.018881
 36 H s       :     0.799140  s :     0.799140
      pz      :     0.029363  p :     0.059283
      px      :     0.013091
      py      :     0.016829
 37 H s       :     0.797006  s :     0.797006
      pz      :     0.016083  p :     0.057684
      px      :     0.028747
      py      :     0.012854
 38 H s       :     0.798373  s :     0.798373
      pz      :     0.028647  p :     0.057653
      px      :     0.013268
      py      :     0.015738


                      *****************************
                      * MAYER POPULATION ANALYSIS *
                      *****************************

  NA   - Mulliken gross atomic population
  ZA   - Total nuclear charge
  QA   - Mulliken gross atomic charge
  VA   - Mayer's total valence
  BVA  - Mayer's bonded valence
  FA   - Mayer's free valence

  ATOM       NA         ZA         QA         VA         BVA        FA
  0 C      6.3663     6.0000    -0.3663     3.9303     3.9303     0.0000
  1 C      6.4934     6.0000    -0.4934     3.5479     3.5479    -0.0000
  2 C      6.2676     6.0000    -0.2676     3.8025     3.8025    -0.0000
  3 C      6.3441     6.0000    -0.3441     3.7955     3.7955    -0.0000
  4 H      0.8083     1.0000     0.1917     0.9624     0.9624    -0.0000
  5 H      0.8055     1.0000     0.1945     0.9452     0.9452    -0.0000
  6 C      5.6405     6.0000     0.3595     4.1102     4.1102    -0.0000
  7 C      5.6451     6.0000     0.3549     3.9130     3.9130    -0.0000
  8 N      7.5059     7.0000    -0.5059     3.0283     3.0283    -0.0000
  9 N      7.4888     7.0000    -0.4888     2.9977     2.9977    -0.0000
 10 H      0.7789     1.0000     0.2211     0.9634     0.9634    -0.0000
 11 H      0.7321     1.0000     0.2679     1.0018     1.0018    -0.0000
 12 H      0.8512     1.0000     0.1488     1.0143     1.0143    -0.0000
 13 H      0.7456     1.0000     0.2544     0.9460     0.9460    -0.0000
 14 H      0.7668     1.0000     0.2332     0.9569     0.9569    -0.0000
 15 F      9.0608     9.0000    -0.0608     1.2418     1.2418     0.0000
 16 O      8.3382     8.0000    -0.3382     2.0953     2.0953    -0.0000
 17 C      6.2077     6.0000    -0.2077     3.7330     3.7330     0.0000
 18 H      0.8613     1.0000     0.1387     0.9709     0.9709    -0.0000
 19 H      0.8714     1.0000     0.1286     0.9630     0.9630     0.0000
 20 C      6.3577     6.0000    -0.3577     3.7517     3.7517     0.0000
 21 C      6.3838     6.0000    -0.3838     3.7215     3.7215     0.0000
 22 H      0.7971     1.0000     0.2029     0.9480     0.9480     0.0000
 23 H      0.8378     1.0000     0.1622     0.9676     0.9676     0.0000
 24 H      0.8201     1.0000     0.1799     0.9603     0.9603     0.0000
 25 H      0.8400     1.0000     0.1600     0.9601     0.9601     0.0000
 26 C      6.2451     6.0000    -0.2451     3.7351     3.7351    -0.0000
 27 H      0.8726     1.0000     0.1274     0.9673     0.9673    -0.0000
 28 H      0.8478     1.0000     0.1522     0.9682     0.9682    -0.0000
 29 C      6.3561     6.0000    -0.3561     3.7904     3.7904     0.0000
 30 H      0.8496     1.0000     0.1504     0.9610     0.9610    -0.0000
 31 H      0.9163     1.0000     0.0837     0.9524     0.9524    -0.0000
 32 C      6.2515     6.0000    -0.2515     3.7909     3.7909     0.0000
 33 H      0.8481     1.0000     0.1519     0.9687     0.9687     0.0000
 34 H      0.8285     1.0000     0.1715     0.9507     0.9507     0.0000
 35 H      0.8445     1.0000     0.1555     0.9659     0.9659     0.0000
 36 H      0.8258     1.0000     0.1742     0.9393     0.9393     0.0000
 37 H      0.8481     1.0000     0.1519     0.9616     0.9616     0.0000
 38 H      0.8498     1.0000     0.1502     0.9619     0.9619     0.0000

  Mayer bond orders larger than 0.100000
B(  0-C ,  1-C ) :   0.9762 B(  0-C , 17-C ) :   0.8949 B(  0-C , 18-H ) :   0.9999 
B(  0-C , 19-H ) :   1.0135 B(  1-C ,  7-C ) :   1.5995 B(  1-C , 12-H ) :   1.0388 
B(  2-C ,  3-C ) :   0.9191 B(  2-C , 21-C ) :   0.9529 B(  2-C , 24-H ) :   0.9756 
B(  2-C , 25-H ) :   0.9744 B(  3-C ,  4-H ) :   0.9526 B(  3-C ,  5-H ) :   0.9774 
B(  3-C ,  6-C ) :   0.9438 B(  6-C , 15-F ) :   1.1784 B(  6-C , 16-O ) :   1.9346 
B(  7-C ,  8-N ) :   1.1309 B(  7-C ,  9-N ) :   1.1952 B(  8-N , 13-H ) :   0.9164 
B(  8-N , 14-H ) :   0.9290 B(  9-N , 10-H ) :   0.9343 B(  9-N , 11-H ) :   0.8572 
B( 11-H , 16-O ) :   0.1115 B( 17-C , 26-C ) :   0.9620 B( 17-C , 27-H ) :   0.9812 
B( 17-C , 28-H ) :   0.9832 B( 20-C , 21-C ) :   0.8824 B( 20-C , 32-C ) :   0.9473 
B( 20-C , 35-H ) :   0.9747 B( 20-C , 36-H ) :   0.9791 B( 21-C , 22-H ) :   0.9659 
B( 21-C , 23-H ) :   0.9734 B( 26-C , 29-C ) :   0.9080 B( 26-C , 30-H ) :   0.9698 
B( 26-C , 31-H ) :   0.9750 B( 29-C , 32-C ) :   0.9379 B( 29-C , 33-H ) :   0.9824 
B( 29-C , 34-H ) :   0.9882 B( 32-C , 37-H ) :   0.9913 B( 32-C , 38-H ) :   0.9909 


-------
TIMINGS
-------

Total SCF time: 0 days 0 hours 1 min 27 sec 

Total time                  ....      87.463 sec
Sum of individual times     ....      85.535 sec  ( 97.8%)

Fock matrix formation       ....      78.777 sec  ( 90.1%)
  Split-RI-J                ....       6.706 sec  (  8.5% of F)
  Chain of spheres X        ....      64.880 sec  ( 82.4% of F)
  XC integration            ....       6.362 sec  (  8.1% of F)
    Basis function eval.    ....       1.514 sec  ( 23.8% of XC)
    Density eval.           ....       1.824 sec  ( 28.7% of XC)
    XC-Functional eval.     ....       0.202 sec  (  3.2% of XC)
    XC-Potential eval.      ....       1.555 sec  ( 24.4% of XC)
Diagonalization             ....       1.215 sec  (  1.4%)
Density matrix formation    ....       0.154 sec  (  0.2%)
Population analysis         ....       0.218 sec  (  0.2%)
Initial guess               ....       0.603 sec  (  0.7%)
Orbital Transformation      ....       0.000 sec  (  0.0%)
Orbital Orthonormalization  ....       0.000 sec  (  0.0%)
DIIS solution               ....       0.780 sec  (  0.9%)
SOSCF solution              ....       1.048 sec  (  1.2%)
Grid generation             ....       2.740 sec  (  3.1%)

Maximum memory used throughout the entire SCF-calculation: 117.9 MB

-------------------------   --------------------
FINAL SINGLE POINT ENERGY      -753.564504125789
-------------------------   --------------------


                            ***************************************
                            *     ORCA property calculations      *
                            ***************************************

                                    ---------------------
                                    Active property flags
                                    ---------------------
   (+) Dipole Moment


------------------------------------------------------------------------------
                       ORCA ELECTRIC PROPERTIES CALCULATION
------------------------------------------------------------------------------

Dipole Moment Calculation                       ... on
Quadrupole Moment Calculation                   ... off
Polarizability Calculation                      ... off
GBWName                                         ... LC_PBE_D1_wb97.gbw
Electron density file                           ... LC_PBE_D1_wb97.scfp
The origin for moment calculation is the CENTER OF MASS  = ( 7.973141, -0.506753  1.000356)

-------------
DIPOLE MOMENT
-------------
                                X             Y             Z
Electronic contribution:     11.31852       8.94394       5.88583
Nuclear contribution   :    -11.48003      -8.36271      -6.78621
                        -----------------------------------------
Total Dipole Moment    :     -0.16151       0.58123      -0.90039
                        -----------------------------------------
Magnitude (a.u.)       :      1.08380
Magnitude (Debye)      :      2.75479



--------------------
Rotational spectrum 
--------------------
 
Rotational constants in cm-1:     0.020055     0.013548     0.009477 
Rotational constants in MHz :   601.234832   406.162779   284.104317 

 Dipole components along the rotational axes: 
x,y,z [a.u.] :     1.006547     0.336265    -0.220006 
x,y,z [Debye]:     2.558439     0.854717    -0.559210 

 

Timings for individual modules:

Sum of individual times         ...       89.666 sec (=   1.494 min)
GTO integral calculation        ...        1.667 sec (=   0.028 min)   1.9 %
SCF iterations                  ...       87.999 sec (=   1.467 min)  98.1 %
                             ****ORCA TERMINATED NORMALLY****
TOTAL RUN TIME: 0 days 0 hours 1 minutes 30 seconds 440 msec
