
                                        *****************
                                        * O   R   C   A *
                                        *****************

                                            #,                                       
                                            ###                                      
                                            ####                                     
                                            #####                                    
                                            ######                                   
                                           ########,                                 
                                     ,,################,,,,,                         
                               ,,#################################,,                 
                          ,,##########################################,,             
                       ,#########################################, ''#####,          
                    ,#############################################,,   '####,        
                  ,##################################################,,,,####,       
                ,###########''''           ''''###############################       
              ,#####''   ,,,,##########,,,,          '''####'''          '####       
            ,##' ,,,,###########################,,,                        '##       
           ' ,,###''''                  '''############,,,                           
         ,,##''                                '''############,,,,        ,,,,,,###''
      ,#''                                            '''#######################'''  
     '                                                          ''''####''''         
             ,#######,   #######,   ,#######,      ##                                
            ,#'     '#,  ##    ##  ,#'     '#,    #''#        ######   ,####,        
            ##       ##  ##   ,#'  ##            #'  '#       #        #'  '#        
            ##       ##  #######   ##           ,######,      #####,   #    #        
            '#,     ,#'  ##    ##  '#,     ,#' ,#      #,         ##   #,  ,#        
             '#######'   ##     ##  '#######'  #'      '#     #####' # '####'        



                  #######################################################
                  #                        -***-                        #
                  #          Department of theory and spectroscopy      #
                  #    Directorship and core code : Frank Neese         #
                  #        Max Planck Institute fuer Kohlenforschung    #
                  #                Kaiser Wilhelm Platz 1               #
                  #                 D-45470 Muelheim/Ruhr               #
                  #                      Germany                        #
                  #                                                     #
                  #                  All rights reserved                #
                  #                        -***-                        #
                  #######################################################


                         Program Version 5.0.0 -  RELEASE  -
                                (SVN: $Rev: 19529$)
                ($Date: 2021-06-28 11:36:33 +0200 (Mo, 28 Jun 2021) $)


 With contributions from (in alphabetic order):
   Daniel Aravena         : Magnetic Suceptibility
   Michael Atanasov       : Ab Initio Ligand Field Theory (pilot matlab implementation)
   Alexander A. Auer      : GIAO ZORA, VPT2 properties, NMR spectrum
   Ute Becker             : Parallelization
   Giovanni Bistoni       : ED, misc. LED, open-shell LED, HFLD
   Martin Brehm           : Molecular dynamics
   Dmytro Bykov           : SCF Hessian
   Vijay G. Chilkuri      : MRCI spin determinant printing, contributions to CSF-ICE
   Dipayan Datta          : RHF DLPNO-CCSD density
   Achintya Kumar Dutta   : EOM-CC, STEOM-CC
   Dmitry Ganyushin       : Spin-Orbit,Spin-Spin,Magnetic field MRCI
   Miquel Garcia          : C-PCM Hessian, Gaussian charge scheme
   Yang Guo               : DLPNO-NEVPT2, F12-NEVPT2, CIM, IAO-localization
   Andreas Hansen         : Spin unrestricted coupled pair/coupled cluster methods
   Benjamin Helmich-Paris : MC-RPA, TRAH-SCF, COSX integrals
   Lee Huntington         : MR-EOM, pCC
   Robert Izsak           : Overlap fitted RIJCOSX, COSX-SCS-MP3, EOM
   Marcus Kettner         : VPT2
   Christian Kollmar      : KDIIS, OOCD, Brueckner-CCSD(T), CCSD density, CASPT2, CASPT2-K
   Simone Kossmann        : Meta GGA functionals, TD-DFT gradient, OOMP2, MP2 Hessian
   Martin Krupicka        : Initial AUTO-CI
   Lucas Lang             : DCDCAS
   Marvin Lechner         : AUTO-CI (C++ implementation), FIC-MRCC
   Dagmar Lenk            : GEPOL surface, SMD
   Dimitrios Liakos       : Extrapolation schemes; Compound Job, initial MDCI parallelization
   Dimitrios Manganas     : Further ROCIS development; embedding schemes
   Dimitrios Pantazis     : SARC Basis sets
   Anastasios Papadopoulos: AUTO-CI, single reference methods and gradients
   Taras Petrenko         : DFT Hessian,TD-DFT gradient, ASA, ECA, R-Raman, ABS, FL, XAS/XES, NRVS
   Peter Pinski           : DLPNO-MP2, DLPNO-MP2 Gradient
   Christoph Reimann      : Effective Core Potentials
   Marius Retegan         : Local ZFS, SOC
   Christoph Riplinger    : Optimizer, TS searches, QM/MM, DLPNO-CCSD(T), (RO)-DLPNO pert. Triples
   Tobias Risthaus        : Range-separated hybrids, TD-DFT gradient, RPA, STAB
   Michael Roemelt        : Original ROCIS implementation
   Masaaki Saitow         : Open-shell DLPNO-CCSD energy and density
   Barbara Sandhoefer     : DKH picture change effects
   Avijit Sen             : IP-ROCIS
   Kantharuban Sivalingam : CASSCF convergence, NEVPT2, FIC-MRCI
   Bernardo de Souza      : ESD, SOC TD-DFT
   Georgi Stoychev        : AutoAux, RI-MP2 NMR
   Willem Van den Heuvel  : Paramagnetic NMR
   Boris Wezisla          : Elementary symmetry handling
   Frank Wennmohs         : Technical directorship


 We gratefully acknowledge several colleagues who have allowed us to
 interface, adapt or use parts of their codes:
   Stefan Grimme, W. Hujo, H. Kruse, P. Pracht,  : VdW corrections, initial TS optimization,
                  C. Bannwarth, S. Ehlert          DFT functionals, gCP, sTDA/sTD-DF
   Ed Valeev, F. Pavosevic, A. Kumar             : LibInt (2-el integral package), F12 methods
   Garnet Chan, S. Sharma, J. Yang, R. Olivares  : DMRG
   Ulf Ekstrom                                   : XCFun DFT Library
   Mihaly Kallay                                 : mrcc  (arbitrary order and MRCC methods)
   Jiri Pittner, Ondrej Demel                    : Mk-CCSD
   Frank Weinhold                                : gennbo (NPA and NBO analysis)
   Christopher J. Cramer and Donald G. Truhlar   : smd solvation model
   Lars Goerigk                                  : TD-DFT with DH, B97 family of functionals
   V. Asgeirsson, H. Jonsson                     : NEB implementation
   FAccTs GmbH                                   : IRC, NEB, NEB-TS, DLPNO-Multilevel, CI-OPT
                                                   MM, QMMM, 2- and 3-layer-ONIOM, Crystal-QMMM,
                                                   LR-CPCM, SF, NACMEs, symmetry and pop. for TD-DFT,
                                                   nearIR, NL-DFT gradient (VV10), updates on ESD,
                                                   ML-optimized integration grids
   S Lehtola, MJT Oliveira, MAL Marques          : LibXC Library
   Liviu Ungur et al                             : ANISO software


 Your calculation uses the libint2 library for the computation of 2-el integrals
 For citations please refer to: http://libint.valeyev.net

 Your ORCA version has been built with support for libXC version: 5.1.0
 For citations please refer to: https://tddft.org/programs/libxc/

 This ORCA versions uses:
   CBLAS   interface :  Fast vector & matrix operations
   LAPACKE interface :  Fast linear algebra routines
   SCALAPACK package :  Parallel linear algebra routines
   Shared memory     :  Shared parallel matrices
   BLAS/LAPACK       :  OpenBLAS 0.3.15  USE64BITINT DYNAMIC_ARCH NO_AFFINITY Haswell SINGLE_THREADED
        Core in use  :  Haswell
   Copyright (c) 2011-2014, The OpenBLAS Project




***************************************
The coordinates will be read from file: D3.xyz
***************************************


XCFun DFT library Copyright 2009-2010 Ulf Ekstrom and contributors.
See http://admol.org/xcfun for more information.
This is free software; see the source code for copying conditions.
There is ABSOLUTELY NO WARRANTY; not even for MERCHANTABILITY or FITNESS FOR A PARTICULAR PURPOSE.
For details see the documentation.
Scientific users of this library should cite U. Ekstrom, L. Visscher, R. Bast, A. J. Thorvaldsen and K. Ruud;
J.Chem.Theor.Comp. 2010, DOI: 10.1021/ct100117s
XCFun Version 0.99 

================================================================================

----- Orbital basis set information -----
Your calculation utilizes the basis: def2-TZVPD
   F. Weigend and R. Ahlrichs, Phys. Chem. Chem. Phys. 7, 3297 (2005).
   D. Rappoport and F. Furche, J. Chem. Phys. 133 134105 (2010).

----- AuxJ basis set information -----
Your calculation utilizes the auxiliary basis: def2/J
   F. Weigend, Phys. Chem. Chem. Phys. 8, 1057 (2006).

================================================================================
                                        WARNINGS
                       Please study these warnings very carefully!
================================================================================


INFO   : the flag for use of the SHARK integral package has been found!

================================================================================
                                       INPUT FILE
================================================================================
NAME = 28Oct_TZVPD_LC_BLYP_D3_wb97.com
|  1> !LC-BLYP RIJCOSX def2-TZVPD def2/J TightSCF xyzfile                                                                                         
|  2> 
|  3> *xyzfile 0 1 D3.xyz
|  4> 
|  5> %MaxCore 64000
|  6> 
|  7> %pal nprocs 4                                                                                                                                                  
|  8> end  
|  9> 
| 10> %scf
| 11>   MaxIter 150
| 12> end
| 13> 
| 14> 
| 15>                          ****END OF INPUT****
================================================================================

                       ****************************
                       * Single Point Calculation *
                       ****************************

---------------------------------
CARTESIAN COORDINATES (ANGSTROEM)
---------------------------------
  C      1.963365   -1.749150   -1.896887
  N      2.738490   -2.015170   -3.097113
  C      0.611877    1.657634   -4.500288
  C      1.694991    1.541794   -5.570447
  H      2.697326    1.734659   -5.183996
  H      1.506656    2.272239   -6.358076
  S      1.780287   -0.033128   -6.428739
  C      4.049736   -2.154717   -3.152044
  N      4.658206   -1.986293   -4.318655
  C      4.764231   -2.454435   -2.050491
  H      4.287363   -2.776259   -1.217496
  H      5.750825   -2.658351   -2.125988
  H      2.345176   -1.690274   -3.971447
  H      4.109004   -1.592677   -5.071760
  H      5.649095   -2.156462   -4.427237
  F      2.569287    0.213657   -7.607360
  O      0.416880   -0.462969   -6.618595
  C      2.088520   -0.300912   -1.415204
  H      2.231272   -2.451616   -1.102643
  H      0.930249   -1.977801   -2.155438
  C      0.680356    0.655418   -3.348038
  H     -0.356865    1.549231   -4.991128
  H      0.650228    2.675438   -4.096000
  C      1.968993    0.733582   -2.535654
  H      3.051356   -0.168602   -0.911868
  H      1.316501   -0.136231   -0.657252
  O      2.505129   -0.933263   -5.482570
  H      2.824195    0.624726   -3.208464
  H      2.058919    1.730331   -2.093112
  H      0.542252   -0.344731   -3.766662
  H     -0.174219    0.829692   -2.685182

----------------------------
CARTESIAN COORDINATES (A.U.)
----------------------------
  NO LB      ZA    FRAG     MASS         X           Y           Z
   0 C     6.0000    0    12.011    3.710222   -3.305415   -3.584597
   1 N     7.0000    0    14.007    5.174997   -3.808120   -5.852696
   2 C     6.0000    0    12.011    1.156280    3.132474   -8.504312
   3 C     6.0000    0    12.011    3.203068    2.913568  -10.526619
   4 H     1.0000    0     1.008    5.097208    3.278030   -9.796333
   5 H     1.0000    0     1.008    2.847167    4.293910  -12.015023
   6 S    16.0000    0    32.060    3.364256   -0.062603  -12.148556
   7 C     6.0000    0    12.011    7.652892   -4.071825   -5.956500
   8 N     7.0000    0    14.007    8.802733   -3.753550   -8.161076
   9 C     6.0000    0    12.011    9.003091   -4.638210   -3.874866
  10 H     1.0000    0     1.008    8.101942   -5.246370   -2.300735
  11 H     1.0000    0     1.008   10.867484   -5.023556   -4.017536
  12 H     1.0000    0     1.008    4.431741   -3.194155   -7.504948
  13 H     1.0000    0     1.008    7.764891   -3.009723   -9.584237
  14 H     1.0000    0     1.008   10.675243   -4.075122   -8.366265
  15 F     9.0000    0    18.998    4.855249    0.403753  -14.375827
  16 O     8.0000    0    15.999    0.787789   -0.874885  -12.507332
  17 C     6.0000    0    12.011    3.946732   -0.568641   -2.674348
  18 H     1.0000    0     1.008    4.216494   -4.632882   -2.083694
  19 H     1.0000    0     1.008    1.757916   -3.737502   -4.073188
  20 C     6.0000    0    12.011    1.285686    1.238561   -6.326874
  21 H     1.0000    0     1.008   -0.674378    2.927622   -9.431864
  22 H     1.0000    0     1.008    1.228753    5.055845   -7.740318
  23 C     6.0000    0    12.011    3.720857    1.386269   -4.791692
  24 H     1.0000    0     1.008    5.766228   -0.318612   -1.723180
  25 H     1.0000    0     1.008    2.487826   -0.257439   -1.242026
  26 O     8.0000    0    15.999    4.734008   -1.763612  -10.360556
  27 H     1.0000    0     1.008    5.336955    1.180561   -6.063119
  28 H     1.0000    0     1.008    3.890793    3.269851   -3.955409
  29 H     1.0000    0     1.008    1.024707   -0.651447   -7.117959
  30 H     1.0000    0     1.008   -0.329227    1.567891   -5.074259

--------------------------------
INTERNAL COORDINATES (ANGSTROEM)
--------------------------------
 C      0   0   0     0.000000000000     0.00000000     0.00000000
 N      1   0   0     1.453316573840     0.00000000     0.00000000
 C      2   1   0     4.469997209231    81.66861305     0.00000000
 C      3   2   1     1.527021216669    79.64251634   166.12135406
 H      4   3   2     1.091429426821   112.94516578   291.55283625
 H      4   3   2     1.090587222827   109.44091494   172.19645502
 S      4   3   2     1.795638661190   115.79861088    54.44719017
 C      2   1   3     1.319793651653   125.70564975   125.09350255
 N      8   2   1     1.326492940223   118.61448699   200.38152835
 C      8   2   1     1.346756797244   121.10322660    20.01725842
 H     10   8   2     1.012350189617   119.59467170    13.56884806
 H     10   8   2     1.010272041928   120.12521212   173.22938336
 H      2   1   3     1.012281232535   116.57273408   332.44021856
 H      9   8   2     1.011792023943   117.06639684    10.99993176
 H      9   8   2     1.011241515739   121.50281050   185.08038097
 F      7   4   3     1.439642608659   105.48622831   163.81969223
 O      7   4   3     1.442112520958   106.22702210    38.41533571
 C      1   2   3     1.531364370737   112.91008412   309.77008032
 H      1   2   3     1.093643007341   110.58150833   184.66977938
 H      1   2   3     1.089246810669   105.74823995    70.75156459
 C      3   2   1     1.528661675104    37.19169818   353.30733645
 H      3   2   1     1.091392203112   118.80650564   270.92486636
 H      3   2   1     1.095830634114   129.10111041    61.64766166
 C     21   3   2     1.525339804606   113.93485678    68.35194369
 H     18   1   2     1.094489175769   109.32195284   283.03662940
 H     18   1   2     1.094360929868   107.60847921   167.76527056
 O      7   4   3     1.493611307442   104.40877094   280.72723475
 H     24  21   3     1.093569726740   109.14128749   305.09838428
 H     24  21   3     1.094275188126   109.35928518    60.61257975
 H     21   3   2     1.092985565182   107.79245554   304.75322685
 H     21   3   2     1.095466463975   108.47249356   190.17892582

---------------------------
INTERNAL COORDINATES (A.U.)
---------------------------
 C      0   0   0     0.000000000000     0.00000000     0.00000000
 N      1   0   0     2.746370310446     0.00000000     0.00000000
 C      2   1   0     8.447070544838    81.66861305     0.00000000
 C      3   2   1     2.885651900191    79.64251634   166.12135406
 H      4   3   2     2.062502711195   112.94516578   291.55283625
 H      4   3   2     2.060911176296   109.44091494   172.19645502
 S      4   3   2     3.393265305130   115.79861088    54.44719017
 C      2   1   3     2.494048554913   125.70564975   125.09350255
 N      8   2   1     2.506708375602   118.61448699   200.38152835
 C      8   2   1     2.545001515788   121.10322660    20.01725842
 H     10   8   2     1.913064609999   119.59467170    13.56884806
 H     10   8   2     1.909137480001   120.12521212   173.22938336
 H      2   1   3     1.912934300000   116.57273408   332.44021856
 H      9   8   2     1.912009829738   117.06639684    10.99993176
 H      9   8   2     1.910969519999   121.50281050   185.08038097
 F      7   4   3     2.720530261090   105.48622831   163.81969223
 O      7   4   3     2.725197718909   106.22702210    38.41533571
 C      1   2   3     2.893859271938   112.91008412   309.77008032
 H      1   2   3     2.066685772153   110.58150833   184.66977938
 H      1   2   3     2.058378164411   105.74823995    70.75156459
 C      3   2   1     2.888751917368    37.19169818   353.30733645
 H      3   2   1     2.062432368579   118.80650564   270.92486636
 H      3   2   1     2.070819787638   129.10111041    61.64766166
 C     21   3   2     2.882474491874   113.93485678    68.35194369
 H     18   1   2     2.068284798745   109.32195284   283.03662940
 H     18   1   2     2.068042449114   107.60847921   167.76527056
 O      7   4   3     2.822516321593   104.40877094   280.72723475
 H     24  21   3     2.066547291886   109.14128749   305.09838428
 H     24  21   3     2.067880420702   109.35928518    60.61257975
 H     21   3   2     2.065443386523   107.79245554   304.75322685
 H     21   3   2     2.070131605807   108.47249356   190.17892582

---------------------
BASIS SET INFORMATION
---------------------
There are 6 groups of distinct atoms

 Group   1 Type C   : 12s6p3d1f contracted to 6s3p3d1f pattern {621111/411/111/1}
 Group   2 Type N   : 12s6p3d1f contracted to 6s3p3d1f pattern {621111/411/111/1}
 Group   3 Type H   : 5s2p contracted to 3s2p pattern {311/11}
 Group   4 Type S   : 15s10p4d1f contracted to 6s6p3d1f pattern {732111/511111/211/1}
 Group   5 Type F   : 12s7p3d1f contracted to 6s4p3d1f pattern {621111/4111/111/1}
 Group   6 Type O   : 12s7p3d1f contracted to 6s4p3d1f pattern {621111/4111/111/1}

Atom   0C    basis set group =>   1
Atom   1N    basis set group =>   2
Atom   2C    basis set group =>   1
Atom   3C    basis set group =>   1
Atom   4H    basis set group =>   3
Atom   5H    basis set group =>   3
Atom   6S    basis set group =>   4
Atom   7C    basis set group =>   1
Atom   8N    basis set group =>   2
Atom   9C    basis set group =>   1
Atom  10H    basis set group =>   3
Atom  11H    basis set group =>   3
Atom  12H    basis set group =>   3
Atom  13H    basis set group =>   3
Atom  14H    basis set group =>   3
Atom  15F    basis set group =>   5
Atom  16O    basis set group =>   6
Atom  17C    basis set group =>   1
Atom  18H    basis set group =>   3
Atom  19H    basis set group =>   3
Atom  20C    basis set group =>   1
Atom  21H    basis set group =>   3
Atom  22H    basis set group =>   3
Atom  23C    basis set group =>   1
Atom  24H    basis set group =>   3
Atom  25H    basis set group =>   3
Atom  26O    basis set group =>   6
Atom  27H    basis set group =>   3
Atom  28H    basis set group =>   3
Atom  29H    basis set group =>   3
Atom  30H    basis set group =>   3
---------------------------------
AUXILIARY/J BASIS SET INFORMATION
---------------------------------
There are 6 groups of distinct atoms

 Group   1 Type C   : 12s5p4d2f1g contracted to 6s4p3d1f1g pattern {711111/2111/211/2/1}
 Group   2 Type N   : 12s5p4d2f1g contracted to 6s4p3d1f1g pattern {711111/2111/211/2/1}
 Group   3 Type H   : 5s2p1d contracted to 3s1p1d pattern {311/2/1}
 Group   4 Type S   : 14s5p5d2f1g contracted to 8s4p3d1f1g pattern {71111111/2111/311/2/1}
 Group   5 Type F   : 12s5p4d2f1g contracted to 6s4p3d1f1g pattern {711111/2111/211/2/1}
 Group   6 Type O   : 12s5p4d2f1g contracted to 6s4p3d1f1g pattern {711111/2111/211/2/1}

Atom   0C    basis set group =>   1
Atom   1N    basis set group =>   2
Atom   2C    basis set group =>   1
Atom   3C    basis set group =>   1
Atom   4H    basis set group =>   3
Atom   5H    basis set group =>   3
Atom   6S    basis set group =>   4
Atom   7C    basis set group =>   1
Atom   8N    basis set group =>   2
Atom   9C    basis set group =>   1
Atom  10H    basis set group =>   3
Atom  11H    basis set group =>   3
Atom  12H    basis set group =>   3
Atom  13H    basis set group =>   3
Atom  14H    basis set group =>   3
Atom  15F    basis set group =>   5
Atom  16O    basis set group =>   6
Atom  17C    basis set group =>   1
Atom  18H    basis set group =>   3
Atom  19H    basis set group =>   3
Atom  20C    basis set group =>   1
Atom  21H    basis set group =>   3
Atom  22H    basis set group =>   3
Atom  23C    basis set group =>   1
Atom  24H    basis set group =>   3
Atom  25H    basis set group =>   3
Atom  26O    basis set group =>   6
Atom  27H    basis set group =>   3
Atom  28H    basis set group =>   3
Atom  29H    basis set group =>   3
Atom  30H    basis set group =>   3


           ************************************************************
           *        Program running with 4 parallel MPI-processes     *
           *              working on a common directory               *
           ************************************************************
------------------------------------------------------------------------------
                           ORCA GTO INTEGRAL CALCULATION
                           -- RI-GTO INTEGRALS CHOSEN --
------------------------------------------------------------------------------
------------------------------------------------------------------------------
                   ___                                                        
                  /   \      - P O W E R E D   B Y -                         
                 /     \                                                     
                 |  |  |   _    _      __       _____    __    __             
                 |  |  |  | |  | |    /  \     |  _  \  |  |  /  |          
                  \  \/   | |  | |   /    \    | | | |  |  | /  /          
                 / \  \   | |__| |  /  /\  \   | |_| |  |  |/  /          
                |  |  |   |  __  | /  /__\  \  |    /   |      \           
                |  |  |   | |  | | |   __   |  |    \   |  |\   \          
                \     /   | |  | | |  |  |  |  | |\  \  |  | \   \       
                 \___/    |_|  |_| |__|  |__|  |_| \__\ |__|  \__/        
                                                                              
                      - O R C A' S   B I G   F R I E N D -                    
                                      &                                       
                       - I N T E G R A L  F E E D E R -                       
                                                                              
 v1 FN, 2020, v2 2021                                                         
------------------------------------------------------------------------------


Reading SHARK input file 28Oct_TZVPD_LC_BLYP_D3_wb97.SHARKINP.tmp ... ok
----------------------
SHARK INTEGRAL PACKAGE
----------------------

Number of atoms                             ...     31
Number of basis functions                   ...    689
Number of shells                            ...    273
Maximum angular momentum                    ...      3
Integral batch strategy                     ... SHARK/LIBINT Hybrid
RI-J (if used) integral strategy            ... SPLIT-RIJ (Revised 2003 algorithm where possible)
Printlevel                                  ...      1
Contraction scheme used                     ... SEGMENTED contraction
Coulomb Range Separation                    ... NOT USED
Exchange Range Separation                   ... Long Range
   Mu parameter                             ...  0.330000
   Scaling (regular/separated)              ...  0.000000  1.000000
Finite Nucleus Model                        ... NOT USED
Auxiliary Coulomb fitting basis             ... AVAILABLE
   # of basis functions in Aux-J            ...    875
   # of shells in Aux-J                     ...    297
   Maximum angular momentum in Aux-J        ...      4
Auxiliary J/K fitting basis                 ... NOT available
Auxiliary Correlation fitting basis         ... NOT available
Auxiliary 'external' fitting basis          ... NOT available
Integral threshold                          ...     2.500000e-11
Primitive cut-off                           ...     2.500000e-12
Primitive pair pre-selection threshold      ...     2.500000e-12

Calculating pre-screening integrals         ... done (  0.3 sec) Dimension = 273
Organizing shell pair data                  ... done (  0.3 sec)
Shell pair information
Total number of shell pairs                 ...     37401
Shell pairs after pre-screening             ...     32676
Total number of primitive shell pairs       ...     96514
Primitive shell pairs kept                  ...     63119
          la=0 lb=0:   7675 shell pairs
          la=1 lb=0:   9778 shell pairs
          la=1 lb=1:   3135 shell pairs
          la=2 lb=0:   4997 shell pairs
          la=2 lb=1:   3174 shell pairs
          la=2 lb=2:    836 shell pairs
          la=3 lb=0:   1498 shell pairs
          la=3 lb=1:    989 shell pairs
          la=3 lb=2:    512 shell pairs
          la=3 lb=3:     82 shell pairs

Calculating one electron integrals          ... done (  0.1 sec)
Calculating RI/J V-Matrix + Cholesky decomp.... done (  0.1 sec)
Calculating Nuclear repulsion               ... done (  0.0 sec) ENN=   1189.382456172062 Eh

SHARK setup successfully completed in   0.9 seconds

Maximum memory used throughout the entire GTOINT-calculation: 47.4 MB


           ************************************************************
           *        Program running with 4 parallel MPI-processes     *
           *              working on a common directory               *
           ************************************************************
-------------------------------------------------------------------------------
                                 ORCA SCF
-------------------------------------------------------------------------------

------------
SCF SETTINGS
------------
Hamiltonian:
 Density Functional     Method          .... DFT(GTOs)
 Exchange Functional    Exchange        .... WB88
 Correlation Functional Correlation     .... LYP
 Gradients option       PostSCFGGA      .... off
   Density functional embedding theory  .... OFF
 Long-range corrected/Screened/Range-Separated Hybrid DFT is turned on
   Amount of maximum screened exact exchange              ....  1.000000
   Range separation parameter mu (erf(mu*r12)/r12)        ....  0.330000
 RI-approximation to the Coulomb term is turned on
   Number of AuxJ basis functions       .... 875
   RIJ-COSX (HFX calculated with COS-X)).... on


General Settings:
 Integral files         IntName         .... 28Oct_TZVPD_LC_BLYP_D3_wb97
 Hartree-Fock type      HFTyp           .... RHF
 Total Charge           Charge          ....    0
 Multiplicity           Mult            ....    1
 Number of Electrons    NEL             ....  120
 Basis Dimension        Dim             ....  689
 Nuclear Repulsion      ENuc            ....   1189.3824561721 Eh

Convergence Acceleration:
 DIIS                   CNVDIIS         .... on
   Start iteration      DIISMaxIt       ....    12
   Startup error        DIISStart       ....  0.200000
   # of expansion vecs  DIISMaxEq       ....     5
   Bias factor          DIISBfac        ....   1.050
   Max. coefficient     DIISMaxC        ....  10.000
 Trust-Rad. Augm. Hess. CNVTRAH         .... auto
   Auto Start mean grad. ratio tolernc. ....  1.125000
   Auto Start start iteration           ....    20
   Auto Start num. interpolation iter.  ....    10
   Max. Number of Micro iterations      ....    16
   Max. Number of Macro iterations      .... Maxiter - #DIIS iter
   Number of Davidson start vectors     ....     2
   Converg. threshold I  (grad. norm)   ....   1.000e-05
   Converg. threshold II (energy diff.) ....   1.000e-08
   Grad. Scal. Fac. for Micro threshold ....   0.100
   Minimum threshold for Micro iter.    ....   0.010
   NR start threshold (gradient norm)   ....   0.001
   Initial trust radius                 ....   0.400
   Minimum AH scaling param. (alpha)    ....   1.000
   Maximum AH scaling param. (alpha)    .... 1000.000
   Orbital update algorithm             .... Taylor
   White noise on init. David. guess    .... on
   Maximum white noise                  ....   0.010
   Quad. conv. algorithm                .... NR
 SOSCF                  CNVSOSCF        .... on
   Start iteration      SOSCFMaxIt      ....   150
   Startup grad/error   SOSCFStart      ....  0.003300
 Level Shifting         CNVShift        .... on
   Level shift para.    LevelShift      ....    0.2500
   Turn off err/grad.   ShiftErr        ....    0.0010
 Zerner damping         CNVZerner       .... off
 Static damping         CNVDamp         .... on
   Fraction old density DampFac         ....    0.7000
   Max. Damping (<1)    DampMax         ....    0.9800
   Min. Damping (>=0)   DampMin         ....    0.0000
   Turn off err/grad.   DampErr         ....    0.1000
 Fernandez-Rico         CNVRico         .... off

SCF Procedure:
 Maximum # iterations   MaxIter         ....   150
 SCF integral mode      SCFMode         .... Direct
   Integral package                     .... SHARK and LIBINT hybrid scheme
 Reset frequency        DirectResetFreq ....    20
 Integral Threshold     Thresh          ....  2.500e-11 Eh
 Primitive CutOff       TCut            ....  2.500e-12 Eh

Convergence Tolerance:
 Convergence Check Mode ConvCheckMode   .... Total+1el-Energy
 Convergence forced     ConvForced      .... 0
 Energy Change          TolE            ....  1.000e-08 Eh
 1-El. energy change                    ....  1.000e-05 Eh
 Orbital Gradient       TolG            ....  1.000e-05
 Orbital Rotation angle TolX            ....  1.000e-05
 DIIS Error             TolErr          ....  5.000e-07


Diagonalization of the overlap matrix:
Smallest eigenvalue                        ... 2.111e-06
Time for diagonalization                   ...    0.121 sec
Threshold for overlap eigenvalues          ... 1.000e-08
Number of eigenvalues below threshold      ... 0
Time for construction of square roots      ...    0.152 sec
Total time needed                          ...    0.277 sec

Time for model grid setup =    0.451 sec

------------------------------
INITIAL GUESS: MODEL POTENTIAL
------------------------------
Loading Hartree-Fock densities                     ... done
Calculating cut-offs                               ... done
Initializing the effective Hamiltonian             ... done
Setting up the integral package (SHARK)            ... done
Starting the Coulomb interaction                   ... done (   0.8 sec)
Reading the grid                                   ... done
Mapping shells                                     ... done
Starting the XC term evaluation                    ... done (   1.0 sec)
  promolecular density results
     # of electrons  =    119.989382423
     EX              =   -110.514544658
     EC              =     -4.158635757
     EX+EC           =   -114.673180415
Transforming the Hamiltonian                       ... done (   0.1 sec)
Diagonalizing the Hamiltonian                      ... done (   0.1 sec)
Back transforming the eigenvectors                 ... done (   0.0 sec)
Now organizing SCF variables                       ... done
                      ------------------
                      INITIAL GUESS DONE (   2.5 sec)
                      ------------------
-------------------
DFT GRID GENERATION
-------------------

General Integration Accuracy     IntAcc      ... 4.388
Radial Grid Type                 RadialGrid  ... OptM3 with GC (2021)
Angular Grid (max. ang.)         AngularGrid ... 4 (Lebedev-302)
Angular grid pruning method      GridPruning ... 4 (adaptive)
Weight generation scheme         WeightScheme... Becke
Basis function cutoff            BFCut       ... 1.0000e-11
Integration weight cutoff        WCut        ... 1.0000e-14
Angular grids for H and He will be reduced by one unit
Partially contracted basis set               ... off
Rotationally invariant grid construction     ... off

Total number of grid points                  ...   144962
Total number of batches                      ...     2278
Average number of points per batch           ...       63
Average number of grid points per atom       ...     4676
Time for grid setup =    1.569 sec

--------------------
COSX GRID GENERATION
--------------------

GRIDX 1
-------
General Integration Accuracy     IntAcc      ... 3.816
Radial Grid Type                 RadialGrid  ... OptM3 with GC (2021)
Angular Grid (max. ang.)         AngularGrid ... 1 (Lebedev-50)
Angular grid pruning method      GridPruning ... 4 (adaptive)
Weight generation scheme         WeightScheme... Becke
Basis function cutoff            BFCut       ... 1.0000e-11
Integration weight cutoff        WCut        ... 1.0000e-14
Angular grids for H and He will be reduced by one unit
Partially contracted basis set               ... on
Rotationally invariant grid construction     ... off

Total number of grid points                  ...    18051
Total number of batches                      ...      300
Average number of points per batch           ...       60
Average number of grid points per atom       ...      582
UseSFitting                                  ... on

GRIDX 2
-------
General Integration Accuracy     IntAcc      ... 4.020
Radial Grid Type                 RadialGrid  ... OptM3 with GC (2021)
Angular Grid (max. ang.)         AngularGrid ... 2 (Lebedev-110)
Angular grid pruning method      GridPruning ... 4 (adaptive)
Weight generation scheme         WeightScheme... Becke
Basis function cutoff            BFCut       ... 1.0000e-11
Integration weight cutoff        WCut        ... 1.0000e-14
Angular grids for H and He will be reduced by one unit
Partially contracted basis set               ... on
Rotationally invariant grid construction     ... off

Total number of grid points                  ...    41947
Total number of batches                      ...      668
Average number of points per batch           ...       62
Average number of grid points per atom       ...     1353
UseSFitting                                  ... on

GRIDX 3
-------
General Integration Accuracy     IntAcc      ... 4.338
Radial Grid Type                 RadialGrid  ... OptM3 with GC (2021)
Angular Grid (max. ang.)         AngularGrid ... 3 (Lebedev-194)
Angular grid pruning method      GridPruning ... 4 (adaptive)
Weight generation scheme         WeightScheme... Becke
Basis function cutoff            BFCut       ... 1.0000e-11
Integration weight cutoff        WCut        ... 1.0000e-14
Angular grids for H and He will be reduced by one unit
Partially contracted basis set               ... on
Rotationally invariant grid construction     ... off

Total number of grid points                  ...    93692
Total number of batches                      ...     1480
Average number of points per batch           ...       63
Average number of grid points per atom       ...     3022
UseSFitting                                  ... on

Time for X-Grid setup             =    2.779 sec

--------------
SCF ITERATIONS
--------------
ITER       Energy         Delta-E        Max-DP      RMS-DP      [F,P]     Damp
               ***  Starting incremental Fock matrix formation  ***
  0  -1070.8706593180   0.000000000000 0.26172731  0.00255731  0.2804353 0.7000
  1  -1071.1547645324  -0.284105214431 0.23881880  0.00217445  0.1487613 0.7000
                               ***Turning on DIIS***
  2  -1071.2796978670  -0.124933334554 0.54346017  0.00505763  0.0735086 0.0000
  3  -1071.4886595976  -0.208961730687 0.10420124  0.00096518  0.0657766 0.0000
  4  -1071.5229087591  -0.034249161424 0.02439239  0.00031997  0.0169289 0.0000
  5  -1071.5240941289  -0.001185369828 0.01380424  0.00012040  0.0086072 0.0000
                      *** Initiating the SOSCF procedure ***
                           *** Shutting down DIIS ***
                      *** Re-Reading the Fockian *** 
                      *** Removing any level shift *** 
ITER      Energy       Delta-E        Grad      Rot      Max-DP    RMS-DP
  6  -1071.52431875  -0.0002246255  0.000605  0.000605  0.006504  0.000063
               *** Restarting incremental Fock matrix formation ***
  7  -1071.52432952  -0.0000107646  0.000272  0.000665  0.023631  0.000272
  8  -1071.52433581  -0.0000062885  0.000184  0.000753  0.011983  0.000147
  9  -1071.52433760  -0.0000017886  0.000056  0.000104  0.009612  0.000107
 10  -1071.52433806  -0.0000004671  0.000018  0.000039  0.003000  0.000036
 11  -1071.52433810  -0.0000000367  0.000017  0.000043  0.001588  0.000018
                  ***Gradient check signals convergence***
              ***Rediagonalizing the Fockian in SOSCF/NRSCF***

               *****************************************************
               *                     SUCCESS                       *
               *           SCF CONVERGED AFTER  12 CYCLES          *
               *****************************************************


----------------
TOTAL SCF ENERGY
----------------

Total Energy       :        -1071.52433812 Eh          -29157.65959 eV

Components:
Nuclear Repulsion  :         1189.38245617 Eh           32364.74202 eV
Electronic Energy  :        -2260.90679429 Eh          -61522.40161 eV
One Electron Energy:        -3832.30711025 Eh         -104282.37808 eV
Two Electron Energy:         1571.40031596 Eh           42759.97647 eV
Max COSX asymmetry :            0.00000249 Eh               0.00007 eV

Virial components:
Potential Energy   :        -2140.71146848 Eh          -58251.72052 eV
Kinetic Energy     :         1069.18713035 Eh           29094.06093 eV
Virial Ratio       :            2.00218597


DFT components:
N(Alpha)           :       59.999971005553 electrons
N(Beta)            :       59.999971005553 electrons
N(Total)           :      119.999942011107 electrons
E(XC)              :      -94.997894311562 Eh       
DFET-embed. en.    :        0.000000000000 Eh       

---------------
SCF CONVERGENCE
---------------

  Last Energy change         ...   -2.2495e-08  Tolerance :   1.0000e-08
  Last MAX-Density change    ...    2.1043e-03  Tolerance :   1.0000e-07
  Last RMS-Density change    ...    1.4218e-05  Tolerance :   5.0000e-09
  Last Orbital Gradient      ...    2.4012e-06  Tolerance :   1.0000e-05
  Last Orbital Rotation      ...    9.4116e-06  Tolerance :   1.0000e-05

             **** THE GBW FILE WAS UPDATED (28Oct_TZVPD_LC_BLYP_D3_wb97.gbw) ****
             **** DENSITY 28Oct_TZVPD_LC_BLYP_D3_wb97.scfp WAS UPDATED ****
             **** ENERGY FILE WAS UPDATED (28Oct_TZVPD_LC_BLYP_D3_wb97.en.tmp) ****
             **** THE GBW FILE WAS UPDATED (28Oct_TZVPD_LC_BLYP_D3_wb97.gbw) ****
             **** DENSITY 28Oct_TZVPD_LC_BLYP_D3_wb97.scfp WAS UPDATED ****
----------------
ORBITAL ENERGIES
----------------

  NO   OCC          E(Eh)            E(eV) 
   0   2.0000     -88.549339     -2409.5500 
   1   2.0000     -24.603574      -669.4973 
   2   2.0000     -18.981536      -516.5139 
   3   2.0000     -18.972544      -516.2692 
   4   2.0000     -14.138508      -384.7284 
   5   2.0000     -14.138165      -384.7190 
   6   2.0000     -10.147916      -276.1388 
   7   2.0000     -10.107413      -275.0367 
   8   2.0000     -10.094194      -274.6770 
   9   2.0000     -10.084383      -274.4100 
  10   2.0000     -10.078740      -274.2565 
  11   2.0000     -10.066622      -273.9267 
  12   2.0000     -10.055422      -273.6219 
  13   2.0000      -9.958610      -270.9875 
  14   2.0000      -8.092378      -220.2048 
  15   2.0000      -6.123941      -166.6409 
  16   2.0000      -6.117509      -166.4659 
  17   2.0000      -6.116810      -166.4469 
  18   2.0000      -1.494207       -40.6594 
  19   2.0000      -1.231412       -33.5084 
  20   2.0000      -1.133146       -30.8345 
  21   2.0000      -1.049297       -28.5528 
  22   2.0000      -0.967924       -26.3386 
  23   2.0000      -0.960081       -26.1251 
  24   2.0000      -0.907083       -24.6830 
  25   2.0000      -0.869570       -23.6622 
  26   2.0000      -0.833011       -22.6674 
  27   2.0000      -0.797510       -21.7013 
  28   2.0000      -0.789322       -21.4785 
  29   2.0000      -0.749086       -20.3837 
  30   2.0000      -0.722703       -19.6657 
  31   2.0000      -0.711876       -19.3711 
  32   2.0000      -0.697418       -18.9777 
  33   2.0000      -0.678715       -18.4688 
  34   2.0000      -0.647227       -17.6119 
  35   2.0000      -0.631795       -17.1920 
  36   2.0000      -0.623469       -16.9655 
  37   2.0000      -0.615737       -16.7551 
  38   2.0000      -0.602076       -16.3833 
  39   2.0000      -0.586016       -15.9463 
  40   2.0000      -0.564865       -15.3708 
  41   2.0000      -0.563415       -15.3313 
  42   2.0000      -0.546732       -14.8773 
  43   2.0000      -0.528766       -14.3885 
  44   2.0000      -0.524120       -14.2620 
  45   2.0000      -0.520918       -14.1749 
  46   2.0000      -0.493104       -13.4180 
  47   2.0000      -0.487424       -13.2635 
  48   2.0000      -0.475500       -12.9390 
  49   2.0000      -0.469005       -12.7623 
  50   2.0000      -0.464860       -12.6495 
  51   2.0000      -0.451761       -12.2930 
  52   2.0000      -0.449203       -12.2234 
  53   2.0000      -0.442755       -12.0480 
  54   2.0000      -0.435396       -11.8477 
  55   2.0000      -0.428482       -11.6596 
  56   2.0000      -0.423979       -11.5371 
  57   2.0000      -0.411692       -11.2027 
  58   2.0000      -0.323225        -8.7954 
  59   2.0000      -0.237026        -6.4498 
  60   0.0000       0.018120         0.4931 
  61   0.0000       0.038550         1.0490 
  62   0.0000       0.042870         1.1666 
  63   0.0000       0.055094         1.4992 
  64   0.0000       0.068373         1.8605 
  65   0.0000       0.070773         1.9258 
  66   0.0000       0.075705         2.0600 
  67   0.0000       0.080935         2.2024 
  68   0.0000       0.085109         2.3159 
  69   0.0000       0.097981         2.6662 
  70   0.0000       0.102471         2.7884 
  71   0.0000       0.106592         2.9005 
  72   0.0000       0.108359         2.9486 
  73   0.0000       0.114385         3.1126 
  74   0.0000       0.123518         3.3611 
  75   0.0000       0.127914         3.4807 
  76   0.0000       0.130043         3.5386 
  77   0.0000       0.135565         3.6889 
  78   0.0000       0.139276         3.7899 
  79   0.0000       0.140746         3.8299 
  80   0.0000       0.151131         4.1125 
  81   0.0000       0.154403         4.2015 
  82   0.0000       0.159468         4.3394 
  83   0.0000       0.160580         4.3696 
  84   0.0000       0.163527         4.4498 
  85   0.0000       0.166644         4.5346 
  86   0.0000       0.172464         4.6930 
  87   0.0000       0.177742         4.8366 
  88   0.0000       0.180687         4.9168 
  89   0.0000       0.184268         5.0142 
  90   0.0000       0.189668         5.1611 
  91   0.0000       0.198302         5.3961 
  92   0.0000       0.199098         5.4177 
  93   0.0000       0.203658         5.5418 
  94   0.0000       0.210046         5.7156 
  95   0.0000       0.214551         5.8382 
  96   0.0000       0.219112         5.9623 
  97   0.0000       0.220747         6.0068 
  98   0.0000       0.226404         6.1608 
  99   0.0000       0.233130         6.3438 
 100   0.0000       0.235768         6.4156 
 101   0.0000       0.244698         6.6586 
 102   0.0000       0.249130         6.7792 
 103   0.0000       0.251688         6.8488 
 104   0.0000       0.254678         6.9301 
 105   0.0000       0.262583         7.1453 
 106   0.0000       0.266448         7.2504 
 107   0.0000       0.267951         7.2913 
 108   0.0000       0.271289         7.3821 
 109   0.0000       0.276947         7.5361 
 110   0.0000       0.279145         7.5959 
 111   0.0000       0.282930         7.6989 
 112   0.0000       0.287186         7.8147 
 113   0.0000       0.291030         7.9193 
 114   0.0000       0.292778         7.9669 
 115   0.0000       0.297586         8.0977 
 116   0.0000       0.298765         8.1298 
 117   0.0000       0.304392         8.2829 
 118   0.0000       0.305620         8.3163 
 119   0.0000       0.312390         8.5006 
 120   0.0000       0.315482         8.5847 
 121   0.0000       0.319477         8.6934 
 122   0.0000       0.324450         8.8287 
 123   0.0000       0.326585         8.8868 
 124   0.0000       0.329615         8.9693 
 125   0.0000       0.331462         9.0195 
 126   0.0000       0.336985         9.1698 
 127   0.0000       0.340139         9.2556 
 128   0.0000       0.341448         9.2913 
 129   0.0000       0.348221         9.4756 
 130   0.0000       0.349351         9.5063 
 131   0.0000       0.355899         9.6845 
 132   0.0000       0.357978         9.7411 
 133   0.0000       0.358187         9.7468 
 134   0.0000       0.362107         9.8534 
 135   0.0000       0.364551         9.9199 
 136   0.0000       0.370287        10.0760 
 137   0.0000       0.371141        10.0993 
 138   0.0000       0.376297        10.2396 
 139   0.0000       0.380487        10.3536 
 140   0.0000       0.383517        10.4360 
 141   0.0000       0.388973        10.5845 
 142   0.0000       0.390902        10.6370 
 143   0.0000       0.396258        10.7827 
 144   0.0000       0.397415        10.8142 
 145   0.0000       0.401021        10.9123 
 146   0.0000       0.408404        11.1132 
 147   0.0000       0.409938        11.1550 
 148   0.0000       0.411400        11.1948 
 149   0.0000       0.414435        11.2773 
 150   0.0000       0.418083        11.3766 
 151   0.0000       0.421082        11.4582 
 152   0.0000       0.425050        11.5662 
 153   0.0000       0.428598        11.6627 
 154   0.0000       0.431132        11.7317 
 155   0.0000       0.435772        11.8579 
 156   0.0000       0.440576        11.9887 
 157   0.0000       0.443344        12.0640 
 158   0.0000       0.447194        12.1688 
 159   0.0000       0.447700        12.1825 
 160   0.0000       0.451540        12.2870 
 161   0.0000       0.458975        12.4894 
 162   0.0000       0.463245        12.6055 
 163   0.0000       0.465331        12.6623 
 164   0.0000       0.466174        12.6852 
 165   0.0000       0.469227        12.7683 
 166   0.0000       0.473295        12.8790 
 167   0.0000       0.478643        13.0246 
 168   0.0000       0.483194        13.1484 
 169   0.0000       0.491349        13.3703 
 170   0.0000       0.492129        13.3915 
 171   0.0000       0.496921        13.5219 
 172   0.0000       0.499559        13.5937 
 173   0.0000       0.509914        13.8755 
 174   0.0000       0.514923        14.0118 
 175   0.0000       0.518357        14.1052 
 176   0.0000       0.522941        14.2300 
 177   0.0000       0.524843        14.2817 
 178   0.0000       0.529505        14.4086 
 179   0.0000       0.533355        14.5133 
 180   0.0000       0.537110        14.6155 
 181   0.0000       0.538936        14.6652 
 182   0.0000       0.541629        14.7385 
 183   0.0000       0.549859        14.9624 
 184   0.0000       0.552902        15.0452 
 185   0.0000       0.554884        15.0991 
 186   0.0000       0.559583        15.2270 
 187   0.0000       0.562158        15.2971 
 188   0.0000       0.569104        15.4861 
 189   0.0000       0.574405        15.6303 
 190   0.0000       0.576203        15.6793 
 191   0.0000       0.580265        15.7898 
 192   0.0000       0.581779        15.8310 
 193   0.0000       0.589681        16.0460 
 194   0.0000       0.593104        16.1392 
 195   0.0000       0.597841        16.2681 
 196   0.0000       0.600108        16.3298 
 197   0.0000       0.604577        16.4514 
 198   0.0000       0.608160        16.5489 
 199   0.0000       0.614932        16.7331 
 200   0.0000       0.619637        16.8612 
 201   0.0000       0.622219        16.9314 
 202   0.0000       0.626053        17.0358 
 203   0.0000       0.631077        17.1725 
 204   0.0000       0.635615        17.2960 
 205   0.0000       0.638140        17.3647 
 206   0.0000       0.645684        17.5700 
 207   0.0000       0.649084        17.6625 
 208   0.0000       0.656942        17.8763 
 209   0.0000       0.659413        17.9435 
 210   0.0000       0.667341        18.1593 
 211   0.0000       0.670910        18.2564 
 212   0.0000       0.671207        18.2645 
 213   0.0000       0.673697        18.3322 
 214   0.0000       0.680358        18.5135 
 215   0.0000       0.682478        18.5712 
 216   0.0000       0.692102        18.8330 
 217   0.0000       0.695061        18.9136 
 218   0.0000       0.697206        18.9719 
 219   0.0000       0.704788        19.1783 
 220   0.0000       0.706160        19.2156 
 221   0.0000       0.711329        19.3562 
 222   0.0000       0.713647        19.4193 
 223   0.0000       0.716369        19.4934 
 224   0.0000       0.724405        19.7121 
 225   0.0000       0.726728        19.7753 
 226   0.0000       0.730554        19.8794 
 227   0.0000       0.734604        19.9896 
 228   0.0000       0.740859        20.1598 
 229   0.0000       0.743749        20.2384 
 230   0.0000       0.749125        20.3847 
 231   0.0000       0.751041        20.4369 
 232   0.0000       0.755124        20.5480 
 233   0.0000       0.763429        20.7740 
 234   0.0000       0.764574        20.8051 
 235   0.0000       0.767884        20.8952 
 236   0.0000       0.772917        21.0321 
 237   0.0000       0.780141        21.2287 
 238   0.0000       0.782855        21.3026 
 239   0.0000       0.784854        21.3570 
 240   0.0000       0.793428        21.5903 
 241   0.0000       0.795407        21.6441 
 242   0.0000       0.799527        21.7562 
 243   0.0000       0.802883        21.8476 
 244   0.0000       0.805853        21.9284 
 245   0.0000       0.808820        22.0091 
 246   0.0000       0.811743        22.0886 
 247   0.0000       0.814477        22.1631 
 248   0.0000       0.825542        22.4641 
 249   0.0000       0.829559        22.5734 
 250   0.0000       0.830836        22.6082 
 251   0.0000       0.836651        22.7664 
 252   0.0000       0.837918        22.8009 
 253   0.0000       0.849414        23.1137 
 254   0.0000       0.850337        23.1388 
 255   0.0000       0.859203        23.3801 
 256   0.0000       0.860161        23.4062 
 257   0.0000       0.866187        23.5701 
 258   0.0000       0.873427        23.7672 
 259   0.0000       0.875252        23.8168 
 260   0.0000       0.878404        23.9026 
 261   0.0000       0.889633        24.2082 
 262   0.0000       0.895690        24.3730 
 263   0.0000       0.897177        24.4134 
 264   0.0000       0.903558        24.5871 
 265   0.0000       0.907311        24.6892 
 266   0.0000       0.912604        24.8332 
 267   0.0000       0.917377        24.9631 
 268   0.0000       0.919691        25.0261 
 269   0.0000       0.924894        25.1677 
 270   0.0000       0.930248        25.3133 
 271   0.0000       0.938667        25.5424 
 272   0.0000       0.944124        25.6909 
 273   0.0000       0.947535        25.7837 
 274   0.0000       0.949116        25.8268 
 275   0.0000       0.958162        26.0729 
 276   0.0000       0.962635        26.1946 
 277   0.0000       0.973226        26.4828 
 278   0.0000       0.976817        26.5805 
 279   0.0000       0.981106        26.6973 
 280   0.0000       0.990813        26.9614 
 281   0.0000       0.996556        27.1177 
 282   0.0000       1.005967        27.3738 
 283   0.0000       1.008779        27.4503 
 284   0.0000       1.017430        27.6857 
 285   0.0000       1.024418        27.8758 
 286   0.0000       1.037669        28.2364 
 287   0.0000       1.041145        28.3310 
 288   0.0000       1.050982        28.5987 
 289   0.0000       1.061390        28.8819 
 290   0.0000       1.066191        29.0125 
 291   0.0000       1.072891        29.1949 
 292   0.0000       1.075892        29.2765 
 293   0.0000       1.089543        29.6480 
 294   0.0000       1.090620        29.6773 
 295   0.0000       1.101289        29.9676 
 296   0.0000       1.107885        30.1471 
 297   0.0000       1.118521        30.4365 
 298   0.0000       1.121915        30.5289 
 299   0.0000       1.131807        30.7980 
 300   0.0000       1.141574        31.0638 
 301   0.0000       1.145852        31.1802 
 302   0.0000       1.151857        31.3436 
 303   0.0000       1.158439        31.5227 
 304   0.0000       1.161608        31.6090 
 305   0.0000       1.174655        31.9640 
 306   0.0000       1.183670        32.2093 
 307   0.0000       1.184610        32.2349 
 308   0.0000       1.195229        32.5238 
 309   0.0000       1.203534        32.7498 
 310   0.0000       1.217613        33.1329 
 311   0.0000       1.226331        33.3702 
 312   0.0000       1.243596        33.8400 
 313   0.0000       1.253171        34.1005 
 314   0.0000       1.261583        34.3294 
 315   0.0000       1.275678        34.7130 
 316   0.0000       1.286250        35.0006 
 317   0.0000       1.293129        35.1878 
 318   0.0000       1.298163        35.3248 
 319   0.0000       1.310904        35.6715 
 320   0.0000       1.314259        35.7628 
 321   0.0000       1.330058        36.1927 
 322   0.0000       1.335224        36.3333 
 323   0.0000       1.345816        36.6215 
 324   0.0000       1.354998        36.8714 
 325   0.0000       1.361565        37.0501 
 326   0.0000       1.368979        37.2518 
 327   0.0000       1.386150        37.7191 
 328   0.0000       1.387122        37.7455 
 329   0.0000       1.401036        38.1241 
 330   0.0000       1.404344        38.2141 
 331   0.0000       1.425426        38.7878 
 332   0.0000       1.432834        38.9894 
 333   0.0000       1.438456        39.1424 
 334   0.0000       1.446250        39.3545 
 335   0.0000       1.458922        39.6993 
 336   0.0000       1.474888        40.1337 
 337   0.0000       1.486753        40.4566 
 338   0.0000       1.496885        40.7323 
 339   0.0000       1.506837        41.0031 
 340   0.0000       1.518773        41.3279 
 341   0.0000       1.523141        41.4468 
 342   0.0000       1.529846        41.6292 
 343   0.0000       1.535008        41.7697 
 344   0.0000       1.550010        42.1779 
 345   0.0000       1.552620        42.2489 
 346   0.0000       1.564267        42.5659 
 347   0.0000       1.581106        43.0241 
 348   0.0000       1.591861        43.3167 
 349   0.0000       1.607929        43.7540 
 350   0.0000       1.619834        44.0779 
 351   0.0000       1.629530        44.3418 
 352   0.0000       1.638608        44.5888 
 353   0.0000       1.645190        44.7679 
 354   0.0000       1.661879        45.2220 
 355   0.0000       1.674994        45.5789 
 356   0.0000       1.698873        46.2287 
 357   0.0000       1.702418        46.3251 
 358   0.0000       1.711418        46.5701 
 359   0.0000       1.729605        47.0649 
 360   0.0000       1.739272        47.3280 
 361   0.0000       1.745386        47.4944 
 362   0.0000       1.764789        48.0224 
 363   0.0000       1.774395        48.2838 
 364   0.0000       1.799095        48.9559 
 365   0.0000       1.820346        49.5341 
 366   0.0000       1.861400        50.6513 
 367   0.0000       1.866216        50.7823 
 368   0.0000       1.881840        51.2075 
 369   0.0000       1.892336        51.4931 
 370   0.0000       1.901280        51.7365 
 371   0.0000       1.914354        52.0922 
 372   0.0000       1.923321        52.3362 
 373   0.0000       1.924587        52.3707 
 374   0.0000       1.929911        52.5155 
 375   0.0000       1.937425        52.7200 
 376   0.0000       1.941578        52.8330 
 377   0.0000       1.949546        53.0498 
 378   0.0000       1.960412        53.3455 
 379   0.0000       1.965315        53.4789 
 380   0.0000       1.971558        53.6488 
 381   0.0000       1.978157        53.8284 
 382   0.0000       1.982935        53.9584 
 383   0.0000       1.989914        54.1483 
 384   0.0000       2.001276        54.4575 
 385   0.0000       2.005686        54.5775 
 386   0.0000       2.011645        54.7396 
 387   0.0000       2.012246        54.7560 
 388   0.0000       2.022187        55.0265 
 389   0.0000       2.041375        55.5486 
 390   0.0000       2.043887        55.6170 
 391   0.0000       2.058131        56.0046 
 392   0.0000       2.061208        56.0883 
 393   0.0000       2.062151        56.1140 
 394   0.0000       2.073323        56.4180 
 395   0.0000       2.083494        56.6948 
 396   0.0000       2.088846        56.8404 
 397   0.0000       2.094285        56.9884 
 398   0.0000       2.108584        57.3775 
 399   0.0000       2.116646        57.5969 
 400   0.0000       2.140861        58.2558 
 401   0.0000       2.147805        58.4447 
 402   0.0000       2.153772        58.6071 
 403   0.0000       2.167126        58.9705 
 404   0.0000       2.179610        59.3102 
 405   0.0000       2.195464        59.7416 
 406   0.0000       2.213830        60.2414 
 407   0.0000       2.221185        60.4415 
 408   0.0000       2.231731        60.7285 
 409   0.0000       2.246890        61.1410 
 410   0.0000       2.252352        61.2896 
 411   0.0000       2.259882        61.4945 
 412   0.0000       2.275634        61.9231 
 413   0.0000       2.289023        62.2875 
 414   0.0000       2.295718        62.4697 
 415   0.0000       2.307801        62.7985 
 416   0.0000       2.315105        62.9972 
 417   0.0000       2.331511        63.4436 
 418   0.0000       2.335092        63.5411 
 419   0.0000       2.341077        63.7040 
 420   0.0000       2.359646        64.2092 
 421   0.0000       2.374008        64.6001 
 422   0.0000       2.383466        64.8574 
 423   0.0000       2.386514        64.9403 
 424   0.0000       2.404014        65.4165 
 425   0.0000       2.417094        65.7725 
 426   0.0000       2.423028        65.9339 
 427   0.0000       2.435595        66.2759 
 428   0.0000       2.456232        66.8375 
 429   0.0000       2.466078        67.1054 
 430   0.0000       2.471726        67.2591 
 431   0.0000       2.485355        67.6300 
 432   0.0000       2.503762        68.1308 
 433   0.0000       2.515764        68.4574 
 434   0.0000       2.521431        68.6116 
 435   0.0000       2.548843        69.3576 
 436   0.0000       2.559574        69.6495 
 437   0.0000       2.568765        69.8996 
 438   0.0000       2.573685        70.0335 
 439   0.0000       2.579238        70.1846 
 440   0.0000       2.603305        70.8395 
 441   0.0000       2.620414        71.3051 
 442   0.0000       2.635371        71.7121 
 443   0.0000       2.643623        71.9366 
 444   0.0000       2.653160        72.1962 
 445   0.0000       2.665598        72.5346 
 446   0.0000       2.679290        72.9072 
 447   0.0000       2.692863        73.2765 
 448   0.0000       2.704253        73.5865 
 449   0.0000       2.705858        73.6302 
 450   0.0000       2.723524        74.1109 
 451   0.0000       2.729951        74.2857 
 452   0.0000       2.744432        74.6798 
 453   0.0000       2.755137        74.9711 
 454   0.0000       2.757174        75.0265 
 455   0.0000       2.766855        75.2900 
 456   0.0000       2.783481        75.7424 
 457   0.0000       2.789709        75.9118 
 458   0.0000       2.799218        76.1706 
 459   0.0000       2.805140        76.3317 
 460   0.0000       2.813525        76.5599 
 461   0.0000       2.827450        76.9388 
 462   0.0000       2.832988        77.0895 
 463   0.0000       2.843333        77.3710 
 464   0.0000       2.848567        77.5135 
 465   0.0000       2.851575        77.5953 
 466   0.0000       2.862393        77.8897 
 467   0.0000       2.879451        78.3539 
 468   0.0000       2.880720        78.3884 
 469   0.0000       2.897434        78.8432 
 470   0.0000       2.901320        78.9489 
 471   0.0000       2.913028        79.2675 
 472   0.0000       2.918396        79.4136 
 473   0.0000       2.932570        79.7993 
 474   0.0000       2.943903        80.1077 
 475   0.0000       2.949663        80.2644 
 476   0.0000       2.951321        80.3095 
 477   0.0000       2.966207        80.7146 
 478   0.0000       2.972450        80.8845 
 479   0.0000       2.988254        81.3145 
 480   0.0000       2.994207        81.4765 
 481   0.0000       2.999862        81.6304 
 482   0.0000       3.011026        81.9342 
 483   0.0000       3.032513        82.5189 
 484   0.0000       3.034238        82.5658 
 485   0.0000       3.041693        82.7687 
 486   0.0000       3.059853        83.2628 
 487   0.0000       3.071676        83.5846 
 488   0.0000       3.096572        84.2620 
 489   0.0000       3.104752        84.4846 
 490   0.0000       3.124008        85.0086 
 491   0.0000       3.125283        85.0433 
 492   0.0000       3.133232        85.2596 
 493   0.0000       3.143630        85.5425 
 494   0.0000       3.152488        85.7836 
 495   0.0000       3.170083        86.2624 
 496   0.0000       3.173744        86.3620 
 497   0.0000       3.197408        87.0059 
 498   0.0000       3.203153        87.1622 
 499   0.0000       3.215244        87.4912 
 500   0.0000       3.228796        87.8600 
 501   0.0000       3.255937        88.5986 
 502   0.0000       3.265782        88.8664 
 503   0.0000       3.277779        89.1929 
 504   0.0000       3.293870        89.6308 
 505   0.0000       3.305663        89.9517 
 506   0.0000       3.314120        90.1818 
 507   0.0000       3.334403        90.7337 
 508   0.0000       3.346449        91.0615 
 509   0.0000       3.364195        91.5444 
 510   0.0000       3.374610        91.8278 
 511   0.0000       3.378043        91.9212 
 512   0.0000       3.388036        92.1931 
 513   0.0000       3.397804        92.4590 
 514   0.0000       3.428285        93.2884 
 515   0.0000       3.434242        93.4505 
 516   0.0000       3.437546        93.5404 
 517   0.0000       3.441652        93.6521 
 518   0.0000       3.459601        94.1405 
 519   0.0000       3.479326        94.6773 
 520   0.0000       3.483607        94.7938 
 521   0.0000       3.496964        95.1572 
 522   0.0000       3.502023        95.2949 
 523   0.0000       3.522213        95.8443 
 524   0.0000       3.531689        96.1022 
 525   0.0000       3.536586        96.2354 
 526   0.0000       3.538453        96.2862 
 527   0.0000       3.548530        96.5604 
 528   0.0000       3.555843        96.7594 
 529   0.0000       3.562136        96.9306 
 530   0.0000       3.571638        97.1892 
 531   0.0000       3.580465        97.4294 
 532   0.0000       3.587025        97.6079 
 533   0.0000       3.595369        97.8350 
 534   0.0000       3.610821        98.2554 
 535   0.0000       3.622010        98.5599 
 536   0.0000       3.626844        98.6914 
 537   0.0000       3.632790        98.8533 
 538   0.0000       3.641291        99.0846 
 539   0.0000       3.646205        99.2183 
 540   0.0000       3.664553        99.7176 
 541   0.0000       3.673977        99.9740 
 542   0.0000       3.676297       100.0371 
 543   0.0000       3.685717       100.2935 
 544   0.0000       3.697850       100.6236 
 545   0.0000       3.708142       100.9037 
 546   0.0000       3.720812       101.2485 
 547   0.0000       3.727852       101.4400 
 548   0.0000       3.742812       101.8471 
 549   0.0000       3.759206       102.2932 
 550   0.0000       3.770048       102.5882 
 551   0.0000       3.781701       102.9053 
 552   0.0000       3.796875       103.3182 
 553   0.0000       3.811694       103.7215 
 554   0.0000       3.819389       103.9308 
 555   0.0000       3.854998       104.8998 
 556   0.0000       3.858140       104.9853 
 557   0.0000       3.878536       105.5403 
 558   0.0000       3.887384       105.7811 
 559   0.0000       3.896264       106.0227 
 560   0.0000       3.934866       107.0731 
 561   0.0000       3.953355       107.5763 
 562   0.0000       3.970838       108.0520 
 563   0.0000       3.983873       108.4067 
 564   0.0000       3.997258       108.7709 
 565   0.0000       4.001695       108.8917 
 566   0.0000       4.025344       109.5352 
 567   0.0000       4.054747       110.3353 
 568   0.0000       4.077232       110.9471 
 569   0.0000       4.090117       111.2977 
 570   0.0000       4.098057       111.5138 
 571   0.0000       4.114467       111.9604 
 572   0.0000       4.134387       112.5024 
 573   0.0000       4.153628       113.0260 
 574   0.0000       4.184484       113.8656 
 575   0.0000       4.187997       113.9612 
 576   0.0000       4.207993       114.5053 
 577   0.0000       4.221237       114.8657 
 578   0.0000       4.238661       115.3398 
 579   0.0000       4.256081       115.8139 
 580   0.0000       4.268419       116.1496 
 581   0.0000       4.295909       116.8976 
 582   0.0000       4.325496       117.7027 
 583   0.0000       4.332243       117.8863 
 584   0.0000       4.351385       118.4072 
 585   0.0000       4.369722       118.9062 
 586   0.0000       4.382692       119.2591 
 587   0.0000       4.455342       121.2360 
 588   0.0000       4.464126       121.4750 
 589   0.0000       4.480175       121.9118 
 590   0.0000       4.506200       122.6199 
 591   0.0000       4.540035       123.5406 
 592   0.0000       4.559289       124.0646 
 593   0.0000       4.583680       124.7283 
 594   0.0000       4.593394       124.9926 
 595   0.0000       4.644900       126.3941 
 596   0.0000       4.660435       126.8169 
 597   0.0000       4.685747       127.5056 
 598   0.0000       4.698437       127.8510 
 599   0.0000       4.732257       128.7713 
 600   0.0000       4.745875       129.1418 
 601   0.0000       4.772591       129.8688 
 602   0.0000       4.796749       130.5262 
 603   0.0000       4.812689       130.9599 
 604   0.0000       4.827621       131.3662 
 605   0.0000       4.866771       132.4316 
 606   0.0000       4.889113       133.0395 
 607   0.0000       4.920251       133.8868 
 608   0.0000       4.940623       134.4412 
 609   0.0000       4.964752       135.0978 
 610   0.0000       4.984510       135.6354 
 611   0.0000       5.027348       136.8011 
 612   0.0000       5.070711       137.9811 
 613   0.0000       5.094755       138.6353 
 614   0.0000       5.121943       139.3752 
 615   0.0000       5.156450       140.3141 
 616   0.0000       5.184893       141.0881 
 617   0.0000       5.207304       141.6979 
 618   0.0000       5.212872       141.8494 
 619   0.0000       5.220549       142.0584 
 620   0.0000       5.240598       142.6039 
 621   0.0000       5.242892       142.6663 
 622   0.0000       5.261956       143.1851 
 623   0.0000       5.268350       143.3591 
 624   0.0000       5.279432       143.6606 
 625   0.0000       5.319977       144.7639 
 626   0.0000       5.325357       144.9103 
 627   0.0000       5.333925       145.1435 
 628   0.0000       5.377566       146.3310 
 629   0.0000       5.406601       147.1211 
 630   0.0000       5.415570       147.3652 
 631   0.0000       5.440131       148.0335 
 632   0.0000       5.518914       150.1773 
 633   0.0000       5.522436       150.2731 
 634   0.0000       5.543373       150.8429 
 635   0.0000       5.554438       151.1439 
 636   0.0000       5.571196       151.6000 
 637   0.0000       5.606188       152.5521 
 638   0.0000       5.622358       152.9921 
 639   0.0000       5.641741       153.5196 
 640   0.0000       5.670299       154.2967 
 641   0.0000       5.730245       155.9279 
 642   0.0000       5.774609       157.1351 
 643   0.0000       5.799402       157.8098 
 644   0.0000       5.858786       159.4257 
 645   0.0000       5.932397       161.4287 
 646   0.0000       6.036218       164.2538 
 647   0.0000       6.180319       168.1750 
 648   0.0000       6.292826       171.2365 
 649   0.0000       6.426510       174.8742 
 650   0.0000       6.539676       177.9536 
 651   0.0000       6.551090       178.2642 
 652   0.0000       6.578430       179.0082 
 653   0.0000       6.631304       180.4470 
 654   0.0000       6.725611       183.0132 
 655   0.0000       6.760022       183.9495 
 656   0.0000       6.784308       184.6104 
 657   0.0000       6.801912       185.0894 
 658   0.0000       6.847561       186.3316 
 659   0.0000       6.898721       187.7237 
 660   0.0000       6.953405       189.2118 
 661   0.0000       6.958211       189.3426 
 662   0.0000       7.027957       191.2404 
 663   0.0000       7.097295       193.1272 
 664   0.0000       7.130500       194.0308 
 665   0.0000       7.145363       194.4352 
 666   0.0000       7.211136       196.2250 
 667   0.0000       8.446362       229.8372 
 668   0.0000       8.452360       230.0004 
 669   0.0000       8.667817       235.8633 
 670   0.0000       8.713212       237.0985 
 671   0.0000       8.966156       243.9815 
 672   0.0000       9.512350       258.8442 
 673   0.0000       9.770237       265.8617 
 674   0.0000       9.927336       270.1365 
 675   0.0000      22.304415       606.9340 
 676   0.0000      22.628794       615.7608 
 677   0.0000      22.676069       617.0472 
 678   0.0000      22.710150       617.9746 
 679   0.0000      22.761683       619.3769 
 680   0.0000      22.804405       620.5394 
 681   0.0000      22.833488       621.3308 
 682   0.0000      22.850678       621.7986 
 683   0.0000      23.586793       641.8293 
 684   0.0000      32.377001       881.0230 
 685   0.0000      32.884437       894.8310 
 686   0.0000      43.888343      1194.2625 
 687   0.0000      44.017766      1197.7843 
 688   0.0000      57.176840      1555.8609 

                    ********************************
                    * MULLIKEN POPULATION ANALYSIS *
                    ********************************

-----------------------
MULLIKEN ATOMIC CHARGES
-----------------------
   0 C :   -1.187092
   1 N :   -0.333050
   2 C :   -0.968439
   3 C :   -0.967881
   4 H :    0.499485
   5 H :    0.515826
   6 S :    0.983734
   7 C :    0.732880
   8 N :   -0.322533
   9 C :   -1.313702
  10 H :    0.286066
  11 H :    0.383756
  12 H :    0.510723
  13 H :    0.323644
  14 H :    0.088555
  15 F :   -0.081316
  16 O :   -0.541445
  17 C :   -0.704179
  18 H :    0.516324
  19 H :    0.452559
  20 C :   -0.731521
  21 H :    0.430081
  22 H :    0.443670
  23 C :   -0.701873
  24 H :    0.415309
  25 H :    0.453993
  26 O :   -0.740787
  27 H :    0.372137
  28 H :    0.423304
  29 H :    0.367239
  30 H :    0.394534
Sum of atomic charges:   -0.0000000

--------------------------------
MULLIKEN REDUCED ORBITAL CHARGES
--------------------------------
  0 C s       :     3.927597  s :     3.927597
      pz      :     0.882084  p :     3.229945
      px      :     1.269436
      py      :     1.078426
      dz2     :    -0.008772  d :     0.021355
      dxz     :     0.001027
      dyz     :     0.021192
      dx2y2   :     0.034566
      dxy     :    -0.026658
      f0      :     0.000943  f :     0.008193
      f+1     :     0.001272
      f-1     :     0.001459
      f+2     :     0.001779
      f-2     :     0.001223
      f+3     :     0.000951
      f-3     :     0.000567
  1 N s       :     3.711022  s :     3.711022
      pz      :     0.996760  p :     3.554467
      px      :     0.933180
      py      :     1.624527
      dz2     :     0.011247  d :     0.063900
      dxz     :    -0.012650
      dyz     :     0.006099
      dx2y2   :     0.022459
      dxy     :     0.036745
      f0      :     0.000575  f :     0.003661
      f+1     :     0.000505
      f-1     :     0.000339
      f+2     :     0.000715
      f-2     :     0.000302
      f+3     :     0.000481
      f-3     :     0.000744
  2 C s       :     3.554275  s :     3.554275
      pz      :     0.991666  p :     3.399546
      px      :     1.142311
      py      :     1.265570
      dz2     :    -0.033978  d :     0.009271
      dxz     :     0.021994
      dyz     :     0.010361
      dx2y2   :     0.035906
      dxy     :    -0.025012
      f0      :     0.000809  f :     0.005347
      f+1     :     0.000743
      f-1     :     0.000548
      f+2     :     0.001668
      f-2     :     0.001004
      f+3     :     0.000252
      f-3     :     0.000324
  3 C s       :     3.453816  s :     3.453816
      pz      :     1.221985  p :     3.432724
      px      :     1.252282
      py      :     0.958456
      dz2     :     0.012475  d :     0.076919
      dxz     :     0.011756
      dyz     :     0.032154
      dx2y2   :     0.028417
      dxy     :    -0.007883
      f0      :     0.000425  f :     0.004423
      f+1     :     0.000648
      f-1     :     0.000342
      f+2     :     0.001437
      f-2     :     0.000780
      f+3     :     0.000362
      f-3     :     0.000429
  4 H s       :     0.448609  s :     0.448609
      pz      :     0.021204  p :     0.051906
      px      :     0.030729
      py      :    -0.000027
  5 H s       :     0.435402  s :     0.435402
      pz      :     0.019241  p :     0.048772
      px      :     0.017890
      py      :     0.011641
  6 S s       :     5.430194  s :     5.430194
      pz      :     2.709252  p :     8.219915
      px      :     2.640873
      py      :     2.869790
      dz2     :     0.213082  d :     1.237506
      dxz     :     0.292209
      dyz     :     0.221216
      dx2y2   :     0.282285
      dxy     :     0.228713
      f0      :     0.021396  f :     0.128652
      f+1     :     0.020651
      f-1     :     0.014781
      f+2     :     0.022540
      f-2     :     0.016200
      f+3     :     0.016976
      f-3     :     0.016109
  7 C s       :     3.338412  s :     3.338412
      pz      :     0.656265  p :     1.862347
      px      :     0.487755
      py      :     0.718327
      dz2     :    -0.021529  d :     0.047400
      dxz     :    -0.001775
      dyz     :     0.067181
      dx2y2   :    -0.036166
      dxy     :     0.039689
      f0      :     0.004167  f :     0.018961
      f+1     :     0.002254
      f-1     :     0.002388
      f+2     :     0.003021
      f-2     :     0.002081
      f+3     :     0.001900
      f-3     :     0.003151
  8 N s       :     3.455583  s :     3.455583
      pz      :     1.081408  p :     3.827778
      px      :     1.088491
      py      :     1.657879
      dz2     :     0.004766  d :     0.036054
      dxz     :     0.004267
      dyz     :     0.027909
      dx2y2   :    -0.002674
      dxy     :     0.001786
      f0      :     0.000487  f :     0.003118
      f+1     :     0.000465
      f-1     :     0.000506
      f+2     :     0.000430
      f-2     :     0.000411
      f+3     :     0.000452
      f-3     :     0.000367
  9 C s       :     3.613839  s :     3.613839
      pz      :     1.117199  p :     3.685884
      px      :     1.407617
      py      :     1.161068
      dz2     :    -0.022323  d :     0.009449
      dxz     :    -0.018680
      dyz     :     0.033576
      dx2y2   :     0.006798
      dxy     :     0.010078
      f0      :     0.000880  f :     0.004529
      f+1     :     0.000642
      f-1     :     0.000710
      f+2     :     0.000797
      f-2     :     0.000386
      f+3     :     0.000641
      f-3     :     0.000474
 10 H s       :     0.619281  s :     0.619281
      pz      :     0.032096  p :     0.094654
      px      :     0.012117
      py      :     0.050440
 11 H s       :     0.533867  s :     0.533867
      pz      :     0.009963  p :     0.082377
      px      :     0.041239
      py      :     0.031175
 12 H s       :     0.721614  s :     0.721614
      pz      :    -0.110666  p :    -0.232338
      px      :    -0.023407
      py      :    -0.098265
 13 H s       :     0.681012  s :     0.681012
      pz      :     0.013990  p :    -0.004656
      px      :    -0.021744
      py      :     0.003098
 14 H s       :     0.855011  s :     0.855011
      pz      :    -0.002080  p :     0.056434
      px      :     0.018501
      py      :     0.040013
 15 F s       :     3.884590  s :     3.884590
      pz      :     1.587598  p :     5.169652
      px      :     1.730445
      py      :     1.851610
      dz2     :     0.006937  d :     0.026161
      dxz     :     0.009460
      dyz     :     0.004432
      dx2y2   :     0.002848
      dxy     :     0.002483
      f0      :     0.000175  f :     0.000914
      f+1     :     0.000266
      f-1     :     0.000112
      f+2     :     0.000155
      f-2     :     0.000147
      f+3     :     0.000029
      f-3     :     0.000029
 16 O s       :     3.976735  s :     3.976735
      pz      :     1.639980  p :     4.524228
      px      :     1.239078
      py      :     1.645170
      dz2     :     0.004183  d :     0.038525
      dxz     :     0.013186
      dyz     :     0.001520
      dx2y2   :     0.008740
      dxy     :     0.010895
      f0      :     0.000208  f :     0.001957
      f+1     :     0.000258
      f-1     :     0.000054
      f+2     :     0.000272
      f-2     :     0.000157
      f+3     :     0.000534
      f-3     :     0.000474
 17 C s       :     3.394748  s :     3.394748
      pz      :     1.100103  p :     3.351284
      px      :     1.430616
      py      :     0.820566
      dz2     :    -0.016918  d :    -0.047067
      dxz     :     0.054249
      dyz     :    -0.008864
      dx2y2   :     0.019615
      dxy     :    -0.095149
      f0      :     0.000434  f :     0.005213
      f+1     :     0.000201
      f-1     :     0.001128
      f+2     :     0.001686
      f-2     :     0.000667
      f+3     :     0.000753
      f-3     :     0.000345
 18 H s       :     0.440935  s :     0.440935
      pz      :     0.010285  p :     0.042741
      px      :     0.002665
      py      :     0.029791
 19 H s       :     0.468828  s :     0.468828
      pz      :     0.027232  p :     0.078613
      px      :     0.032140
      py      :     0.019241
[...]
 25 H s       :     0.477057  s :     0.477057
      pz      :     0.031494  p :     0.068949
      px      :     0.021729
      py      :     0.015726
 26 O s       :     4.064550  s :     4.064550
      pz      :     1.439587  p :     4.626595
      px      :     1.626412
      py      :     1.560595
      dz2     :     0.010762  d :     0.047822
      dxz     :     0.010706
      dyz     :     0.013293
      dx2y2   :     0.002750
      dxy     :     0.010310
      f0      :     0.000204  f :     0.001821
      f+1     :     0.000204
      f-1     :     0.000367
      f+2     :     0.000321
      f-2     :     0.000374
      f+3     :     0.000165
      f-3     :     0.000187
 27 H s       :     0.516852  s :     0.516852
      pz      :     0.023275  p :     0.111011
      px      :     0.058144
      py      :     0.029591
 28 H s       :     0.498578  s :     0.498578
      pz      :     0.032955  p :     0.078118
      px      :     0.011332
      py      :     0.033831
 29 H s       :     0.537437  s :     0.537437
      pz      :     0.018424  p :     0.095324
      px      :     0.027452
      py      :     0.049448
 30 H s       :     0.533022  s :     0.533022
      pz      :     0.015141  p :     0.072444
      px      :     0.035708
      py      :     0.021594


                     *******************************
                     * LOEWDIN POPULATION ANALYSIS *
                     *******************************

----------------------
LOEWDIN ATOMIC CHARGES
----------------------
   0 C :   -0.198053
   1 N :    0.027084
   2 C :   -0.224030
   3 C :   -0.233920
   4 H :    0.114320
   5 H :    0.110965
   6 S :    0.626203
   7 C :   -0.569430
   8 N :    0.126328
   9 C :   -0.005267
  10 H :   -0.001435
  11 H :    0.002367
  12 H :    0.069510
  13 H :    0.047885
  14 H :    0.112177
  15 F :   -0.014235
  16 O :   -0.225569
  17 C :   -0.191404
  18 H :    0.117030
  19 H :    0.118462
  20 C :   -0.221174
  21 H :    0.119170
  22 H :    0.130505
  23 C :   -0.218428
  24 H :    0.113609
  25 H :    0.116302
  26 O :   -0.314731
  27 H :    0.107622
  28 H :    0.123070
  29 H :    0.104353
  30 H :    0.130713

-------------------------------
LOEWDIN REDUCED ORBITAL CHARGES
-------------------------------
  0 C s       :     2.652900  s :     2.652900
      pz      :     0.863032  p :     2.680152
      px      :     0.894016
      py      :     0.923104
      dz2     :     0.144808  d :     0.810304
      dxz     :     0.116801
      dyz     :     0.246659
      dx2y2   :     0.167736
      dxy     :     0.134300
      f0      :     0.008320  f :     0.054697
      f+1     :     0.008445
      f-1     :     0.009579
      f+2     :     0.007910
      f-2     :     0.009166
      f+3     :     0.006545
      f-3     :     0.004733
  1 N s       :     2.812678  s :     2.812678
      pz      :     1.045915  p :     3.438649
      px      :     1.101124
      py      :     1.291611
      dz2     :     0.152855  d :     0.704705
      dxz     :     0.211705
      dyz     :     0.100475
      dx2y2   :     0.127046
      dxy     :     0.112623
      f0      :     0.003219  f :     0.016885
      f+1     :     0.002243
      f-1     :     0.001552
      f+2     :     0.003117
      f-2     :     0.001634
      f+3     :     0.002506
      f-3     :     0.002614
  2 C s       :     2.664535  s :     2.664535
      pz      :     0.917127  p :     2.772388
      px      :     0.918689
      py      :     0.936571
      dz2     :     0.163419  d :     0.748013
      dxz     :     0.191415
      dyz     :     0.151623
      dx2y2   :     0.175478
      dxy     :     0.066078
      f0      :     0.008108  f :     0.039094
      f+1     :     0.005600
      f-1     :     0.004522
      f+2     :     0.006708
      f-2     :     0.006750
      f+3     :     0.003511
      f-3     :     0.003895
  3 C s       :     2.707480  s :     2.707480
      pz      :     0.938506  p :     2.794546
      px      :     0.987421
      py      :     0.868619
      dz2     :     0.126482  d :     0.700170
      dxz     :     0.114782
      dyz     :     0.194907
      dx2y2   :     0.162465
      dxy     :     0.101536
      f0      :     0.005101  f :     0.031724
      f+1     :     0.004382
      f-1     :     0.003521
      f+2     :     0.005924
      f-2     :     0.004916
      f+3     :     0.003537
      f-3     :     0.004344
  4 H s       :     0.662050  s :     0.662050
      pz      :     0.072777  p :     0.223630
      px      :     0.093255
      py      :     0.057597
  5 H s       :     0.673539  s :     0.673539
      pz      :     0.080512  p :     0.215495
      px      :     0.057708
      py      :     0.077274
  6 S s       :     4.569087  s :     4.569087
      pz      :     2.717515  p :     8.287749
      px      :     2.763814
      py      :     2.806419
      dz2     :     0.382382  d :     2.134431
      dxz     :     0.493257
      dyz     :     0.381916
      dx2y2   :     0.482274
      dxy     :     0.394602
      f0      :     0.059229  f :     0.382530
      f+1     :     0.067985
      f-1     :     0.044153
      f+2     :     0.064690
      f-2     :     0.049882
      f+3     :     0.049327
      f-3     :     0.047264
  7 C s       :     2.590509  s :     2.590509
      pz      :     0.924532  p :     2.515930
      px      :     0.886551
      py      :     0.704847
      dz2     :     0.301372  d :     1.343743
      dxz     :     0.338382
      dyz     :     0.268844
      dx2y2   :     0.177773
      dxy     :     0.257373
      f0      :     0.026352  f :     0.119248
      f+1     :     0.017086
      f-1     :     0.014021
      f+2     :     0.019494
      f-2     :     0.016301
      f+3     :     0.010495
      f-3     :     0.015498
  8 N s       :     2.878660  s :     2.878660
      pz      :     1.141160  p :     3.578336
      px      :     1.083390
      py      :     1.353786
      dz2     :     0.117919  d :     0.404694
      dxz     :     0.107120
      dyz     :     0.090371
      dx2y2   :     0.055672
      dxy     :     0.033612
      f0      :     0.002528  f :     0.011981
      f+1     :     0.002358
      f-1     :     0.001916
      f+2     :     0.001764
      f-2     :     0.001687
      f+3     :     0.001042
      f-3     :     0.000688
  9 C s       :     2.711427  s :     2.711427
      pz      :     0.963471  p :     2.884636
      px      :     0.944243
      py      :     0.976922
      dz2     :     0.120612  d :     0.379710
      dxz     :     0.099676
      dyz     :     0.058932
      dx2y2   :     0.063921
      dxy     :     0.036569
      f0      :     0.005627  f :     0.029494
      f+1     :     0.007395
      f-1     :     0.003877
      f+2     :     0.004557
      f-2     :     0.004050
      f+3     :     0.002302
      f-3     :     0.001686
 10 H s       :     0.710750  s :     0.710750
      pz      :     0.087763  p :     0.290684
      px      :     0.099606
      py      :     0.103315
 11 H s       :     0.725884  s :     0.725884
      pz      :     0.068968  p :     0.271750
      px      :     0.102289
      py      :     0.100492
 12 H s       :     0.560895  s :     0.560895
      pz      :     0.171617  p :     0.369595
      px      :     0.085022
      py      :     0.112956
 13 H s       :     0.589823  s :     0.589823
      pz      :     0.107359  p :     0.362293
      px      :     0.138136
      py      :     0.116797
 14 H s       :     0.623463  s :     0.623463
      pz      :     0.063152  p :     0.264360
      px      :     0.112278
      py      :     0.088931
 15 F s       :     3.602776  s :     3.602776
      pz      :     1.680893  p :     5.167897
      px      :     1.725886
      py      :     1.761118
      dz2     :     0.064842  d :     0.241623
      dxz     :     0.065609
      dyz     :     0.057722
      dx2y2   :     0.028551
      dxy     :     0.024898
      f0      :     0.000315  f :     0.001939
      f+1     :     0.000677
      f-1     :     0.000237
      f+2     :     0.000330
      f-2     :     0.000269
      f+3     :     0.000054
      f-3     :     0.000057
 16 O s       :     3.466087  s :     3.466087
      pz      :     1.517600  p :     4.500992
      px      :     1.439558
      py      :     1.543834
      dz2     :     0.030948  d :     0.253636
      dxz     :     0.060434
      dyz     :     0.020096
      dx2y2   :     0.070417
      dxy     :     0.071740
      f0      :     0.000402  f :     0.004854
      f+1     :     0.000910
      f-1     :     0.000142
      f+2     :     0.000513
      f-2     :     0.000318
      f+3     :     0.001214
      f-3     :     0.001354
 17 C s       :     2.671227  s :     2.671227
      pz      :     0.917174  p :     2.763527
      px      :     0.934357
      py      :     0.911996
      dz2     :     0.113136  d :     0.718273
      dxz     :     0.159326
      dyz     :     0.160649
      dx2y2   :     0.172833
      dxy     :     0.112330
      f0      :     0.005564  f :     0.038378
      f+1     :     0.002301
      f-1     :     0.007955
      f+2     :     0.006742
      f-2     :     0.004878
      f+3     :     0.006733
      f-3     :     0.004206
 18 H s       :     0.666524  s :     0.666524
      pz      :     0.068695  p :     0.216446
      px      :     0.077413
      py      :     0.070339
 19 H s       :     0.672522  s :     0.672522
      pz      :     0.057753  p :     0.209016
      px      :     0.092707
      py      :     0.058555
 20 C s       :     2.656377  s :     2.656377
      pz      :     0.907826  p :     2.756201
      px      :     0.931384
      py      :     0.916992
      dz2     :     0.137619  d :     0.769240
      dxz     :     0.199459
      dyz     :     0.153241
      dx2y2   :     0.176839
      dxy     :     0.102083
      f0      :     0.006241  f :     0.039355
      f+1     :     0.006481
      f-1     :     0.004330
      f+2     :     0.006567
      f-2     :     0.006462
      f+3     :     0.003887
      f-3     :     0.005388
 21 H s       :     0.664401  s :     0.664401
      pz      :     0.067941  p :     0.216428
      px      :     0.088131
      py      :     0.060356
 22 H s       :     0.665431  s :     0.665431
      pz      :     0.060871  p :     0.204063
      px      :     0.052772
      py      :     0.090421
 23 C s       :     2.658970  s :     2.658970
      pz      :     0.915488  p :     2.752450
      px      :     0.921831
      py      :     0.915131
      dz2     :     0.139576  d :     0.767690
      dxz     :     0.201389
      dyz     :     0.149675
      dx2y2   :     0.178554
      dxy     :     0.098496
      f0      :     0.006244  f :     0.039318
      f+1     :     0.006418
      f-1     :     0.004174
      f+2     :     0.006769
      f-2     :     0.006270
      f+3     :     0.004154
      f-3     :     0.005290
 24 H s       :     0.670156  s :     0.670156
      pz      :     0.059683  p :     0.216235
      px      :     0.101699
      py      :     0.054854
 25 H s       :     0.678656  s :     0.678656
      pz      :     0.071806  p :     0.205042
      px      :     0.081370
      py      :     0.051867
 26 O s       :     3.410911  s :     3.410911
      pz      :     1.447142  p :     4.530611
      px      :     1.558603
      py      :     1.524866
      dz2     :     0.084366  d :     0.368864
      dxz     :     0.066815
      dyz     :     0.084906
      dx2y2   :     0.072169
      dxy     :     0.060609
      f0      :     0.000447  f :     0.004344
      f+1     :     0.000494
      f-1     :     0.000743
      f+2     :     0.000585
      f-2     :     0.001252
      f+3     :     0.000468
      f-3     :     0.000355
 27 H s       :     0.652170  s :     0.652170
      pz      :     0.089847  p :     0.240208
      px      :     0.080036
      py      :     0.070325
 28 H s       :     0.673965  s :     0.673965
      pz      :     0.059346  p :     0.202966
      px      :     0.051814
      py      :     0.091806
 29 H s       :     0.649420  s :     0.649420
      pz      :     0.080667  p :     0.246226
      px      :     0.063062
      py      :     0.102497
 30 H s       :     0.670554  s :     0.670554
      pz      :     0.070191  p :     0.198733
      px      :     0.076908
      py      :     0.051634


                      *****************************
                      * MAYER POPULATION ANALYSIS *
                      *****************************

  NA   - Mulliken gross atomic population
  ZA   - Total nuclear charge
  QA   - Mulliken gross atomic charge
  VA   - Mayer's total valence
  BVA  - Mayer's bonded valence
  FA   - Mayer's free valence

  ATOM       NA         ZA         QA         VA         BVA        FA
  0 C      7.1871     6.0000    -1.1871     2.7699     2.7699     0.0000
  1 N      7.3330     7.0000    -0.3330     2.5742     2.5742    -0.0000
  2 C      6.9684     6.0000    -0.9684     3.1488     3.1488     0.0000
  3 C      6.9679     6.0000    -0.9679     3.3003     3.3003     0.0000
  4 H      0.5005     1.0000     0.4995     0.8235     0.8235     0.0000
  5 H      0.4842     1.0000     0.5158     0.7569     0.7569     0.0000
  6 S     15.0163    16.0000     0.9837     5.3825     5.3825     0.0000
  7 C      5.2671     6.0000     0.7329     2.2559     2.2559    -0.0000
  8 N      7.3225     7.0000    -0.3225     3.0171     3.0171     0.0000
  9 C      7.3137     6.0000    -1.3137     3.3595     3.3595    -0.0000
 10 H      0.7139     1.0000     0.2861     1.0988     1.0988    -0.0000
 11 H      0.6162     1.0000     0.3838     0.9656     0.9656     0.0000
 12 H      0.4893     1.0000     0.5107     0.2858     0.2858     0.0000
 13 H      0.6764     1.0000     0.3236     0.8042     0.8042     0.0000
 14 H      0.9114     1.0000     0.0886     1.0481     1.0481     0.0000
 15 F      9.0813     9.0000    -0.0813     1.0757     1.0757     0.0000
 16 O      8.5414     8.0000    -0.5414     1.8878     1.8878    -0.0000
 17 C      6.7042     6.0000    -0.7042     2.9069     2.9069    -0.0000
 18 H      0.4837     1.0000     0.5163     0.7394     0.7394     0.0000
 19 H      0.5474     1.0000     0.4526     0.8327     0.8327     0.0000
 20 C      6.7315     6.0000    -0.7315     2.5873     2.5873    -0.0000
 21 H      0.5699     1.0000     0.4301     0.9228     0.9228     0.0000
 22 H      0.5563     1.0000     0.4437     0.9000     0.9000     0.0000
 23 C      6.7019     6.0000    -0.7019     2.5375     2.5375     0.0000
 24 H      0.5847     1.0000     0.4153     0.9634     0.9634    -0.0000
 25 H      0.5460     1.0000     0.4540     0.8858     0.8858     0.0000
 26 O      8.7408     8.0000    -0.7408     1.7942     1.7942     0.0000
 27 H      0.6279     1.0000     0.3721     1.0334     1.0334     0.0000
 28 H      0.5767     1.0000     0.4233     0.9494     0.9494     0.0000
 29 H      0.6328     1.0000     0.3672     1.0037     1.0037    -0.0000
 30 H      0.6055     1.0000     0.3945     0.9544     0.9544    -0.0000

  Mayer bond orders larger than 0.100000
B(  0-C ,  1-N ) :   0.7423 B(  0-C ,  9-C ) :   0.1444 B(  0-C , 12-H ) :  -0.2168 
B(  0-C , 17-C ) :   0.5175 B(  0-C , 18-H ) :   0.7781 B(  0-C , 19-H ) :   0.8782 
B(  1-N ,  7-C ) :   0.8838 B(  1-N ,  9-C ) :   0.1496 B(  1-N , 12-H ) :   0.7550 
B(  2-C ,  3-C ) :   0.6623 B(  2-C , 20-C ) :   0.6965 B(  2-C , 21-H ) :   0.9192 
B(  2-C , 22-H ) :   0.8727 B(  3-C ,  4-H ) :   0.7904 B(  3-C ,  5-H ) :   0.7606 
B(  3-C ,  6-S ) :   0.8822 B(  6-S , 15-F ) :   0.9831 B(  6-S , 16-O ) :   1.7078 
B(  6-S , 26-O ) :   1.7609 B(  7-C ,  8-N ) :   0.8446 B(  7-C ,  9-C ) :   0.9364 
B(  7-C , 10-H ) :  -0.1069 B(  7-C , 11-H ) :  -0.1256 B(  8-N ,  9-C ) :   0.1075 
B(  8-N , 13-H ) :   0.8890 B(  8-N , 14-H ) :   1.1044 B(  9-C , 10-H ) :   1.0588 
B(  9-C , 11-H ) :   0.9979 B( 12-H , 26-O ) :  -0.1252 B( 17-C , 23-C ) :   0.7432 
B( 17-C , 24-H ) :   0.8882 B( 17-C , 25-H ) :   0.9132 B( 20-C , 23-C ) :   0.1590 
B( 20-C , 27-H ) :  -0.1048 B( 20-C , 29-H ) :   0.9551 B( 20-C , 30-H ) :   0.9433 
B( 23-C , 27-H ) :   0.9985 B( 23-C , 28-H ) :   0.8747 B( 23-C , 29-H ) :  -0.1119 
B( 27-H , 28-H ) :   0.1138 

-------
TIMINGS
-------

Total SCF time: 0 days 0 hours 7 min 12 sec 

Total time                  ....     432.095 sec
Sum of individual times     ....     430.560 sec  ( 99.6%)

Fock matrix formation       ....     420.626 sec  ( 97.3%)
  Split-RI-J                ....      20.046 sec  (  4.8% of F)
  Chain of spheres X        ....     359.606 sec  ( 85.5% of F)
  XC integration            ....      40.525 sec  (  9.6% of F)
    Basis function eval.    ....       7.748 sec  ( 19.1% of XC)
    Density eval.           ....      15.682 sec  ( 38.7% of XC)
    XC-Functional eval.     ....       0.836 sec  (  2.1% of XC)
    XC-Potential eval.      ....      15.286 sec  ( 37.7% of XC)
Diagonalization             ....       1.350 sec  (  0.3%)
Density matrix formation    ....       0.090 sec  (  0.0%)
Population analysis         ....       0.148 sec  (  0.0%)
Initial guess               ....       2.044 sec  (  0.5%)
Orbital Transformation      ....       0.000 sec  (  0.0%)
Orbital Orthonormalization  ....       0.000 sec  (  0.0%)
DIIS solution               ....       0.687 sec  (  0.2%)
SOSCF solution              ....       0.816 sec  (  0.2%)
Grid generation             ....       4.799 sec  (  1.1%)

Maximum memory used throughout the entire SCF-calculation: 136.7 MB

-------------------------   --------------------
FINAL SINGLE POINT ENERGY     -1071.524338122503
-------------------------   --------------------


                            ***************************************
                            *     ORCA property calculations      *
                            ***************************************

                                    ---------------------
                                    Active property flags
                                    ---------------------
   (+) Dipole Moment


------------------------------------------------------------------------------
                       ORCA ELECTRIC PROPERTIES CALCULATION
------------------------------------------------------------------------------

Dipole Moment Calculation                       ... on
Quadrupole Moment Calculation                   ... off
Polarizability Calculation                      ... off
GBWName                                         ... 28Oct_TZVPD_LC_BLYP_D3_wb97.gbw
Electron density file                           ... 28Oct_TZVPD_LC_BLYP_D3_wb97.scfp
The origin for moment calculation is the CENTER OF MASS  = ( 4.297179, -0.883258 -8.395419)

-------------
DIPOLE MOMENT
-------------
                                X             Y             Z
Electronic contribution:     -1.14382      -0.18908     -24.53092
Nuclear contribution   :      0.44707       2.53104      23.12246
                        -----------------------------------------
Total Dipole Moment    :     -0.69675       2.34197      -1.40846
                        -----------------------------------------
Magnitude (a.u.)       :      2.82029
Magnitude (Debye)      :      7.16861



--------------------
Rotational spectrum 
--------------------
 
Rotational constants in cm-1:     0.028906     0.014696     0.011110 
Rotational constants in MHz :   866.591909   440.585554   333.081943 

 Dipole components along the rotational axes: 
x,y,z [a.u.] :    -2.409188     0.910034    -1.149650 
x,y,z [Debye]:    -6.123670     2.313123    -2.922178 

 

Timings for individual modules:

Sum of individual times         ...      433.712 sec (=   7.229 min)
GTO integral calculation        ...        1.229 sec (=   0.020 min)   0.3 %
SCF iterations                  ...      432.482 sec (=   7.208 min)  99.7 %
                             ****ORCA TERMINATED NORMALLY****
TOTAL RUN TIME: 0 days 0 hours 7 minutes 14 seconds 591 msec
