
                                        *****************
                                        * O   R   C   A *
                                        *****************

                                            #,                                       
                                            ###                                      
                                            ####                                     
                                            #####                                    
                                            ######                                   
                                           ########,                                 
                                     ,,################,,,,,                         
                               ,,#################################,,                 
                          ,,##########################################,,             
                       ,#########################################, ''#####,          
                    ,#############################################,,   '####,        
                  ,##################################################,,,,####,       
                ,###########''''           ''''###############################       
              ,#####''   ,,,,##########,,,,          '''####'''          '####       
            ,##' ,,,,###########################,,,                        '##       
           ' ,,###''''                  '''############,,,                           
         ,,##''                                '''############,,,,        ,,,,,,###''
      ,#''                                            '''#######################'''  
     '                                                          ''''####''''         
             ,#######,   #######,   ,#######,      ##                                
            ,#'     '#,  ##    ##  ,#'     '#,    #''#        ######   ,####,        
            ##       ##  ##   ,#'  ##            #'  '#       #        #'  '#        
            ##       ##  #######   ##           ,######,      #####,   #    #        
            '#,     ,#'  ##    ##  '#,     ,#' ,#      #,         ##   #,  ,#        
             '#######'   ##     ##  '#######'  #'      '#     #####' # '####'        



                  #######################################################
                  #                        -***-                        #
                  #          Department of theory and spectroscopy      #
                  #    Directorship and core code : Frank Neese         #
                  #        Max Planck Institute fuer Kohlenforschung    #
                  #                Kaiser Wilhelm Platz 1               #
                  #                 D-45470 Muelheim/Ruhr               #
                  #                      Germany                        #
                  #                                                     #
                  #                  All rights reserved                #
                  #                        -***-                        #
                  #######################################################


                         Program Version 5.0.0 -  RELEASE  -
                                (SVN: $Rev: 19529$)
                ($Date: 2021-06-28 11:36:33 +0200 (Mo, 28 Jun 2021) $)


 With contributions from (in alphabetic order):
   Daniel Aravena         : Magnetic Suceptibility
   Michael Atanasov       : Ab Initio Ligand Field Theory (pilot matlab implementation)
   Alexander A. Auer      : GIAO ZORA, VPT2 properties, NMR spectrum
   Ute Becker             : Parallelization
   Giovanni Bistoni       : ED, misc. LED, open-shell LED, HFLD
   Martin Brehm           : Molecular dynamics
   Dmytro Bykov           : SCF Hessian
   Vijay G. Chilkuri      : MRCI spin determinant printing, contributions to CSF-ICE
   Dipayan Datta          : RHF DLPNO-CCSD density
   Achintya Kumar Dutta   : EOM-CC, STEOM-CC
   Dmitry Ganyushin       : Spin-Orbit,Spin-Spin,Magnetic field MRCI
   Miquel Garcia          : C-PCM Hessian, Gaussian charge scheme
   Yang Guo               : DLPNO-NEVPT2, F12-NEVPT2, CIM, IAO-localization
   Andreas Hansen         : Spin unrestricted coupled pair/coupled cluster methods
   Benjamin Helmich-Paris : MC-RPA, TRAH-SCF, COSX integrals
   Lee Huntington         : MR-EOM, pCC
   Robert Izsak           : Overlap fitted RIJCOSX, COSX-SCS-MP3, EOM
   Marcus Kettner         : VPT2
   Christian Kollmar      : KDIIS, OOCD, Brueckner-CCSD(T), CCSD density, CASPT2, CASPT2-K
   Simone Kossmann        : Meta GGA functionals, TD-DFT gradient, OOMP2, MP2 Hessian
   Martin Krupicka        : Initial AUTO-CI
   Lucas Lang             : DCDCAS
   Marvin Lechner         : AUTO-CI (C++ implementation), FIC-MRCC
   Dagmar Lenk            : GEPOL surface, SMD
   Dimitrios Liakos       : Extrapolation schemes; Compound Job, initial MDCI parallelization
   Dimitrios Manganas     : Further ROCIS development; embedding schemes
   Dimitrios Pantazis     : SARC Basis sets
   Anastasios Papadopoulos: AUTO-CI, single reference methods and gradients
   Taras Petrenko         : DFT Hessian,TD-DFT gradient, ASA, ECA, R-Raman, ABS, FL, XAS/XES, NRVS
   Peter Pinski           : DLPNO-MP2, DLPNO-MP2 Gradient
   Christoph Reimann      : Effective Core Potentials
   Marius Retegan         : Local ZFS, SOC
   Christoph Riplinger    : Optimizer, TS searches, QM/MM, DLPNO-CCSD(T), (RO)-DLPNO pert. Triples
   Tobias Risthaus        : Range-separated hybrids, TD-DFT gradient, RPA, STAB
   Michael Roemelt        : Original ROCIS implementation
   Masaaki Saitow         : Open-shell DLPNO-CCSD energy and density
   Barbara Sandhoefer     : DKH picture change effects
   Avijit Sen             : IP-ROCIS
   Kantharuban Sivalingam : CASSCF convergence, NEVPT2, FIC-MRCI
   Bernardo de Souza      : ESD, SOC TD-DFT
   Georgi Stoychev        : AutoAux, RI-MP2 NMR
   Willem Van den Heuvel  : Paramagnetic NMR
   Boris Wezisla          : Elementary symmetry handling
   Frank Wennmohs         : Technical directorship


 We gratefully acknowledge several colleagues who have allowed us to
 interface, adapt or use parts of their codes:
   Stefan Grimme, W. Hujo, H. Kruse, P. Pracht,  : VdW corrections, initial TS optimization,
                  C. Bannwarth, S. Ehlert          DFT functionals, gCP, sTDA/sTD-DF
   Ed Valeev, F. Pavosevic, A. Kumar             : LibInt (2-el integral package), F12 methods
   Garnet Chan, S. Sharma, J. Yang, R. Olivares  : DMRG
   Ulf Ekstrom                                   : XCFun DFT Library
   Mihaly Kallay                                 : mrcc  (arbitrary order and MRCC methods)
   Jiri Pittner, Ondrej Demel                    : Mk-CCSD
   Frank Weinhold                                : gennbo (NPA and NBO analysis)
   Christopher J. Cramer and Donald G. Truhlar   : smd solvation model
   Lars Goerigk                                  : TD-DFT with DH, B97 family of functionals
   V. Asgeirsson, H. Jonsson                     : NEB implementation
   FAccTs GmbH                                   : IRC, NEB, NEB-TS, DLPNO-Multilevel, CI-OPT
                                                   MM, QMMM, 2- and 3-layer-ONIOM, Crystal-QMMM,
                                                   LR-CPCM, SF, NACMEs, symmetry and pop. for TD-DFT,
                                                   nearIR, NL-DFT gradient (VV10), updates on ESD,
                                                   ML-optimized integration grids
   S Lehtola, MJT Oliveira, MAL Marques          : LibXC Library
   Liviu Ungur et al                             : ANISO software


 Your calculation uses the libint2 library for the computation of 2-el integrals
 For citations please refer to: http://libint.valeyev.net

 Your ORCA version has been built with support for libXC version: 5.1.0
 For citations please refer to: https://tddft.org/programs/libxc/

 This ORCA versions uses:
   CBLAS   interface :  Fast vector & matrix operations
   LAPACKE interface :  Fast linear algebra routines
   SCALAPACK package :  Parallel linear algebra routines
   Shared memory     :  Shared parallel matrices
   BLAS/LAPACK       :  OpenBLAS 0.3.15  USE64BITINT DYNAMIC_ARCH NO_AFFINITY Haswell SINGLE_THREADED
        Core in use  :  Haswell
   Copyright (c) 2011-2014, The OpenBLAS Project


Your calculation utilizes the atom-pairwise dispersion correction
with the zero-damping scheme (D30)
Cite in your paper:
S.Grimme, J.Antony, S.Ehrlich and H.Krieg, J.Chem.Phys., 132, (2010), 154104 
   

XCFun DFT library Copyright 2009-2010 Ulf Ekstrom and contributors.
See http://admol.org/xcfun for more information.
This is free software; see the source code for copying conditions.
There is ABSOLUTELY NO WARRANTY; not even for MERCHANTABILITY or FITNESS FOR A PARTICULAR PURPOSE.
For details see the documentation.
Scientific users of this library should cite U. Ekstrom, L. Visscher, R. Bast, A. J. Thorvaldsen and K. Ruud;
J.Chem.Theor.Comp. 2010, DOI: 10.1021/ct100117s
XCFun Version 0.99 

================================================================================

----- Orbital basis set information -----
Your calculation utilizes the basis: def2-TZVP
   F. Weigend and R. Ahlrichs, Phys. Chem. Chem. Phys. 7, 3297 (2005).

----- AuxJ basis set information -----
Your calculation utilizes the auxiliary basis: def2/J
   F. Weigend, Phys. Chem. Chem. Phys. 8, 1057 (2006).

================================================================================
                                        WARNINGS
                       Please study these warnings very carefully!
================================================================================


INFO   : the flag for use of the SHARK integral package has been found!

================================================================================
                                       INPUT FILE
================================================================================
NAME = C1_neg.com
|  1> !wB97X-D3 RIJCOSX def2-TZVP def2/J TightSCF 
|  2> *xyz 0 1 
|  3> C         -0.71189        0.84252       -4.21834
|  4> C         -0.39762       -0.20587       -5.28802
|  5> F          0.61717       -0.00535       -5.99827
|  6> O         -1.13317       -1.22138       -5.34147
|  7> H         -0.00939        1.64646       -4.28960
|  8> H         -0.64409        0.39449       -3.24902
|  9> H         -1.70192        1.21961       -4.36851
| 10> *
| 11> 
| 12> %MaxCore 64000
| 13> 
| 14> %pal nprocs 18
| 15> end  
| 16> 
| 17> %scf
| 18>   MaxIter 150
| 19> end
| 20> 
| 21> 
| 22>                          ****END OF INPUT****
================================================================================

                       ****************************
                       * Single Point Calculation *
                       ****************************

---------------------------------
CARTESIAN COORDINATES (ANGSTROEM)
---------------------------------
  C     -0.711890    0.842520   -4.218340
  C     -0.397620   -0.205870   -5.288020
  F      0.617170   -0.005350   -5.998270
  O     -1.133170   -1.221380   -5.341470
  H     -0.009390    1.646460   -4.289600
  H     -0.644090    0.394490   -3.249020
  H     -1.701920    1.219610   -4.368510

----------------------------
CARTESIAN COORDINATES (A.U.)
----------------------------
  NO LB      ZA    FRAG     MASS         X           Y           Z
   0 C     6.0000    0    12.011   -1.345277    1.592132   -7.971507
   1 C     6.0000    0    12.011   -0.751393   -0.389038   -9.992910
   2 F     9.0000    0    18.998    1.166282   -0.010110  -11.335088
   3 O     8.0000    0    15.999   -2.141381   -2.308074  -10.093915
   4 H     1.0000    0     1.008   -0.017745    3.111358   -8.106169
   5 H     1.0000    0     1.008   -1.217154    0.745478   -6.139758
   6 H     1.0000    0     1.008   -3.216163    2.304729   -8.255288

--------------------------------
INTERNAL COORDINATES (ANGSTROEM)
--------------------------------
 C      0   0   0     0.000000000000     0.00000000     0.00000000
 C      1   0   0     1.530392932354     0.00000000     0.00000000
 F      2   1   0     1.254775707846   116.88744745     0.00000000
 O      2   1   3     1.255050303813   117.62698629   176.69010279
 H      1   2   3     1.070001757569   109.47127787     3.30993646
 H      1   2   3     1.070004197796   109.47130423   243.30997867
 H      1   2   3     1.070003410228   109.47116059   123.31006799

---------------------------
INTERNAL COORDINATES (A.U.)
---------------------------
 C      0   0   0     0.000000000000     0.00000000     0.00000000
 C      1   0   0     2.892023519438     0.00000000     0.00000000
 F      2   1   0     2.371182447326   116.88744745     0.00000000
 O      2   1   3     2.371701358500   117.62698629   176.69010279
 H      1   2   3     2.022010284619   109.47127787     3.30993646
 H      1   2   3     2.022014895980   109.47130423   243.30997867
 H      1   2   3     2.022013407693   109.47116059   123.31006799

---------------------
BASIS SET INFORMATION
---------------------
There are 4 groups of distinct atoms

 Group   1 Type C   : 11s6p2d1f contracted to 5s3p2d1f pattern {62111/411/11/1}
 Group   2 Type F   : 11s6p2d1f contracted to 5s3p2d1f pattern {62111/411/11/1}
 Group   3 Type O   : 11s6p2d1f contracted to 5s3p2d1f pattern {62111/411/11/1}
 Group   4 Type H   : 5s1p contracted to 3s1p pattern {311/1}

Atom   0C    basis set group =>   1
Atom   1C    basis set group =>   1
Atom   2F    basis set group =>   2
Atom   3O    basis set group =>   3
Atom   4H    basis set group =>   4
Atom   5H    basis set group =>   4
Atom   6H    basis set group =>   4
---------------------------------
AUXILIARY/J BASIS SET INFORMATION
---------------------------------
There are 4 groups of distinct atoms

 Group   1 Type C   : 12s5p4d2f1g contracted to 6s4p3d1f1g pattern {711111/2111/211/2/1}
 Group   2 Type F   : 12s5p4d2f1g contracted to 6s4p3d1f1g pattern {711111/2111/211/2/1}
 Group   3 Type O   : 12s5p4d2f1g contracted to 6s4p3d1f1g pattern {711111/2111/211/2/1}
 Group   4 Type H   : 5s2p1d contracted to 3s1p1d pattern {311/2/1}

Atom   0C    basis set group =>   1
Atom   1C    basis set group =>   1
Atom   2F    basis set group =>   2
Atom   3O    basis set group =>   3
Atom   4H    basis set group =>   4
Atom   5H    basis set group =>   4
Atom   6H    basis set group =>   4


           ************************************************************
           *        Program running with 18 parallel MPI-processes    *
           *              working on a common directory               *
           ************************************************************
------------------------------------------------------------------------------
                           ORCA GTO INTEGRAL CALCULATION
                           -- RI-GTO INTEGRALS CHOSEN --
------------------------------------------------------------------------------
------------------------------------------------------------------------------
                   ___                                                        
                  /   \      - P O W E R E D   B Y -                         
                 /     \                                                     
                 |  |  |   _    _      __       _____    __    __             
                 |  |  |  | |  | |    /  \     |  _  \  |  |  /  |          
                  \  \/   | |  | |   /    \    | | | |  |  | /  /          
                 / \  \   | |__| |  /  /\  \   | |_| |  |  |/  /          
                |  |  |   |  __  | /  /__\  \  |    /   |      \           
                |  |  |   | |  | | |   __   |  |    \   |  |\   \          
                \     /   | |  | | |  |  |  |  | |\  \  |  | \   \       
                 \___/    |_|  |_| |__|  |__|  |_| \__\ |__|  \__/        
                                                                              
                      - O R C A' S   B I G   F R I E N D -                    
                                      &                                       
                       - I N T E G R A L  F E E D E R -                       
                                                                              
 v1 FN, 2020, v2 2021                                                         
------------------------------------------------------------------------------


Reading SHARK input file C1_neg.SHARKINP.tmp ... ok
----------------------
SHARK INTEGRAL PACKAGE
----------------------

Number of atoms                             ...      7
Number of basis functions                   ...    142
Number of shells                            ...     56
Maximum angular momentum                    ...      3
Integral batch strategy                     ... SHARK/LIBINT Hybrid
RI-J (if used) integral strategy            ... SPLIT-RIJ (Revised 2003 algorithm where possible)
Printlevel                                  ...      1
Contraction scheme used                     ... SEGMENTED contraction
Coulomb Range Separation                    ... NOT USED
Exchange Range Separation                   ... Long Range
   Mu parameter                             ...  0.250000
   Scaling (regular/separated)              ...  0.195728  0.804272
Finite Nucleus Model                        ... NOT USED
Auxiliary Coulomb fitting basis             ... AVAILABLE
   # of basis functions in Aux-J            ...    229
   # of shells in Aux-J                     ...     75
   Maximum angular momentum in Aux-J        ...      4
Auxiliary J/K fitting basis                 ... NOT available
Auxiliary Correlation fitting basis         ... NOT available
Auxiliary 'external' fitting basis          ... NOT available
Integral threshold                          ...     2.500000e-11
Primitive cut-off                           ...     2.500000e-12
Primitive pair pre-selection threshold      ...     2.500000e-12

Calculating pre-screening integrals         ... done (  0.1 sec) Dimension = 56
Organizing shell pair data                  ... done (  0.0 sec)
Shell pair information
Total number of shell pairs                 ...      1596
Shell pairs after pre-screening             ...      1558
Total number of primitive shell pairs       ...      4948
Primitive shell pairs kept                  ...      3938
          la=0 lb=0:    410 shell pairs
          la=1 lb=0:    431 shell pairs
          la=1 lb=1:    120 shell pairs
          la=2 lb=0:    225 shell pairs
          la=2 lb=1:    120 shell pairs
          la=2 lb=2:     36 shell pairs
          la=3 lb=0:    114 shell pairs
          la=3 lb=1:     60 shell pairs
          la=3 lb=2:     32 shell pairs
          la=3 lb=3:     10 shell pairs

Calculating one electron integrals          ... done (  0.0 sec)
Calculating RI/J V-Matrix + Cholesky decomp.... done (  0.0 sec)
Calculating Nuclear repulsion               ... done (  0.0 sec) ENN=    118.955674945513 Eh

SHARK setup successfully completed in   0.2 seconds

Maximum memory used throughout the entire GTOINT-calculation: 13.8 MB


           ************************************************************
           *        Program running with 18 parallel MPI-processes    *
           *              working on a common directory               *
           ************************************************************
-------------------------------------------------------------------------------
                                 ORCA SCF
-------------------------------------------------------------------------------

------------
SCF SETTINGS
------------
Hamiltonian:
 Density Functional     Method          .... DFT(GTOs)
 Exchange Functional    Exchange        .... WB97X-D3
 Correlation Functional Correlation     .... WB97X-D3
 Gradients option       PostSCFGGA      .... off
 Hybrid DFT is turned on
   Fraction HF Exchange ScalHFX         ....  0.195728
   Scaling of DF-GGA-X  ScalDFX         ....  0.000000
   Scaling of DF-GGA-C  ScalDFC         ....  1.000000
   Scaling of DF-LDA-C  ScalLDAC        ....  1.000000
   Perturbative correction              ....  0.000000
   Density functional embedding theory  .... OFF
 Long-range corrected/Screened/Range-Separated Hybrid DFT is turned on
   Amount of maximum screened exact exchange              ....  0.804272
   Range separation parameter mu (erf(mu*r12)/r12)        ....  0.250000
 RI-approximation to the Coulomb term is turned on
   Number of AuxJ basis functions       .... 229
   RIJ-COSX (HFX calculated with COS-X)).... on


General Settings:
 Integral files         IntName         .... C1_neg
 Hartree-Fock type      HFTyp           .... RHF
 Total Charge           Charge          ....    0
 Multiplicity           Mult            ....    1
 Number of Electrons    NEL             ....   32
 Basis Dimension        Dim             ....  142
 Nuclear Repulsion      ENuc            ....    118.9556749455 Eh

Convergence Acceleration:
 DIIS                   CNVDIIS         .... on
   Start iteration      DIISMaxIt       ....    12
   Startup error        DIISStart       ....  0.200000
   # of expansion vecs  DIISMaxEq       ....     5
   Bias factor          DIISBfac        ....   1.050
   Max. coefficient     DIISMaxC        ....  10.000
 Trust-Rad. Augm. Hess. CNVTRAH         .... auto
   Auto Start mean grad. ratio tolernc. ....  1.125000
   Auto Start start iteration           ....    20
   Auto Start num. interpolation iter.  ....    10
   Max. Number of Micro iterations      ....    16
   Max. Number of Macro iterations      .... Maxiter - #DIIS iter
   Number of Davidson start vectors     ....     2
   Converg. threshold I  (grad. norm)   ....   1.000e-05
   Converg. threshold II (energy diff.) ....   1.000e-08
   Grad. Scal. Fac. for Micro threshold ....   0.100
   Minimum threshold for Micro iter.    ....   0.010
   NR start threshold (gradient norm)   ....   0.001
   Initial trust radius                 ....   0.400
   Minimum AH scaling param. (alpha)    ....   1.000
   Maximum AH scaling param. (alpha)    .... 1000.000
   Orbital update algorithm             .... Taylor
   White noise on init. David. guess    .... on
   Maximum white noise                  ....   0.010
   Quad. conv. algorithm                .... NR
 SOSCF                  CNVSOSCF        .... on
   Start iteration      SOSCFMaxIt      ....   150
   Startup grad/error   SOSCFStart      ....  0.003300
 Level Shifting         CNVShift        .... on
   Level shift para.    LevelShift      ....    0.2500
   Turn off err/grad.   ShiftErr        ....    0.0010
 Zerner damping         CNVZerner       .... off
 Static damping         CNVDamp         .... on
   Fraction old density DampFac         ....    0.7000
   Max. Damping (<1)    DampMax         ....    0.9800
   Min. Damping (>=0)   DampMin         ....    0.0000
   Turn off err/grad.   DampErr         ....    0.1000
 Fernandez-Rico         CNVRico         .... off

SCF Procedure:
 Maximum # iterations   MaxIter         ....   150
 SCF integral mode      SCFMode         .... Direct
   Integral package                     .... SHARK and LIBINT hybrid scheme
 Reset frequency        DirectResetFreq ....    20
 Integral Threshold     Thresh          ....  2.500e-11 Eh
 Primitive CutOff       TCut            ....  2.500e-12 Eh

Convergence Tolerance:
 Convergence Check Mode ConvCheckMode   .... Total+1el-Energy
 Convergence forced     ConvForced      .... 0
 Energy Change          TolE            ....  1.000e-08 Eh
 1-El. energy change                    ....  1.000e-05 Eh
 Orbital Gradient       TolG            ....  1.000e-05
 Orbital Rotation angle TolX            ....  1.000e-05
 DIIS Error             TolErr          ....  5.000e-07


Diagonalization of the overlap matrix:
Smallest eigenvalue                        ... 5.757e-04
Time for diagonalization                   ...    0.007 sec
Threshold for overlap eigenvalues          ... 1.000e-08
Number of eigenvalues below threshold      ... 0
Time for construction of square roots      ...    0.010 sec
Total time needed                          ...    0.017 sec

Time for model grid setup =    0.041 sec

------------------------------
INITIAL GUESS: MODEL POTENTIAL
------------------------------
Loading Hartree-Fock densities                     ... done
Calculating cut-offs                               ... done
Initializing the effective Hamiltonian             ... done
Setting up the integral package (SHARK)            ... done
Starting the Coulomb interaction                   ... done (   0.0 sec)
Reading the grid                                   ... done
Mapping shells                                     ... done
Starting the XC term evaluation                    ... done (   0.0 sec)
  promolecular density results
     # of electrons  =     31.999379155
     EX              =    -29.248803593
     EC              =     -1.067777182
     EX+EC           =    -30.316580775
Transforming the Hamiltonian                       ... done (   0.0 sec)
Diagonalizing the Hamiltonian                      ... done (   0.0 sec)
Back transforming the eigenvectors                 ... done (   0.0 sec)
Now organizing SCF variables                       ... done
                      ------------------
                      INITIAL GUESS DONE (   0.1 sec)
                      ------------------
-------------------
DFT GRID GENERATION
-------------------

General Integration Accuracy     IntAcc      ... 4.388
Radial Grid Type                 RadialGrid  ... OptM3 with GC (2021)
Angular Grid (max. ang.)         AngularGrid ... 4 (Lebedev-302)
Angular grid pruning method      GridPruning ... 4 (adaptive)
Weight generation scheme         WeightScheme... Becke
Basis function cutoff            BFCut       ... 1.0000e-11
Integration weight cutoff        WCut        ... 1.0000e-14
Angular grids for H and He will be reduced by one unit
Partially contracted basis set               ... off
Rotationally invariant grid construction     ... off

Total number of grid points                  ...    34178
Total number of batches                      ...      537
Average number of points per batch           ...       63
Average number of grid points per atom       ...     4883
Time for grid setup =    0.263 sec

--------------------
COSX GRID GENERATION
--------------------

GRIDX 1
-------
General Integration Accuracy     IntAcc      ... 3.816
Radial Grid Type                 RadialGrid  ... OptM3 with GC (2021)
Angular Grid (max. ang.)         AngularGrid ... 1 (Lebedev-50)
Angular grid pruning method      GridPruning ... 4 (adaptive)
Weight generation scheme         WeightScheme... Becke
Basis function cutoff            BFCut       ... 1.0000e-11
Integration weight cutoff        WCut        ... 1.0000e-14
Angular grids for H and He will be reduced by one unit
Partially contracted basis set               ... on
Rotationally invariant grid construction     ... off

Total number of grid points                  ...     4368
Total number of batches                      ...       73
Average number of points per batch           ...       59
Average number of grid points per atom       ...      624
UseSFitting                                  ... on

GRIDX 2
-------
General Integration Accuracy     IntAcc      ... 4.020
Radial Grid Type                 RadialGrid  ... OptM3 with GC (2021)
Angular Grid (max. ang.)         AngularGrid ... 2 (Lebedev-110)
Angular grid pruning method      GridPruning ... 4 (adaptive)
Weight generation scheme         WeightScheme... Becke
Basis function cutoff            BFCut       ... 1.0000e-11
Integration weight cutoff        WCut        ... 1.0000e-14
Angular grids for H and He will be reduced by one unit
Partially contracted basis set               ... on
Rotationally invariant grid construction     ... off

Total number of grid points                  ...     9806
Total number of batches                      ...      157
Average number of points per batch           ...       62
Average number of grid points per atom       ...     1401
UseSFitting                                  ... on

GRIDX 3
-------
General Integration Accuracy     IntAcc      ... 4.338
Radial Grid Type                 RadialGrid  ... OptM3 with GC (2021)
Angular Grid (max. ang.)         AngularGrid ... 3 (Lebedev-194)
Angular grid pruning method      GridPruning ... 4 (adaptive)
Weight generation scheme         WeightScheme... Becke
Basis function cutoff            BFCut       ... 1.0000e-11
Integration weight cutoff        WCut        ... 1.0000e-14
Angular grids for H and He will be reduced by one unit
Partially contracted basis set               ... on
Rotationally invariant grid construction     ... off

Total number of grid points                  ...    21716
Total number of batches                      ...      343
Average number of points per batch           ...       63
Average number of grid points per atom       ...     3102
UseSFitting                                  ... on

Time for X-Grid setup             =    0.175 sec

--------------
SCF ITERATIONS
--------------
ITER       Energy         Delta-E        Max-DP      RMS-DP      [F,P]     Damp
               ***  Starting incremental Fock matrix formation  ***
  0   -252.9506702435   0.000000000000 0.04929513  0.00136864  0.2872920 0.7000
  1   -253.0274511767  -0.076780933159 0.02726363  0.00090030  0.1210111 0.7000
                               ***Turning on DIIS***
  2   -253.0578337875  -0.030382610779 0.03724935  0.00141565  0.0548263 0.0000
  3   -253.1103540140  -0.052520226532 0.02158173  0.00067677  0.0645442 0.0000
  4   -253.1187308365  -0.008376822498 0.00647552  0.00020520  0.0120673 0.0000
                      *** Initiating the SOSCF procedure ***
                           *** Shutting down DIIS ***
                      *** Re-Reading the Fockian *** 
                      *** Removing any level shift *** 
ITER      Energy       Delta-E        Grad      Rot      Max-DP    RMS-DP
  5   -253.11916497  -0.0004341296  0.001382  0.001382  0.003831  0.000102
               *** Restarting incremental Fock matrix formation ***
  6   -253.11918485  -0.0000198820  0.000783  0.001548  0.002430  0.000059
  7   -253.11919298  -0.0000081278  0.000377  0.001521  0.001843  0.000046
  8   -253.11919471  -0.0000017364  0.000141  0.000350  0.000717  0.000017
  9   -253.11919519  -0.0000004748  0.000028  0.000040  0.000168  0.000004
 10   -253.11919520  -0.0000000102  0.000020  0.000017  0.000034  0.000001
 11   -253.11919521  -0.0000000084  0.000011  0.000020  0.000011  0.000000
 12   -253.11919521  -0.0000000001  0.000006  0.000008  0.000013  0.000000
                  ***Gradient check signals convergence***
              ***Rediagonalizing the Fockian in SOSCF/NRSCF***

               *****************************************************
               *                     SUCCESS                       *
               *           SCF CONVERGED AFTER  13 CYCLES          *
               *****************************************************

Old exchange energy                            =     -9.280518268 Eh
New exchange energy                            =     -9.280531566 Eh
Exchange energy change after final integration =     -0.000013298 Eh
Total energy after final integration           =   -253.119208504 Eh
Final COS-X integration done in                =     0.681 sec

----------------
TOTAL SCF ENERGY
----------------

Total Energy       :         -253.11920850 Eh           -6887.72383 eV

Components:
Nuclear Repulsion  :          118.95567495 Eh            3236.94848 eV
Electronic Energy  :         -372.07488345 Eh          -10124.67231 eV
One Electron Energy:         -582.67972025 Eh          -15855.52127 eV
Two Electron Energy:          210.60483680 Eh            5730.84896 eV
Max COSX asymmetry :            0.00000275 Eh               0.00007 eV

Virial components:
Potential Energy   :         -505.29151374 Eh          -13749.68111 eV
Kinetic Energy     :          252.17230524 Eh            6861.95728 eV
Virial Ratio       :            2.00375499


DFT components:
N(Alpha)           :       16.000005070914 electrons
N(Beta)            :       16.000005070914 electrons
N(Total)           :       32.000010141829 electrons
E(XC)              :      -21.689653709492 Eh       
DFET-embed. en.    :        0.000000000000 Eh       

---------------
SCF CONVERGENCE
---------------

  Last Energy change         ...   -2.8615e-10  Tolerance :   1.0000e-08
  Last MAX-Density change    ...    6.6613e-16  Tolerance :   1.0000e-07
  Last RMS-Density change    ...    2.2028e-17  Tolerance :   5.0000e-09
  Last Orbital Gradient      ...    5.3701e-07  Tolerance :   1.0000e-05
  Last Orbital Rotation      ...    1.2377e-06  Tolerance :   1.0000e-05

             **** THE GBW FILE WAS UPDATED (C1_neg.gbw) ****
             **** DENSITY C1_neg.scfp WAS UPDATED ****
             **** ENERGY FILE WAS UPDATED (C1_neg.en.tmp) ****
             **** THE GBW FILE WAS UPDATED (C1_neg.gbw) ****
             **** DENSITY C1_neg.scfp WAS UPDATED ****
----------------
ORBITAL ENERGIES
----------------

  NO   OCC          E(Eh)            E(eV) 
   0   2.0000     -24.856429      -676.3778 
   1   2.0000     -19.235385      -523.4214 
   2   2.0000     -10.459219      -284.6098 
   3   2.0000     -10.299563      -280.2654 
   4   2.0000      -1.437540       -39.1175 
   5   2.0000      -1.148964       -31.2649 
   6   2.0000      -0.888267       -24.1710 
   7   2.0000      -0.767989       -20.8981 
   8   2.0000      -0.653684       -17.7876 
   9   2.0000      -0.650353       -17.6970 
  10   2.0000      -0.608527       -16.5589 
  11   2.0000      -0.545141       -14.8340 
  12   2.0000      -0.531965       -14.4755 
  13   2.0000      -0.499567       -13.5939 
  14   2.0000      -0.448292       -12.1986 
  15   2.0000      -0.391254       -10.6466 
  16   0.0000       0.057632         1.5683 
  17   0.0000       0.117892         3.2080 
  18   0.0000       0.182256         4.9594 
  19   0.0000       0.199313         5.4236 
  20   0.0000       0.207737         5.6528 
  21   0.0000       0.222919         6.0659 
  22   0.0000       0.272556         7.4166 
  23   0.0000       0.284001         7.7281 
  24   0.0000       0.301148         8.1947 
  25   0.0000       0.328924         8.9505 
  26   0.0000       0.364428         9.9166 
  27   0.0000       0.426923        11.6172 
  28   0.0000       0.460704        12.5364 
  29   0.0000       0.468177        12.7397 
  30   0.0000       0.502521        13.6743 
  31   0.0000       0.519038        14.1237 
  32   0.0000       0.529864        14.4183 
  33   0.0000       0.583450        15.8765 
  34   0.0000       0.597410        16.2563 
  35   0.0000       0.621792        16.9198 
  36   0.0000       0.624336        16.9890 
  37   0.0000       0.683343        18.5947 
  38   0.0000       0.704350        19.1663 
  39   0.0000       0.761112        20.7109 
  40   0.0000       0.770437        20.9647 
  41   0.0000       0.882269        24.0078 
  42   0.0000       0.906267        24.6608 
  43   0.0000       0.933597        25.4045 
  44   0.0000       0.987754        26.8781 
  45   0.0000       1.025027        27.8924 
  46   0.0000       1.042662        28.3723 
  47   0.0000       1.058062        28.7913 
  48   0.0000       1.111045        30.2331 
  49   0.0000       1.146093        31.1868 
  50   0.0000       1.272862        34.6363 
  51   0.0000       1.401276        38.1307 
  52   0.0000       1.477601        40.2076 
  53   0.0000       1.492563        40.6147 
  54   0.0000       1.562831        42.5268 
  55   0.0000       1.609968        43.8095 
  56   0.0000       1.613472        43.9048 
  57   0.0000       1.622289        44.1447 
  58   0.0000       1.655031        45.0357 
  59   0.0000       1.683815        45.8189 
  60   0.0000       1.838416        50.0258 
  61   0.0000       1.876137        51.0523 
  62   0.0000       1.900322        51.7104 
  63   0.0000       1.965929        53.4956 
  64   0.0000       1.969736        53.5992 
  65   0.0000       2.042161        55.5700 
  66   0.0000       2.106122        57.3105 
  67   0.0000       2.162863        58.8545 
  68   0.0000       2.204958        60.0000 
  69   0.0000       2.265324        61.6426 
  70   0.0000       2.324967        63.2656 
  71   0.0000       2.340356        63.6843 
  72   0.0000       2.420675        65.8699 
  73   0.0000       2.437720        66.3337 
  74   0.0000       2.456792        66.8527 
  75   0.0000       2.503297        68.1182 
  76   0.0000       2.529039        68.8186 
  77   0.0000       2.646309        72.0097 
  78   0.0000       2.657225        72.3068 
  79   0.0000       2.732162        74.3459 
  80   0.0000       2.801079        76.2212 
  81   0.0000       2.814110        76.5758 
  82   0.0000       2.860217        77.8305 
  83   0.0000       2.922489        79.5250 
  84   0.0000       2.974995        80.9537 
  85   0.0000       2.982541        81.1591 
  86   0.0000       3.042215        82.7829 
  87   0.0000       3.115913        84.7883 
  88   0.0000       3.116227        84.7968 
  89   0.0000       3.159544        85.9756 
  90   0.0000       3.195877        86.9642 
  91   0.0000       3.239297        88.1458 
  92   0.0000       3.277204        89.1773 
  93   0.0000       3.352464        91.2252 
  94   0.0000       3.385786        92.1319 
  95   0.0000       3.404822        92.6499 
  96   0.0000       3.451352        93.9161 
  97   0.0000       3.534258        96.1721 
  98   0.0000       3.563950        96.9800 
  99   0.0000       3.624850        98.6372 
 100   0.0000       3.738986       101.7430 
 101   0.0000       3.831620       104.2637 
 102   0.0000       3.903948       106.2318 
 103   0.0000       3.921760       106.7165 
 104   0.0000       3.933517       107.0364 
 105   0.0000       3.956909       107.6730 
 106   0.0000       4.087895       111.2373 
 107   0.0000       4.172941       113.5515 
 108   0.0000       4.422081       120.3309 
 109   0.0000       4.456467       121.2666 
 110   0.0000       4.548332       123.7664 
 111   0.0000       4.591345       124.9369 
 112   0.0000       4.753277       129.3433 
 113   0.0000       5.150458       140.1511 
 114   0.0000       5.280162       143.6805 
 115   0.0000       5.303672       144.3203 
 116   0.0000       5.578626       151.8021 
 117   0.0000       5.664203       154.1308 
 118   0.0000       6.024128       163.9248 
 119   0.0000       6.224546       169.3785 
 120   0.0000       6.306059       171.5966 
 121   0.0000       6.419138       174.6736 
 122   0.0000       6.514177       177.2598 
 123   0.0000       6.827122       185.7754 
 124   0.0000       6.901539       187.8004 
 125   0.0000       6.909539       188.0181 
 126   0.0000       6.930837       188.5977 
 127   0.0000       7.054442       191.9611 
 128   0.0000       7.147407       194.4908 
 129   0.0000       7.224657       196.5929 
 130   0.0000       7.420869       201.9321 
 131   0.0000       7.568806       205.9577 
 132   0.0000       7.889171       214.6753 
 133   0.0000       8.392493       228.3713 
 134   0.0000       8.468801       230.4478 
 135   0.0000       8.864525       241.2160 
 136   0.0000       9.026395       245.6207 
 137   0.0000       9.055397       246.4099 
 138   0.0000      22.434706       610.4794 
 139   0.0000      23.285606       633.6335 
 140   0.0000      43.782469      1191.3816 
 141   0.0000      57.193838      1556.3234 

                    ********************************
                    * MULLIKEN POPULATION ANALYSIS *
                    ********************************

-----------------------
MULLIKEN ATOMIC CHARGES
-----------------------
   0 C :   -0.351525
   1 C :    0.388771
   2 F :   -0.104624
   3 O :   -0.359183
   4 H :    0.125743
   5 H :    0.151103
   6 H :    0.149716
Sum of atomic charges:   -0.0000000

--------------------------------
MULLIKEN REDUCED ORBITAL CHARGES
--------------------------------
  0 C s       :     3.231087  s :     3.231087
      pz      :     1.013004  p :     3.079498
      px      :     1.080358
      py      :     0.986135
      dz2     :     0.009811  d :     0.038018
      dxz     :     0.002279
      dyz     :     0.009164
      dx2y2   :     0.005547
      dxy     :     0.011215
      f0      :     0.000332  f :     0.002922
      f+1     :     0.000068
      f-1     :     0.001044
      f+2     :     0.000300
      f-2     :     0.000384
      f+3     :     0.000342
      f-3     :     0.000452
  1 C s       :     3.068902  s :     3.068902
      pz      :     0.766603  p :     2.236276
      px      :     0.657610
      py      :     0.812063
      dz2     :     0.044423  d :     0.277827
      dxz     :     0.042569
      dyz     :     0.056351
      dx2y2   :     0.075768
      dxy     :     0.058717
      f0      :     0.003168  f :     0.028224
      f+1     :     0.004983
      f-1     :     0.001521
      f+2     :     0.002774
      f-2     :     0.005931
      f+3     :     0.003367
      f-3     :     0.006480
  2 F s       :     3.905509  s :     3.905509
      pz      :     1.725162  p :     5.179577
      px      :     1.585322
      py      :     1.869093
      dz2     :     0.003125  d :     0.018627
      dxz     :     0.006301
      dyz     :     0.001758
      dx2y2   :     0.004203
      dxy     :     0.003240
      f0      :     0.000088  f :     0.000911
      f+1     :     0.000199
      f-1     :     0.000020
      f+2     :     0.000225
      f-2     :     0.000144
      f+3     :     0.000125
      f-3     :     0.000110
  3 O s       :     3.849569  s :     3.849569
      pz      :     1.606687  p :     4.477830
      px      :     1.476479
      py      :     1.394664
      dz2     :     0.003219  d :     0.030040
      dxz     :     0.003108
      dyz     :     0.005461
      dx2y2   :     0.008865
      dxy     :     0.009387
      f0      :     0.000220  f :     0.001745
      f+1     :     0.000115
      f-1     :     0.000174
      f+2     :     0.000036
      f-2     :     0.000290
      f+3     :     0.000401
      f-3     :     0.000508
  4 H s       :     0.852214  s :     0.852214
      pz      :     0.004373  p :     0.022044
      px      :     0.007879
      py      :     0.009791
  5 H s       :     0.826681  s :     0.826681
      pz      :     0.011925  p :     0.022216
      px      :     0.004590
      py      :     0.005701
  6 H s       :     0.828106  s :     0.828106
      pz      :     0.004513  p :     0.022178
      px      :     0.012063
      py      :     0.005602


                     *******************************
                     * LOEWDIN POPULATION ANALYSIS *
                     *******************************

----------------------
LOEWDIN ATOMIC CHARGES
----------------------
   0 C :   -0.261413
   1 C :   -0.512250
   2 F :    0.322225
   3 O :    0.053735
   4 H :    0.122331
   5 H :    0.138064
   6 H :    0.137307

-------------------------------
LOEWDIN REDUCED ORBITAL CHARGES
-------------------------------
  0 C s       :     2.828475  s :     2.828475
      pz      :     1.058488  p :     3.196350
      px      :     1.085529
      py      :     1.052332
      dz2     :     0.058376  d :     0.213436
      dxz     :     0.014020
      dyz     :     0.053764
      dx2y2   :     0.030548
      dxy     :     0.056728
      f0      :     0.001937  f :     0.023153
      f+1     :     0.003082
      f-1     :     0.005271
      f+2     :     0.004504
      f-2     :     0.003260
      f+3     :     0.002245
      f-3     :     0.002854
  1 C s       :     2.789050  s :     2.789050
      pz      :     0.828923  p :     2.589567
      px      :     0.811007
      py      :     0.949636
      dz2     :     0.143991  d :     0.956583
      dxz     :     0.179518
      dyz     :     0.176780
      dx2y2   :     0.241080
      dxy     :     0.215215
      f0      :     0.020932  f :     0.177050
      f+1     :     0.029848
      f-1     :     0.010361
      f+2     :     0.023088
      f-2     :     0.031565
      f+3     :     0.022463
      f-3     :     0.038794
  2 F s       :     3.542671  s :     3.542671
      pz      :     1.693794  p :     5.095227
      px      :     1.626556
      py      :     1.774877
      dz2     :     0.005467  d :     0.037818
      dxz     :     0.013676
      dyz     :     0.003433
      dx2y2   :     0.008243
      dxy     :     0.007000
      f0      :     0.000178  f :     0.002058
      f+1     :     0.000451
      f-1     :     0.000038
      f+2     :     0.000480
      f-2     :     0.000363
      f+3     :     0.000260
      f-3     :     0.000287
  3 O s       :     3.448133  s :     3.448133
      pz      :     1.501653  p :     4.433342
      px      :     1.467289
      py      :     1.464400
      dz2     :     0.008385  d :     0.059726
      dxz     :     0.004767
      dyz     :     0.008736
      dx2y2   :     0.014300
      dxy     :     0.023539
      f0      :     0.000485  f :     0.005064
      f+1     :     0.000407
      f-1     :     0.000664
      f+2     :     0.000085
      f-2     :     0.000698
      f+3     :     0.001525
      f-3     :     0.001199
  4 H s       :     0.812449  s :     0.812449
      pz      :     0.013948  p :     0.065219
      px      :     0.024328
      py      :     0.026944
  5 H s       :     0.796204  s :     0.796204
      pz      :     0.032729  p :     0.065732
      px      :     0.014814
      py      :     0.018189
  6 H s       :     0.797077  s :     0.797077
      pz      :     0.014525  p :     0.065615
      px      :     0.034717
      py      :     0.016373


                      *****************************
                      * MAYER POPULATION ANALYSIS *
                      *****************************

  NA   - Mulliken gross atomic population
  ZA   - Total nuclear charge
  QA   - Mulliken gross atomic charge
  VA   - Mayer's total valence
  BVA  - Mayer's bonded valence
  FA   - Mayer's free valence

  ATOM       NA         ZA         QA         VA         BVA        FA
  0 C      6.3515     6.0000    -0.3515     3.8550     3.8550    -0.0000
  1 C      5.6112     6.0000     0.3888     4.2079     4.2079     0.0000
  2 F      9.1046     9.0000    -0.1046     1.1953     1.1953     0.0000
  3 O      8.3592     8.0000    -0.3592     2.0986     2.0986    -0.0000
  4 H      0.8743     1.0000     0.1257     0.9721     0.9721     0.0000
  5 H      0.8489     1.0000     0.1511     0.9765     0.9765    -0.0000
  6 H      0.8503     1.0000     0.1497     0.9772     0.9772    -0.0000

  Mayer bond orders larger than 0.100000
B(  0-C ,  1-C ) :   0.9914 B(  0-C ,  4-H ) :   0.9673 B(  0-C ,  5-H ) :   0.9526 
B(  0-C ,  6-H ) :   0.9543 B(  1-C ,  2-F ) :   1.1587 B(  1-C ,  3-O ) :   2.0388 


-------
TIMINGS
-------

Total SCF time: 0 days 0 hours 0 min 6 sec 

Total time                  ....       6.456 sec
Sum of individual times     ....       6.265 sec  ( 97.0%)

Fock matrix formation       ....       5.593 sec  ( 86.6%)
  Split-RI-J                ....       0.550 sec  (  9.8% of F)
  Chain of spheres X        ....       4.335 sec  ( 77.5% of F)
  XC integration            ....       0.649 sec  ( 11.6% of F)
    Basis function eval.    ....       0.196 sec  ( 30.2% of XC)
    Density eval.           ....       0.121 sec  ( 18.7% of XC)
    XC-Functional eval.     ....       0.068 sec  ( 10.4% of XC)
    XC-Potential eval.      ....       0.153 sec  ( 23.5% of XC)
Diagonalization             ....       0.051 sec  (  0.8%)
Density matrix formation    ....       0.007 sec  (  0.1%)
Population analysis         ....       0.009 sec  (  0.1%)
Initial guess               ....       0.039 sec  (  0.6%)
Orbital Transformation      ....       0.000 sec  (  0.0%)
Orbital Orthonormalization  ....       0.000 sec  (  0.0%)
DIIS solution               ....       0.036 sec  (  0.6%)
SOSCF solution              ....       0.051 sec  (  0.8%)
Grid generation             ....       0.479 sec  (  7.4%)

Maximum memory used throughout the entire SCF-calculation: 62.1 MB


-------------------------------------------------------------------------------
                          DFT DISPERSION CORRECTION                            
                                                                               
                              DFTD3 V3.1  Rev 1                                
                              USING zero damping                               
-------------------------------------------------------------------------------
The omegaB97X-D3 functional is recognized. Fit by Chai et al.
Active option DFTDOPT                   ...         3   

molecular C6(AA) [au] = 427.238041 


            DFT-D V3
 parameters
 s6 scaling factor         :     1.0000 
 rs6 scaling factor        :     1.2810 
 s8 scaling factor         :     1.0000 
 rs8 scaling factor        :     1.0940 
 Damping factor alpha6     :    14.0000 
 Damping factor alpha8     :    16.0000 
 ad hoc parameters k1-k3   :    16.0000     1.3333    -4.0000 

 Edisp/kcal,au: -0.570930227001  -0.000909835133 
 E6   /kcal   :  -0.190230564 
 E8   /kcal   :  -0.380699663 
 % E8         :  66.680593372 

-------------------------   ----------------
Dispersion correction           -0.000909835
-------------------------   ----------------


-------------------------   --------------------
FINAL SINGLE POINT ENERGY      -253.120118339371
-------------------------   --------------------


                            ***************************************
                            *     ORCA property calculations      *
                            ***************************************

                                    ---------------------
                                    Active property flags
                                    ---------------------
   (+) Dipole Moment


------------------------------------------------------------------------------
                       ORCA ELECTRIC PROPERTIES CALCULATION
------------------------------------------------------------------------------

Dipole Moment Calculation                       ... on
Quadrupole Moment Calculation                   ... off
Polarizability Calculation                      ... off
GBWName                                         ... C1_neg.gbw
Electron density file                           ... C1_neg.scfp
The origin for moment calculation is the CENTER OF MASS  = (-0.673286, -0.265263 -9.917128)

-------------
DIPOLE MOMENT
-------------
                                X             Y             Z
Electronic contribution:      2.42128      -2.26629      -3.81685
Nuclear contribution   :     -2.12043       3.31297       4.29327
                        -----------------------------------------
Total Dipole Moment    :      0.30085       1.04668       0.47643
                        -----------------------------------------
Magnitude (a.u.)       :      1.18871
Magnitude (Debye)      :      3.02146



--------------------
Rotational spectrum 
--------------------
 
Rotational constants in cm-1:     0.368089     0.321934     0.177312 
Rotational constants in MHz : 11035.034199  9651.332398  5315.666874 

 Dipole components along the rotational axes: 
x,y,z [a.u.] :     0.735293     0.933938    -0.011718 
x,y,z [Debye]:     1.868965     2.373883    -0.029786 

 

Timings for individual modules:

Sum of individual times         ...        7.475 sec (=   0.125 min)
GTO integral calculation        ...        0.605 sec (=   0.010 min)   8.1 %
SCF iterations                  ...        6.870 sec (=   0.115 min)  91.9 %
                             ****ORCA TERMINATED NORMALLY****
TOTAL RUN TIME: 0 days 0 hours 0 minutes 8 seconds 13 msec
