
                                        *****************
                                        * O   R   C   A *
                                        *****************

                                            #,                                       
                                            ###                                      
                                            ####                                     
                                            #####                                    
                                            ######                                   
                                           ########,                                 
                                     ,,################,,,,,                         
                               ,,#################################,,                 
                          ,,##########################################,,             
                       ,#########################################, ''#####,          
                    ,#############################################,,   '####,        
                  ,##################################################,,,,####,       
                ,###########''''           ''''###############################       
              ,#####''   ,,,,##########,,,,          '''####'''          '####       
            ,##' ,,,,###########################,,,                        '##       
           ' ,,###''''                  '''############,,,                           
         ,,##''                                '''############,,,,        ,,,,,,###''
      ,#''                                            '''#######################'''  
     '                                                          ''''####''''         
             ,#######,   #######,   ,#######,      ##                                
            ,#'     '#,  ##    ##  ,#'     '#,    #''#        ######   ,####,        
            ##       ##  ##   ,#'  ##            #'  '#       #        #'  '#        
            ##       ##  #######   ##           ,######,      #####,   #    #        
            '#,     ,#'  ##    ##  '#,     ,#' ,#      #,         ##   #,  ,#        
             '#######'   ##     ##  '#######'  #'      '#     #####' # '####'        



                  #######################################################
                  #                        -***-                        #
                  #          Department of theory and spectroscopy      #
                  #    Directorship and core code : Frank Neese         #
                  #        Max Planck Institute fuer Kohlenforschung    #
                  #                Kaiser Wilhelm Platz 1               #
                  #                 D-45470 Muelheim/Ruhr               #
                  #                      Germany                        #
                  #                                                     #
                  #                  All rights reserved                #
                  #                        -***-                        #
                  #######################################################


                         Program Version 5.0.0 -  RELEASE  -
                                (SVN: $Rev: 19529$)
                ($Date: 2021-06-28 11:36:33 +0200 (Mo, 28 Jun 2021) $)


 With contributions from (in alphabetic order):
   Daniel Aravena         : Magnetic Suceptibility
   Michael Atanasov       : Ab Initio Ligand Field Theory (pilot matlab implementation)
   Alexander A. Auer      : GIAO ZORA, VPT2 properties, NMR spectrum
   Ute Becker             : Parallelization
   Giovanni Bistoni       : ED, misc. LED, open-shell LED, HFLD
   Martin Brehm           : Molecular dynamics
   Dmytro Bykov           : SCF Hessian
   Vijay G. Chilkuri      : MRCI spin determinant printing, contributions to CSF-ICE
   Dipayan Datta          : RHF DLPNO-CCSD density
   Achintya Kumar Dutta   : EOM-CC, STEOM-CC
   Dmitry Ganyushin       : Spin-Orbit,Spin-Spin,Magnetic field MRCI
   Miquel Garcia          : C-PCM Hessian, Gaussian charge scheme
   Yang Guo               : DLPNO-NEVPT2, F12-NEVPT2, CIM, IAO-localization
   Andreas Hansen         : Spin unrestricted coupled pair/coupled cluster methods
   Benjamin Helmich-Paris : MC-RPA, TRAH-SCF, COSX integrals
   Lee Huntington         : MR-EOM, pCC
   Robert Izsak           : Overlap fitted RIJCOSX, COSX-SCS-MP3, EOM
   Marcus Kettner         : VPT2
   Christian Kollmar      : KDIIS, OOCD, Brueckner-CCSD(T), CCSD density, CASPT2, CASPT2-K
   Simone Kossmann        : Meta GGA functionals, TD-DFT gradient, OOMP2, MP2 Hessian
   Martin Krupicka        : Initial AUTO-CI
   Lucas Lang             : DCDCAS
   Marvin Lechner         : AUTO-CI (C++ implementation), FIC-MRCC
   Dagmar Lenk            : GEPOL surface, SMD
   Dimitrios Liakos       : Extrapolation schemes; Compound Job, initial MDCI parallelization
   Dimitrios Manganas     : Further ROCIS development; embedding schemes
   Dimitrios Pantazis     : SARC Basis sets
   Anastasios Papadopoulos: AUTO-CI, single reference methods and gradients
   Taras Petrenko         : DFT Hessian,TD-DFT gradient, ASA, ECA, R-Raman, ABS, FL, XAS/XES, NRVS
   Peter Pinski           : DLPNO-MP2, DLPNO-MP2 Gradient
   Christoph Reimann      : Effective Core Potentials
   Marius Retegan         : Local ZFS, SOC
   Christoph Riplinger    : Optimizer, TS searches, QM/MM, DLPNO-CCSD(T), (RO)-DLPNO pert. Triples
   Tobias Risthaus        : Range-separated hybrids, TD-DFT gradient, RPA, STAB
   Michael Roemelt        : Original ROCIS implementation
   Masaaki Saitow         : Open-shell DLPNO-CCSD energy and density
   Barbara Sandhoefer     : DKH picture change effects
   Avijit Sen             : IP-ROCIS
   Kantharuban Sivalingam : CASSCF convergence, NEVPT2, FIC-MRCI
   Bernardo de Souza      : ESD, SOC TD-DFT
   Georgi Stoychev        : AutoAux, RI-MP2 NMR
   Willem Van den Heuvel  : Paramagnetic NMR
   Boris Wezisla          : Elementary symmetry handling
   Frank Wennmohs         : Technical directorship


 We gratefully acknowledge several colleagues who have allowed us to
 interface, adapt or use parts of their codes:
   Stefan Grimme, W. Hujo, H. Kruse, P. Pracht,  : VdW corrections, initial TS optimization,
                  C. Bannwarth, S. Ehlert          DFT functionals, gCP, sTDA/sTD-DF
   Ed Valeev, F. Pavosevic, A. Kumar             : LibInt (2-el integral package), F12 methods
   Garnet Chan, S. Sharma, J. Yang, R. Olivares  : DMRG
   Ulf Ekstrom                                   : XCFun DFT Library
   Mihaly Kallay                                 : mrcc  (arbitrary order and MRCC methods)
   Jiri Pittner, Ondrej Demel                    : Mk-CCSD
   Frank Weinhold                                : gennbo (NPA and NBO analysis)
   Christopher J. Cramer and Donald G. Truhlar   : smd solvation model
   Lars Goerigk                                  : TD-DFT with DH, B97 family of functionals
   V. Asgeirsson, H. Jonsson                     : NEB implementation
   FAccTs GmbH                                   : IRC, NEB, NEB-TS, DLPNO-Multilevel, CI-OPT
                                                   MM, QMMM, 2- and 3-layer-ONIOM, Crystal-QMMM,
                                                   LR-CPCM, SF, NACMEs, symmetry and pop. for TD-DFT,
                                                   nearIR, NL-DFT gradient (VV10), updates on ESD,
                                                   ML-optimized integration grids
   S Lehtola, MJT Oliveira, MAL Marques          : LibXC Library
   Liviu Ungur et al                             : ANISO software


 Your calculation uses the libint2 library for the computation of 2-el integrals
 For citations please refer to: http://libint.valeyev.net

 Your ORCA version has been built with support for libXC version: 5.1.0
 For citations please refer to: https://tddft.org/programs/libxc/

 This ORCA versions uses:
   CBLAS   interface :  Fast vector & matrix operations
   LAPACKE interface :  Fast linear algebra routines
   SCALAPACK package :  Parallel linear algebra routines
   Shared memory     :  Shared parallel matrices
   BLAS/LAPACK       :  OpenBLAS 0.3.15  USE64BITINT DYNAMIC_ARCH NO_AFFINITY Haswell SINGLE_THREADED
        Core in use  :  Haswell
   Copyright (c) 2011-2014, The OpenBLAS Project


Your calculation utilizes the atom-pairwise dispersion correction
with the zero-damping scheme (D30)
Cite in your paper:
S.Grimme, J.Antony, S.Ehrlich and H.Krieg, J.Chem.Phys., 132, (2010), 154104 
   

XCFun DFT library Copyright 2009-2010 Ulf Ekstrom and contributors.
See http://admol.org/xcfun for more information.
This is free software; see the source code for copying conditions.
There is ABSOLUTELY NO WARRANTY; not even for MERCHANTABILITY or FITNESS FOR A PARTICULAR PURPOSE.
For details see the documentation.
Scientific users of this library should cite U. Ekstrom, L. Visscher, R. Bast, A. J. Thorvaldsen and K. Ruud;
J.Chem.Theor.Comp. 2010, DOI: 10.1021/ct100117s
XCFun Version 0.99 

================================================================================

----- Orbital basis set information -----
Your calculation utilizes the basis: def2-SVPD
   F. Weigend and R. Ahlrichs, Phys. Chem. Chem. Phys. 7, 3297 (2005).
   D. Rappoport and F. Furche, J. Chem. Phys. 133 134105 (2010).

----- AuxJ basis set information -----
Your calculation utilizes the auxiliary basis: def2/J
   F. Weigend, Phys. Chem. Chem. Phys. 8, 1057 (2006).

================================================================================
                                        WARNINGS
                       Please study these warnings very carefully!
================================================================================


WARNING: Minnesota functionals are quite sensitive to the integration grid.
         see SE Wheeler, KN Houk, JCTC 2010, 6, 395,
             N Mardirossian, M Head-Gordon, JCTC 2016, 12, 4303.
         DEFGRID3 seems to be a minimum grid for reliable results with these functionals!
  ===> : Please increase the integration grid!


INFO   : the flag for use of the SHARK integral package has been found!

================================================================================
                                       INPUT FILE
================================================================================
NAME = 18Feb_SVPD_M062X_C3_wt_wb97_typm1_pos.com
|  1> !M062X D3Zero RIJCOSX def2-SVPD def2/J TightSCF 
|  2> *xyz 0 1 
|  3> C          4.49059        1.15590       -2.46929
|  4> N          4.30539        1.22276       -3.90832
|  5> C          4.63192        2.24637       -4.67096
|  6> N          4.54169        2.14399       -5.98714
|  7> C          5.08409        3.39358       -4.11855
|  8> H          4.92067        3.57050       -3.13587
|  9> H          5.25465        4.19739       -4.70696
| 10> H          3.82453        0.44911       -4.35093
| 11> H          4.34337        1.24932       -6.41665
| 12> H          4.67671        2.95662       -6.57411
| 13> H          5.00867        2.03053       -2.13534
| 14> H          5.06354        0.28631       -2.22344
| 15> H          3.53600        1.10160       -1.98897
| 16> *
| 17> 
| 18> %MaxCore 64000
| 19> 
| 20> %pal nprocs 8
| 21> end  
| 22> 
| 23> %scf
| 24>   MaxIter 150
| 25> end
| 26> 
| 27> 
| 28>                          ****END OF INPUT****
================================================================================

                       ****************************
                       * Single Point Calculation *
                       ****************************

---------------------------------
CARTESIAN COORDINATES (ANGSTROEM)
---------------------------------
  C      4.490590    1.155900   -2.469290
  N      4.305390    1.222760   -3.908320
  C      4.631920    2.246370   -4.670960
  N      4.541690    2.143990   -5.987140
  C      5.084090    3.393580   -4.118550
  H      4.920670    3.570500   -3.135870
  H      5.254650    4.197390   -4.706960
  H      3.824530    0.449110   -4.350930
  H      4.343370    1.249320   -6.416650
  H      4.676710    2.956620   -6.574110
  H      5.008670    2.030530   -2.135340
  H      5.063540    0.286310   -2.223440
  H      3.536000    1.101600   -1.988970

----------------------------
CARTESIAN COORDINATES (A.U.)
----------------------------
  NO LB      ZA    FRAG     MASS         X           Y           Z
   0 C     6.0000    0    12.011    8.485985    2.184334   -4.666282
   1 N     7.0000    0    14.007    8.136008    2.310682   -7.385654
   2 C     6.0000    0    12.011    8.753060    4.245024   -8.826835
   3 N     7.0000    0    14.007    8.582550    4.051554  -11.314055
   4 C     6.0000    0    12.011    9.607538    6.412937   -7.782932
   5 H     1.0000    0     1.008    9.298719    6.747267   -5.925935
   6 H     1.0000    0     1.008    9.929849    7.931918   -8.894865
   7 H     1.0000    0     1.008    7.227314    0.848695   -8.222066
   8 H     1.0000    0     1.008    8.207780    2.360873  -12.125711
   9 H     1.0000    0     1.008    8.837701    5.587202  -12.423267
  10 H     1.0000    0     1.008    9.465015    3.837146   -4.035208
  11 H     1.0000    0     1.008    9.568704    0.541047   -4.201693
  12 H     1.0000    0     1.008    6.682072    2.081722   -3.758609

--------------------------------
INTERNAL COORDINATES (ANGSTROEM)
--------------------------------
 C      0   0   0     0.000000000000     0.00000000     0.00000000
 N      1   0   0     1.452438170973     0.00000000     0.00000000
 C      2   1   0     1.317580753730   125.28453029     0.00000000
 N      3   2   1     1.323235772529   119.91566171   173.18826598
 C      3   2   1     1.351186627043   120.39112332   354.48821383
 H      5   3   2     1.011764184581   119.43884036   342.13850582
 H      5   3   2     1.010656993149   119.58539031   185.29632085
 H      2   1   3     1.012750845075   117.28263783   184.79039578
 H      4   3   2     1.012049441184   120.25788289   351.78722447
 H      4   3   2     1.011499727237   120.39384801   172.23558929
 H      1   2   3     1.070003329808   109.47109666   355.20947063
 H      1   2   3     1.070000323878   109.47122905   235.20958549
 H      1   2   3     1.069999000233   109.47120197   115.20999227

---------------------------
INTERNAL COORDINATES (A.U.)
---------------------------
 C      0   0   0     0.000000000000     0.00000000     0.00000000
 N      1   0   0     2.744710369593     0.00000000     0.00000000
 C      2   1   0     2.489866783875   125.28453029     0.00000000
 N      3   2   1     2.500553220687   119.91566171   173.18826598
 C      3   2   1     2.553372680928   120.39112332   354.48821383
 H      5   3   2     1.911957220967   119.43884036   342.13850582
 H      5   3   2     1.909864932383   119.58539031   185.29632085
 H      2   1   3     1.913821739089   117.28263783   184.79039578
 H      4   3   2     1.912496277825   120.25788289   351.78722447
 H      4   3   2     1.911457469013   120.39384801   172.23558929
 H      1   2   3     2.022013255721   109.47109666   355.20947063
 H      1   2   3     2.022007575337   109.47122905   235.20958549
 H      1   2   3     2.022005074010   109.47120197   115.20999227

---------------------
BASIS SET INFORMATION
---------------------
There are 3 groups of distinct atoms

 Group   1 Type C   : 8s4p2d contracted to 4s2p2d pattern {5111/31/11}
 Group   2 Type N   : 8s4p2d contracted to 4s2p2d pattern {5111/31/11}
 Group   3 Type H   : 4s2p contracted to 2s2p pattern {31/11}

Atom   0C    basis set group =>   1
Atom   1N    basis set group =>   2
Atom   2C    basis set group =>   1
Atom   3N    basis set group =>   2
Atom   4C    basis set group =>   1
Atom   5H    basis set group =>   3
Atom   6H    basis set group =>   3
Atom   7H    basis set group =>   3
Atom   8H    basis set group =>   3
Atom   9H    basis set group =>   3
Atom  10H    basis set group =>   3
Atom  11H    basis set group =>   3
Atom  12H    basis set group =>   3
---------------------------------
AUXILIARY/J BASIS SET INFORMATION
---------------------------------
There are 3 groups of distinct atoms

 Group   1 Type C   : 12s5p4d2f1g contracted to 6s4p3d1f1g pattern {711111/2111/211/2/1}
 Group   2 Type N   : 12s5p4d2f1g contracted to 6s4p3d1f1g pattern {711111/2111/211/2/1}
 Group   3 Type H   : 5s2p1d contracted to 3s1p1d pattern {311/2/1}

Atom   0C    basis set group =>   1
Atom   1N    basis set group =>   2
Atom   2C    basis set group =>   1
Atom   3N    basis set group =>   2
Atom   4C    basis set group =>   1
Atom   5H    basis set group =>   3
Atom   6H    basis set group =>   3
Atom   7H    basis set group =>   3
Atom   8H    basis set group =>   3
Atom   9H    basis set group =>   3
Atom  10H    basis set group =>   3
Atom  11H    basis set group =>   3
Atom  12H    basis set group =>   3


           ************************************************************
           *        Program running with 8 parallel MPI-processes     *
           *              working on a common directory               *
           ************************************************************
------------------------------------------------------------------------------
                           ORCA GTO INTEGRAL CALCULATION
                           -- RI-GTO INTEGRALS CHOSEN --
------------------------------------------------------------------------------
------------------------------------------------------------------------------
                   ___                                                        
                  /   \      - P O W E R E D   B Y -                         
                 /     \                                                     
                 |  |  |   _    _      __       _____    __    __             
                 |  |  |  | |  | |    /  \     |  _  \  |  |  /  |          
                  \  \/   | |  | |   /    \    | | | |  |  | /  /          
                 / \  \   | |__| |  /  /\  \   | |_| |  |  |/  /          
                |  |  |   |  __  | /  /__\  \  |    /   |      \           
                |  |  |   | |  | | |   __   |  |    \   |  |\   \          
                \     /   | |  | | |  |  |  |  | |\  \  |  | \   \       
                 \___/    |_|  |_| |__|  |__|  |_| \__\ |__|  \__/        
                                                                              
                      - O R C A' S   B I G   F R I E N D -                    
                                      &                                       
                       - I N T E G R A L  F E E D E R -                       
                                                                              
 v1 FN, 2020, v2 2021                                                         
------------------------------------------------------------------------------


Reading SHARK input file 18Feb_SVPD_M062X_C3_wt_wb97_typm1_pos.SHARKINP.tmp ... ok
----------------------
SHARK INTEGRAL PACKAGE
----------------------

Number of atoms                             ...     13
Number of basis functions                   ...    164
Number of shells                            ...     72
Maximum angular momentum                    ...      2
Integral batch strategy                     ... SHARK/LIBINT Hybrid
RI-J (if used) integral strategy            ... SPLIT-RIJ (Revised 2003 algorithm where possible)
Printlevel                                  ...      1
Contraction scheme used                     ... SEGMENTED contraction
Coulomb Range Separation                    ... NOT USED
Exchange Range Separation                   ... NOT USED
Finite Nucleus Model                        ... NOT USED
Auxiliary Coulomb fitting basis             ... AVAILABLE
   # of basis functions in Aux-J            ...    333
   # of shells in Aux-J                     ...    115
   Maximum angular momentum in Aux-J        ...      4
Auxiliary J/K fitting basis                 ... NOT available
Auxiliary Correlation fitting basis         ... NOT available
Auxiliary 'external' fitting basis          ... NOT available
Integral threshold                          ...     2.500000e-11
Primitive cut-off                           ...     2.500000e-12
Primitive pair pre-selection threshold      ...     2.500000e-12

Calculating pre-screening integrals         ... done (  0.0 sec) Dimension = 72
Organizing shell pair data                  ... done (  0.0 sec)
Shell pair information
Total number of shell pairs                 ...      2628
Shell pairs after pre-screening             ...      2605
Total number of primitive shell pairs       ...      7110
Primitive shell pairs kept                  ...      6001
          la=0 lb=0:    657 shell pairs
          la=1 lb=0:    927 shell pairs
          la=1 lb=1:    348 shell pairs
          la=2 lb=0:    358 shell pairs
          la=2 lb=1:    260 shell pairs
          la=2 lb=2:     55 shell pairs

Calculating one electron integrals          ... done (  0.0 sec)
Calculating RI/J V-Matrix + Cholesky decomp.... done (  0.0 sec)
Calculating Nuclear repulsion               ... done (  0.0 sec) ENN=    185.361986965423 Eh

SHARK setup successfully completed in   0.2 seconds

Maximum memory used throughout the entire GTOINT-calculation: 8.9 MB


           ************************************************************
           *        Program running with 8 parallel MPI-processes     *
           *              working on a common directory               *
           ************************************************************
-------------------------------------------------------------------------------
                                 ORCA SCF
-------------------------------------------------------------------------------

------------
SCF SETTINGS
------------
Hamiltonian:
 Density Functional     Method          .... DFT(GTOs)
 Exchange Functional    Exchange        .... M062X
 Correlation Functional Correlation     .... M062X
 Gradients option       PostSCFGGA      .... off
 Hybrid DFT is turned on
   Fraction HF Exchange ScalHFX         ....  0.540000
   Scaling of DF-GGA-X  ScalDFX         ....  0.460000
   Scaling of DF-GGA-C  ScalDFC         ....  1.000000
   Scaling of DF-LDA-C  ScalLDAC        ....  1.000000
   Perturbative correction              ....  0.000000
   Density functional embedding theory  .... OFF
 RI-approximation to the Coulomb term is turned on
   Number of AuxJ basis functions       .... 333
   RIJ-COSX (HFX calculated with COS-X)).... on


General Settings:
 Integral files         IntName         .... 18Feb_SVPD_M062X_C3_wt_wb97_typm1_pos
 Hartree-Fock type      HFTyp           .... RHF
 Total Charge           Charge          ....    0
 Multiplicity           Mult            ....    1
 Number of Electrons    NEL             ....   40
 Basis Dimension        Dim             ....  164
 Nuclear Repulsion      ENuc            ....    185.3619869654 Eh

Convergence Acceleration:
 DIIS                   CNVDIIS         .... on
   Start iteration      DIISMaxIt       ....    12
   Startup error        DIISStart       ....  0.200000
   # of expansion vecs  DIISMaxEq       ....     5
   Bias factor          DIISBfac        ....   1.050
   Max. coefficient     DIISMaxC        ....  10.000
 Trust-Rad. Augm. Hess. CNVTRAH         .... auto
   Auto Start mean grad. ratio tolernc. ....  1.125000
   Auto Start start iteration           ....    20
   Auto Start num. interpolation iter.  ....    10
   Max. Number of Micro iterations      ....    16
   Max. Number of Macro iterations      .... Maxiter - #DIIS iter
   Number of Davidson start vectors     ....     2
   Converg. threshold I  (grad. norm)   ....   1.000e-05
   Converg. threshold II (energy diff.) ....   1.000e-08
   Grad. Scal. Fac. for Micro threshold ....   0.100
   Minimum threshold for Micro iter.    ....   0.010
   NR start threshold (gradient norm)   ....   0.001
   Initial trust radius                 ....   0.400
   Minimum AH scaling param. (alpha)    ....   1.000
   Maximum AH scaling param. (alpha)    .... 1000.000
   Orbital update algorithm             .... Taylor
   White noise on init. David. guess    .... on
   Maximum white noise                  ....   0.010
   Quad. conv. algorithm                .... NR
 SOSCF                  CNVSOSCF        .... on
   Start iteration      SOSCFMaxIt      ....   150
   Startup grad/error   SOSCFStart      ....  0.003300
 Level Shifting         CNVShift        .... on
   Level shift para.    LevelShift      ....    0.2500
   Turn off err/grad.   ShiftErr        ....    0.0010
 Zerner damping         CNVZerner       .... off
 Static damping         CNVDamp         .... on
   Fraction old density DampFac         ....    0.7000
   Max. Damping (<1)    DampMax         ....    0.9800
   Min. Damping (>=0)   DampMin         ....    0.0000
   Turn off err/grad.   DampErr         ....    0.1000
 Fernandez-Rico         CNVRico         .... off

SCF Procedure:
 Maximum # iterations   MaxIter         ....   150
 SCF integral mode      SCFMode         .... Direct
   Integral package                     .... SHARK and LIBINT hybrid scheme
 Reset frequency        DirectResetFreq ....    20
 Integral Threshold     Thresh          ....  2.500e-11 Eh
 Primitive CutOff       TCut            ....  2.500e-12 Eh

Convergence Tolerance:
 Convergence Check Mode ConvCheckMode   .... Total+1el-Energy
 Convergence forced     ConvForced      .... 0
 Energy Change          TolE            ....  1.000e-08 Eh
 1-El. energy change                    ....  1.000e-05 Eh
 Orbital Gradient       TolG            ....  1.000e-05
 Orbital Rotation angle TolX            ....  1.000e-05
 DIIS Error             TolErr          ....  5.000e-07


Diagonalization of the overlap matrix:
Smallest eigenvalue                        ... 7.045e-05
Time for diagonalization                   ...    0.008 sec
Threshold for overlap eigenvalues          ... 1.000e-08
Number of eigenvalues below threshold      ... 0
Time for construction of square roots      ...    0.008 sec
Total time needed                          ...    0.017 sec

Time for model grid setup =    0.056 sec

------------------------------
INITIAL GUESS: MODEL POTENTIAL
------------------------------
Loading Hartree-Fock densities                     ... done
Calculating cut-offs                               ... done
Initializing the effective Hamiltonian             ... done
Setting up the integral package (SHARK)            ... done
Starting the Coulomb interaction                   ... done (   0.0 sec)
Reading the grid                                   ... done
Mapping shells                                     ... done
Starting the XC term evaluation                    ... done (   0.0 sec)
  promolecular density results
     # of electrons  =     39.996393024
     EX              =    -30.873641408
     EC              =     -1.314833537
     EX+EC           =    -32.188474945
Transforming the Hamiltonian                       ... done (   0.0 sec)
Diagonalizing the Hamiltonian                      ... done (   0.0 sec)
Back transforming the eigenvectors                 ... done (   0.0 sec)
Now organizing SCF variables                       ... done
                      ------------------
                      INITIAL GUESS DONE (   0.1 sec)
                      ------------------
-------------------
DFT GRID GENERATION
-------------------

General Integration Accuracy     IntAcc      ... 4.388
Radial Grid Type                 RadialGrid  ... OptM3 with GC (2021)
Angular Grid (max. ang.)         AngularGrid ... 4 (Lebedev-302)
Angular grid pruning method      GridPruning ... 4 (adaptive)
Weight generation scheme         WeightScheme... Becke
Basis function cutoff            BFCut       ... 1.0000e-11
Integration weight cutoff        WCut        ... 1.0000e-14
Angular grids for H and He will be reduced by one unit
Partially contracted basis set               ... off
Rotationally invariant grid construction     ... off

Total number of grid points                  ...    57628
Total number of batches                      ...      906
Average number of points per batch           ...       63
Average number of grid points per atom       ...     4433
Time for grid setup =    0.311 sec

--------------------
COSX GRID GENERATION
--------------------

GRIDX 1
-------
General Integration Accuracy     IntAcc      ... 3.816
Radial Grid Type                 RadialGrid  ... OptM3 with GC (2021)
Angular Grid (max. ang.)         AngularGrid ... 1 (Lebedev-50)
Angular grid pruning method      GridPruning ... 4 (adaptive)
Weight generation scheme         WeightScheme... Becke
Basis function cutoff            BFCut       ... 1.0000e-11
Integration weight cutoff        WCut        ... 1.0000e-14
Angular grids for H and He will be reduced by one unit
Partially contracted basis set               ... on
Rotationally invariant grid construction     ... off

Total number of grid points                  ...     7232
Total number of batches                      ...      120
Average number of points per batch           ...       60
Average number of grid points per atom       ...      556
UseSFitting                                  ... on

GRIDX 2
-------
General Integration Accuracy     IntAcc      ... 4.020
Radial Grid Type                 RadialGrid  ... OptM3 with GC (2021)
Angular Grid (max. ang.)         AngularGrid ... 2 (Lebedev-110)
Angular grid pruning method      GridPruning ... 4 (adaptive)
Weight generation scheme         WeightScheme... Becke
Basis function cutoff            BFCut       ... 1.0000e-11
Integration weight cutoff        WCut        ... 1.0000e-14
Angular grids for H and He will be reduced by one unit
Partially contracted basis set               ... on
Rotationally invariant grid construction     ... off

Total number of grid points                  ...    15953
Total number of batches                      ...      257
Average number of points per batch           ...       62
Average number of grid points per atom       ...     1227
UseSFitting                                  ... on

GRIDX 3
-------
General Integration Accuracy     IntAcc      ... 4.338
Radial Grid Type                 RadialGrid  ... OptM3 with GC (2021)
Angular Grid (max. ang.)         AngularGrid ... 3 (Lebedev-194)
Angular grid pruning method      GridPruning ... 4 (adaptive)
Weight generation scheme         WeightScheme... Becke
Basis function cutoff            BFCut       ... 1.0000e-11
Integration weight cutoff        WCut        ... 1.0000e-14
Angular grids for H and He will be reduced by one unit
Partially contracted basis set               ... on
Rotationally invariant grid construction     ... off

Total number of grid points                  ...    36548
Total number of batches                      ...      577
Average number of points per batch           ...       63
Average number of grid points per atom       ...     2811
UseSFitting                                  ... on

Time for X-Grid setup             =    0.244 sec

--------------
SCF ITERATIONS
--------------
ITER       Energy         Delta-E        Max-DP      RMS-DP      [F,P]     Damp
               ***  Starting incremental Fock matrix formation  ***
  0   -228.0798514763   0.000000000000 0.10568254  0.00336044  0.2394173 0.7000
  1   -228.1840841598  -0.104232683456 0.06934522  0.00241938  0.1374034 0.7000
                               ***Turning on DIIS***
  2   -228.2337513148  -0.049667155048 0.16358142  0.00484397  0.0634286 0.0000
  3   -228.3054281047  -0.071676789900 0.05382061  0.00155502  0.0663176 0.0000
  4   -228.3217371194  -0.016309014697 0.01497374  0.00049764  0.0112859 0.0000
                      *** Initiating the SOSCF procedure ***
                           *** Shutting down DIIS ***
                      *** Re-Reading the Fockian *** 
                      *** Removing any level shift *** 
ITER      Energy       Delta-E        Grad      Rot      Max-DP    RMS-DP
  5   -228.32227626  -0.0005391456  0.000819  0.000819  0.006321  0.000189
               *** Restarting incremental Fock matrix formation ***
  6   -228.32234324  -0.0000669740  0.000308  0.000809  0.005086  0.000199
  7   -228.32234908  -0.0000058403  0.000276  0.000661  0.001799  0.000062
  8   -228.32235186  -0.0000027828  0.000045  0.000103  0.000724  0.000027
  9   -228.32235197  -0.0000001083  0.000037  0.000053  0.000176  0.000007
 10   -228.32235204  -0.0000000649  0.000005  0.000017  0.000073  0.000003
                  ***Gradient check signals convergence***
              ***Rediagonalizing the Fockian in SOSCF/NRSCF***

               *****************************************************
               *                     SUCCESS                       *
               *           SCF CONVERGED AFTER  11 CYCLES          *
               *****************************************************

Old exchange energy                            =    -17.115982749 Eh
New exchange energy                            =    -17.116005943 Eh
Exchange energy change after final integration =     -0.000023194 Eh
Total energy after final integration           =   -228.322375230 Eh
Final COS-X integration done in                =     0.879 sec

----------------
TOTAL SCF ENERGY
----------------

Total Energy       :         -228.32237523 Eh           -6212.96769 eV

Components:
Nuclear Repulsion  :          185.36198697 Eh            5043.95610 eV
Electronic Energy  :         -413.68436220 Eh          -11256.92379 eV
One Electron Energy:         -674.18190365 Eh          -18345.42226 eV
Two Electron Energy:          260.49754145 Eh            7088.49848 eV
Max COSX asymmetry :            0.00001478 Eh               0.00040 eV

Virial components:
Potential Energy   :         -454.71802755 Eh          -12373.50659 eV
Kinetic Energy     :          226.39565232 Eh            6160.53890 eV
Virial Ratio       :            2.00851042


DFT components:
N(Alpha)           :       20.000008379519 electrons
N(Beta)            :       20.000008379519 electrons
N(Total)           :       40.000016759038 electrons
E(XC)              :      -15.968851523098 Eh       
DFET-embed. en.    :        0.000000000000 Eh       

---------------
SCF CONVERGENCE
---------------

  Last Energy change         ...   -1.5871e-09  Tolerance :   1.0000e-08
  Last MAX-Density change    ...    2.6645e-15  Tolerance :   1.0000e-07
  Last RMS-Density change    ...    3.8149e-17  Tolerance :   5.0000e-09
  Last Orbital Gradient      ...    1.8330e-06  Tolerance :   1.0000e-05
  Last Orbital Rotation      ...    3.2280e-06  Tolerance :   1.0000e-05

             **** THE GBW FILE WAS UPDATED (18Feb_SVPD_M062X_C3_wt_wb97_typm1_pos.gbw) ****
             **** DENSITY 18Feb_SVPD_M062X_C3_wt_wb97_typm1_pos.scfp WAS UPDATED ****
             **** ENERGY FILE WAS UPDATED (18Feb_SVPD_M062X_C3_wt_wb97_typm1_pos.en.tmp) ****
             **** THE GBW FILE WAS UPDATED (18Feb_SVPD_M062X_C3_wt_wb97_typm1_pos.gbw) ****
             **** DENSITY 18Feb_SVPD_M062X_C3_wt_wb97_typm1_pos.scfp WAS UPDATED ****
----------------
ORBITAL ENERGIES
----------------

  NO   OCC          E(Eh)            E(eV) 
   0   2.0000     -14.765643      -401.7936 
   1   2.0000     -14.763000      -401.7217 
   2   2.0000     -10.600414      -288.4519 
   3   2.0000     -10.573624      -287.7229 
   4   2.0000     -10.460666      -284.6492 
   5   2.0000      -1.071801       -29.1652 
   6   2.0000      -0.979957       -26.6660 
   7   2.0000      -0.804336       -21.8871 
   8   2.0000      -0.780399       -21.2357 
   9   2.0000      -0.647470       -17.6186 
  10   2.0000      -0.627299       -17.0697 
  11   2.0000      -0.594222       -16.1696 
  12   2.0000      -0.526719       -14.3328 
  13   2.0000      -0.512073       -13.9342 
  14   2.0000      -0.481285       -13.0964 
  15   2.0000      -0.447995       -12.1906 
  16   2.0000      -0.446729       -12.1561 
  17   2.0000      -0.424646       -11.5552 
  18   2.0000      -0.313588        -8.5332 
  19   2.0000      -0.213094        -5.7986 
  20   0.0000       0.035453         0.9647 
  21   0.0000       0.057065         1.5528 
  22   0.0000       0.070380         1.9151 
  23   0.0000       0.101558         2.7635 
  24   0.0000       0.106831         2.9070 
  25   0.0000       0.112620         3.0645 
  26   0.0000       0.118335         3.2201 
  27   0.0000       0.134648         3.6640 
  28   0.0000       0.162163         4.4127 
  29   0.0000       0.168258         4.5785 
  30   0.0000       0.172682         4.6989 
  31   0.0000       0.186692         5.0802 
  32   0.0000       0.194553         5.2940 
  33   0.0000       0.211172         5.7463 
  34   0.0000       0.218367         5.9421 
  35   0.0000       0.228108         6.2071 
  36   0.0000       0.251604         6.8465 
  37   0.0000       0.258209         7.0262 
  38   0.0000       0.277978         7.5642 
  39   0.0000       0.283491         7.7142 
  40   0.0000       0.291366         7.9285 
  41   0.0000       0.304807         8.2942 
  42   0.0000       0.313579         8.5329 
  43   0.0000       0.322009         8.7623 
  44   0.0000       0.330741         8.9999 
  45   0.0000       0.334724         9.1083 
  46   0.0000       0.350560         9.5392 
  47   0.0000       0.357773         9.7355 
  48   0.0000       0.364433         9.9167 
  49   0.0000       0.371535        10.1100 
  50   0.0000       0.382460        10.4073 
  51   0.0000       0.387427        10.5424 
  52   0.0000       0.394205        10.7269 
  53   0.0000       0.399346        10.8668 
  54   0.0000       0.422822        11.5056 
  55   0.0000       0.432612        11.7720 
  56   0.0000       0.433800        11.8043 
  57   0.0000       0.452477        12.3125 
  58   0.0000       0.456017        12.4088 
  59   0.0000       0.469099        12.7648 
  60   0.0000       0.475734        12.9454 
  61   0.0000       0.485363        13.2074 
  62   0.0000       0.490995        13.3607 
  63   0.0000       0.493405        13.4262 
  64   0.0000       0.507092        13.7987 
  65   0.0000       0.518908        14.1202 
  66   0.0000       0.529180        14.3997 
  67   0.0000       0.549323        14.9478 
  68   0.0000       0.554243        15.0817 
  69   0.0000       0.574300        15.6275 
  70   0.0000       0.578235        15.7346 
  71   0.0000       0.593232        16.1427 
  72   0.0000       0.598902        16.2969 
  73   0.0000       0.604985        16.4625 
  74   0.0000       0.616106        16.7651 
  75   0.0000       0.632110        17.2006 
  76   0.0000       0.643471        17.5097 
  77   0.0000       0.657752        17.8983 
  78   0.0000       0.693771        18.8785 
  79   0.0000       0.700593        19.0641 
  80   0.0000       0.722710        19.6659 
  81   0.0000       0.737909        20.0795 
  82   0.0000       0.743708        20.2373 
  83   0.0000       0.774042        21.0628 
  84   0.0000       0.782397        21.2901 
  85   0.0000       0.795274        21.6405 
  86   0.0000       0.827411        22.5150 
  87   0.0000       0.939313        25.5600 
  88   0.0000       0.963626        26.2216 
  89   0.0000       0.989551        26.9271 
  90   0.0000       0.999309        27.1926 
  91   0.0000       1.006292        27.3826 
  92   0.0000       1.025153        27.8958 
  93   0.0000       1.048599        28.5338 
  94   0.0000       1.070609        29.1327 
  95   0.0000       1.090664        29.6785 
  96   0.0000       1.119312        30.4580 
  97   0.0000       1.132819        30.8256 
  98   0.0000       1.167415        31.7670 
  99   0.0000       1.184927        32.2435 
 100   0.0000       1.202907        32.7328 
 101   0.0000       1.229749        33.4632 
 102   0.0000       1.274294        34.6753 
 103   0.0000       1.296820        35.2883 
 104   0.0000       1.305716        35.5303 
 105   0.0000       1.320870        35.9427 
 106   0.0000       1.386157        37.7192 
 107   0.0000       1.403556        38.1927 
 108   0.0000       1.409916        38.3658 
 109   0.0000       1.574399        42.8416 
 110   0.0000       1.598808        43.5058 
 111   0.0000       1.612514        43.8787 
 112   0.0000       1.618559        44.0432 
 113   0.0000       1.644969        44.7619 
 114   0.0000       1.684236        45.8304 
 115   0.0000       1.727459        47.0066 
 116   0.0000       1.745758        47.5045 
 117   0.0000       1.758616        47.8544 
 118   0.0000       1.790167        48.7129 
 119   0.0000       1.813665        49.3523 
 120   0.0000       1.849263        50.3210 
 121   0.0000       1.889830        51.4249 
 122   0.0000       1.913918        52.0804 
 123   0.0000       1.941286        52.8251 
 124   0.0000       1.970634        53.6237 
 125   0.0000       1.995856        54.3100 
 126   0.0000       2.026811        55.1523 
 127   0.0000       2.064001        56.1643 
 128   0.0000       2.068025        56.2738 
 129   0.0000       2.092163        56.9306 
 130   0.0000       2.098372        57.0996 
 131   0.0000       2.135828        58.1188 
 132   0.0000       2.161824        58.8262 
 133   0.0000       2.168133        58.9979 
 134   0.0000       2.185821        59.4792 
 135   0.0000       2.229689        60.6729 
 136   0.0000       2.280002        62.0420 
 137   0.0000       2.330329        63.4115 
 138   0.0000       2.345922        63.8358 
 139   0.0000       2.393037        65.1178 
 140   0.0000       2.439751        66.3890 
 141   0.0000       2.467567        67.1459 
 142   0.0000       2.492667        67.8289 
 143   0.0000       2.528622        68.8073 
 144   0.0000       2.539669        69.1079 
 145   0.0000       2.620508        71.3077 
 146   0.0000       2.637875        71.7802 
 147   0.0000       2.682084        72.9832 
 148   0.0000       2.717362        73.9432 
 149   0.0000       2.737805        74.4995 
 150   0.0000       2.835600        77.1606 
 151   0.0000       2.875773        78.2537 
 152   0.0000       2.950929        80.2989 
 153   0.0000       2.960974        80.5722 
 154   0.0000       3.101703        84.4016 
 155   0.0000       3.112989        84.7087 
 156   0.0000       3.199896        87.0736 
 157   0.0000       3.234718        88.0212 
 158   0.0000       3.270947        89.0070 
 159   0.0000       3.337906        90.8290 
 160   0.0000       3.367883        91.6448 
 161   0.0000       3.404218        92.6335 
 162   0.0000       3.727128       101.4203 
 163   0.0000       3.752143       102.1010 

                    ********************************
                    * MULLIKEN POPULATION ANALYSIS *
                    ********************************

-----------------------
MULLIKEN ATOMIC CHARGES
-----------------------
   0 C :    1.172737
   1 N :   -0.618105
   2 C :    0.858290
   3 N :   -0.007982
   4 C :    0.238699
   5 H :   -0.151335
   6 H :   -0.473815
   7 H :   -0.391461
   8 H :   -0.176825
   9 H :   -0.035308
  10 H :   -0.161137
  11 H :   -0.105246
  12 H :   -0.148513
Sum of atomic charges:   -0.0000000

--------------------------------
MULLIKEN REDUCED ORBITAL CHARGES
--------------------------------
  0 C s       :     2.322359  s :     2.322359
      pz      :     0.821240  p :     2.523637
      px      :     0.865143
      py      :     0.837255
      dz2     :     0.004589  d :    -0.018734
      dxz     :     0.025945
      dyz     :    -0.009857
      dx2y2   :    -0.013765
      dxy     :    -0.025647
  1 N s       :     3.520269  s :     3.520269
      pz      :     1.136621  p :     3.833507
      px      :     1.557961
      py      :     1.138924
      dz2     :     0.071660  d :     0.264330
      dxz     :     0.081153
      dyz     :     0.074108
      dx2y2   :     0.010102
      dxy     :     0.027307
  2 C s       :     2.726328  s :     2.726328
      pz      :     0.694986  p :     2.153487
      px      :     0.795539
      py      :     0.662962
      dz2     :     0.033945  d :     0.261895
      dxz     :     0.014074
      dyz     :     0.063562
      dx2y2   :     0.056805
      dxy     :     0.093509
  3 N s       :     3.306134  s :     3.306134
      pz      :     1.001960  p :     3.696730
      px      :     1.665465
      py      :     1.029305
      dz2     :     0.005696  d :     0.005118
      dxz     :     0.016227
      dyz     :    -0.019461
      dx2y2   :     0.000803
      dxy     :     0.001853
  4 C s       :     2.943344  s :     2.943344
      pz      :     0.706263  p :     2.717439
      px      :     1.141236
      py      :     0.869940
      dz2     :    -0.011222  d :     0.100518
      dxz     :     0.008556
      dyz     :     0.060655
      dx2y2   :     0.021900
      dxy     :     0.020629
  5 H s       :     1.076150  s :     1.076150
      pz      :     0.001897  p :     0.075185
      px      :     0.056400
      py      :     0.016888
  6 H s       :     1.365542  s :     1.365542
      pz      :     0.021295  p :     0.108273
      px      :     0.054223
      py      :     0.032755
  7 H s       :     1.319674  s :     1.319674
      pz      :     0.003401  p :     0.071787
      px      :     0.058876
      py      :     0.009511
  8 H s       :     1.123855  s :     1.123855
      pz      :     0.001914  p :     0.052970
      px      :     0.074228
      py      :    -0.023172
  9 H s       :     1.014805  s :     1.014805
      pz      :    -0.005087  p :     0.020503
      px      :     0.064663
      py      :    -0.039073
 10 H s       :     1.003708  s :     1.003708
      pz      :     0.048673  p :     0.157429
      px      :     0.000854
      py      :     0.107902
 11 H s       :     1.089197  s :     1.089197
      pz      :     0.024950  p :     0.016049
      px      :    -0.031316
      py      :     0.022416
 12 H s       :     1.134575  s :     1.134575
      pz      :     0.022284  p :     0.013937
      px      :     0.057804
      py      :    -0.066150


                     *******************************
                     * LOEWDIN POPULATION ANALYSIS *
                     *******************************

----------------------
LOEWDIN ATOMIC CHARGES
----------------------
   0 C :    0.229894
   1 N :   -0.067589
   2 C :   -0.236416
   3 N :    0.171821
   4 C :    0.156316
   5 H :   -0.123346
   6 H :   -0.107864
   7 H :    0.025160
   8 H :   -0.004078
   9 H :    0.012276
  10 H :   -0.032094
  11 H :   -0.012557
  12 H :   -0.011522

-------------------------------
LOEWDIN REDUCED ORBITAL CHARGES
-------------------------------
  0 C s       :     2.678046  s :     2.678046
      pz      :     0.784915  p :     2.654811
      px      :     0.935315
      py      :     0.934581
      dz2     :     0.115094  d :     0.437249
      dxz     :     0.138704
      dyz     :     0.100461
      dx2y2   :     0.036834
      dxy     :     0.046156
  1 N s       :     2.906175  s :     2.906175
      pz      :     1.058936  p :     3.533414
      px      :     1.344617
      py      :     1.129861
      dz2     :     0.169198  d :     0.628000
      dxz     :     0.135574
      dyz     :     0.177771
      dx2y2   :     0.062996
      dxy     :     0.082461
  2 C s       :     2.629573  s :     2.629573
      pz      :     0.858191  p :     2.502540
      px      :     0.732899
      py      :     0.911450
      dz2     :     0.243884  d :     1.104304
      dxz     :     0.220187
      dyz     :     0.264273
      dx2y2   :     0.181973
      dxy     :     0.193987
  3 N s       :     2.924617  s :     2.924617
      pz      :     1.071552  p :     3.552195
      px      :     1.412091
      py      :     1.068552
      dz2     :     0.085483  d :     0.351367
      dxz     :     0.080627
      dyz     :     0.146746
      dx2y2   :     0.025699
      dxy     :     0.012814
  4 C s       :     2.723554  s :     2.723554
      pz      :     0.915789  p :     2.796130
      px      :     0.967508
      py      :     0.912834
      dz2     :     0.077846  d :     0.324000
      dxz     :     0.025957
      dyz     :     0.110349
      dx2y2   :     0.057328
      dxy     :     0.052521
  5 H s       :     0.754846  s :     0.754846
      pz      :     0.143264  p :     0.368500
      px      :     0.129598
      py      :     0.095639
  6 H s       :     0.775159  s :     0.775159
      pz      :     0.103213  p :     0.332705
      px      :     0.125231
      py      :     0.104260
  7 H s       :     0.655277  s :     0.655277
      pz      :     0.088130  p :     0.319563
      px      :     0.116153
      py      :     0.115280
  8 H s       :     0.662673  s :     0.662673
      pz      :     0.081361  p :     0.341406
      px      :     0.125402
      py      :     0.134643
  9 H s       :     0.649288  s :     0.649288
      pz      :     0.093572  p :     0.338436
      px      :     0.117545
      py      :     0.127319
 10 H s       :     0.714921  s :     0.714921
      pz      :     0.070370  p :     0.317173
      px      :     0.094994
      py      :     0.151809
 11 H s       :     0.755146  s :     0.755146
      pz      :     0.055074  p :     0.257411
      px      :     0.092116
      py      :     0.110221
 12 H s       :     0.755188  s :     0.755188
      pz      :     0.062947  p :     0.256334
      px      :     0.122588
      py      :     0.070800


                      *****************************
                      * MAYER POPULATION ANALYSIS *
                      *****************************

  NA   - Mulliken gross atomic population
  ZA   - Total nuclear charge
  QA   - Mulliken gross atomic charge
  VA   - Mayer's total valence
  BVA  - Mayer's bonded valence
  FA   - Mayer's free valence

  ATOM       NA         ZA         QA         VA         BVA        FA
  0 C      4.8273     6.0000     1.1727     3.1462     3.1462    -0.0000
  1 N      7.6181     7.0000    -0.6181     4.3303     4.3303    -0.0000
  2 C      5.1417     6.0000     0.8583     3.3464     3.3464    -0.0000
  3 N      7.0080     7.0000    -0.0080     3.7484     3.7484     0.0000
  4 C      5.7613     6.0000     0.2387     3.9276     3.9276    -0.0000
  5 H      1.1513     1.0000    -0.1513     1.2464     1.2464    -0.0000
  6 H      1.4738     1.0000    -0.4738     1.1426     1.1426     0.0000
  7 H      1.3915     1.0000    -0.3915     0.9845     0.9845     0.0000
  8 H      1.1768     1.0000    -0.1768     0.9745     0.9745     0.0000
  9 H      1.0353     1.0000    -0.0353     0.8524     0.8524    -0.0000
 10 H      1.1611     1.0000    -0.1611     1.2811     1.2811    -0.0000
 11 H      1.1052     1.0000    -0.1052     0.9645     0.9645    -0.0000
 12 H      1.1485     1.0000    -0.1485     0.9819     0.9819    -0.0000

  Mayer bond orders larger than 0.100000
B(  0-C ,  1-N ) :   0.8843 B(  0-C ,  7-H ) :  -0.1844 B(  0-C , 10-H ) :   0.8500 
B(  0-C , 11-H ) :   0.7490 B(  0-C , 12-H ) :   0.7701 B(  1-N ,  2-C ) :   0.9386 
B(  1-N ,  3-N ) :   0.1579 B(  1-N ,  4-C ) :   0.2829 B(  1-N ,  7-H ) :   1.4253 
B(  1-N , 10-H ) :   0.1711 B(  1-N , 11-H ) :   0.2135 B(  1-N , 12-H ) :   0.2012 
B(  2-C ,  3-N ) :   0.9021 B(  2-C ,  4-C ) :   1.6993 B(  2-C ,  5-H ) :   0.2007 
B(  2-C ,  6-H ) :   0.1144 B(  2-C ,  7-H ) :  -0.2809 B(  2-C ,  8-H ) :  -0.1137 
B(  3-N ,  4-C ) :   0.2094 B(  3-N ,  8-H ) :   1.2243 B(  3-N ,  9-H ) :   1.1707 
B(  4-C ,  5-H ) :   0.7060 B(  4-C ,  6-H ) :   0.9752 B(  5-H , 10-H ) :   0.1501 
B(  8-H ,  9-H ) :  -0.1813 

-------
TIMINGS
-------

Total SCF time: 0 days 0 hours 0 min 9 sec 

Total time                  ....       9.105 sec
Sum of individual times     ....       8.925 sec  ( 98.0%)

Fock matrix formation       ....       8.134 sec  ( 89.3%)
  Split-RI-J                ....       0.589 sec  (  7.2% of F)
  Chain of spheres X        ....       4.689 sec  ( 57.6% of F)
  XC integration            ....       2.819 sec  ( 34.7% of F)
    Basis function eval.    ....       0.460 sec  ( 16.3% of XC)
    Density eval.           ....       0.863 sec  ( 30.6% of XC)
    XC-Functional eval.     ....       0.201 sec  (  7.1% of XC)
    XC-Potential eval.      ....       1.198 sec  ( 42.5% of XC)
Diagonalization             ....       0.043 sec  (  0.5%)
Density matrix formation    ....       0.005 sec  (  0.1%)
Population analysis         ....       0.007 sec  (  0.1%)
Initial guess               ....       0.067 sec  (  0.7%)
Orbital Transformation      ....       0.000 sec  (  0.0%)
Orbital Orthonormalization  ....       0.000 sec  (  0.0%)
DIIS solution               ....       0.028 sec  (  0.3%)
SOSCF solution              ....       0.030 sec  (  0.3%)
Grid generation             ....       0.611 sec  (  6.7%)

Maximum memory used throughout the entire SCF-calculation: 51.0 MB


-------------------------------------------------------------------------------
                          DFT DISPERSION CORRECTION                            
                                                                               
                              DFTD3 V3.1  Rev 1                                
                              USING zero damping                               
-------------------------------------------------------------------------------
The M062X functional is recognized
Active option DFTDOPT                   ...         3   

molecular C6(AA) [au] = 1311.940082 


            DFT-D V3
 parameters
 s6 scaling factor         :     1.0000 
 rs6 scaling factor        :     1.6190 
 s8 scaling factor         :     0.0000 
 rs8 scaling factor        :     1.0000 
 Damping factor alpha6     :    14.0000 
 Damping factor alpha8     :    16.0000 
 ad hoc parameters k1-k3   :    16.0000     1.3333    -4.0000 

 Edisp/kcal,au: -0.105287094724  -0.000167785648 
 E6   /kcal   :  -0.105287095 
 E8   /kcal   :  -0.000000000 
 % E8         :   0.000000000 

-------------------------   ----------------
Dispersion correction           -0.000167786
-------------------------   ----------------


-------------------------   --------------------
FINAL SINGLE POINT ENERGY      -228.322543016023
-------------------------   --------------------


                            ***************************************
                            *     ORCA property calculations      *
                            ***************************************

                                    ---------------------
                                    Active property flags
                                    ---------------------
   (+) Dipole Moment


------------------------------------------------------------------------------
                       ORCA ELECTRIC PROPERTIES CALCULATION
------------------------------------------------------------------------------

Dipole Moment Calculation                       ... on
Quadrupole Moment Calculation                   ... off
Polarizability Calculation                      ... off
GBWName                                         ... 18Feb_SVPD_M062X_C3_wt_wb97_typm1_pos.gbw
Electron density file                           ... 18Feb_SVPD_M062X_C3_wt_wb97_typm1_pos.scfp
The origin for moment calculation is the CENTER OF MASS  = ( 8.686637,  3.793319 -8.009007)

-------------
DIPOLE MOMENT
-------------
                                X             Y             Z
Electronic contribution:     -0.38535      -0.72394      -2.63071
Nuclear contribution   :     -0.13890      -0.20745       2.21867
                        -----------------------------------------
Total Dipole Moment    :     -0.52425      -0.93140      -0.41204
                        -----------------------------------------
Magnitude (a.u.)       :      1.14548
Magnitude (Debye)      :      2.91157



--------------------
Rotational spectrum 
--------------------
 
Rotational constants in cm-1:     0.339212     0.134625     0.098371 
Rotational constants in MHz : 10169.318272  4035.946597  2949.073953 

 Dipole components along the rotational axes: 
x,y,z [a.u.] :     0.051304    -1.131095     0.173524 
x,y,z [Debye]:     0.130404    -2.875015     0.441063 

 

Timings for individual modules:

Sum of individual times         ...        9.975 sec (=   0.166 min)
GTO integral calculation        ...        0.507 sec (=   0.008 min)   5.1 %
SCF iterations                  ...        9.467 sec (=   0.158 min)  94.9 %
                             ****ORCA TERMINATED NORMALLY****
TOTAL RUN TIME: 0 days 0 hours 0 minutes 10 seconds 497 msec
